/*--------------------------------*- C++ -*----------------------------------*\
| =========                 |                                                 |
| \\      /  F ield         | OpenFOAM: The Open Source CFD Toolbox           |
|  \\    /   O peration     | Version:  5.x                                   |
|   \\  /    A nd           | Web:      www.OpenFOAM.org                      |
|    \\/     M anipulation  |                                                 |
\*---------------------------------------------------------------------------*/
FoamFile
{
    version     2.0;
    format      ascii;
    class       volScalarField;
    location    "0.25";
    object      voidfraction;
}
// * * * * * * * * * * * * * * * * * * * * * * * * * * * * * * * * * * * * * //

dimensions      [0 0 0 0 0 0 0];

internalField   nonuniform List<scalar> 
10571
(
0.988714
0.851462
0.889975
0.961003
0.908666
0.922484
0.978132
0.936079
0.863063
0.873813
0.981152
0.970392
0.978187
0.896255
0.874978
0.870637
0.904258
0.910547
0.942705
0.828391
0.852741
0.880292
0.924952
0.902329
1
0.971631
0.999099
0.991053
0.992388
0.997482
0.9991
0.997396
0.992755
0.979741
0.996784
0.996819
0.997853
0.997992
0.988109
0.964107
0.994373
0.997105
0.996427
0.993602
0.979301
0.964591
0.990772
0.992309
1
0.964971
0.999372
0.994583
0.992954
0.997451
0.999635
0.998498
0.994947
0.974448
0.98895
0.999042
0.998863
0.994063
0.992841
0.952916
0.993868
0.997881
0.993273
0.997978
0.961531
0.983984
0.993331
0.99153
0.996813
0.972194
0.997985
0.999025
0.993372
0.996871
0.999597
0.998507
0.994057
0.982811
0.984834
0.998049
0.99915
0.996744
0.994897
0.963794
0.9901
0.998076
0.996492
0.99674
0.970675
0.978606
0.996412
0.99657
0.997911
0.968808
0.997708
0.997803
0.992775
0.995983
0.9959
0.997494
0.993506
0.982179
0.990984
0.995811
0.999086
0.997865
0.994436
0.969626
0.989208
0.996803
0.996735
0.998056
0.963059
0.97468
0.997766
0.990188
0.99989
0.974684
0.999798
0.998409
0.990396
0.998919
0.99669
0.991746
0.989624
0.979727
0.650486
0.993842
0.997802
0.997939
0.997883
0.993431
0.962934
0.463313
0.988453
0.996337
0.996864
0.99476
0.981101
0.979866
0.994473
0.99439
0.997691
0.964824
0.999089
0.998002
0.993675
0.99564
0.997743
0.995225
0.991089
0.988101
1
1
0.998038
0.997745
0.99804
0.992911
0.969319
1
0.992722
0.995605
0.993461
0.999796
0.970854
1
0.97971
0.991212
0.991817
1
0.964207
0.998009
0.992145
0.996365
0.99706
0.994267
0.991672
0.993179
0.990584
1
0.99989
0.995737
0.992868
0.997658
0.994594
0.969578
1
0.988752
0.992185
0.994714
0.999016
0.974009
1
0.971657
0.997161
0.993926
1
0.982524
0.999021
0.997054
0.99578
0.997837
0.996189
0.992363
0.991963
0.991705
1
0.996811
0.996989
0.996856
0.996663
0.993316
0.972331
1
0.98821
0.994577
0.995478
0.99069
0.977355
0.961279
0.997372
0.99727
1
0.983309
0.999022
0.994147
0.993286
0.998108
0.997304
0.994357
0.993355
0.984136
0.993732
0.992119
0.993122
0.997512
0.99293
0.971051
0.995399
0.995587
0.993621
0.991529
0.982637
0.97309
0.996497
0.992294
0.99989
0.976086
0.996425
0.998073
0.994471
0.996757
0.997833
0.996405
0.992632
0.984272
1
1
0.996875
0.998656
0.993992
0.963249
0.997685
0.994929
0.993555
0.997027
0.982143
0.981416
0.999909
0.983617
0.99956
0.988576
0.994302
0.998007
0.990959
0.998581
0.998549
0.998019
0.995495
0.983615
1
0.994726
0.998095
0.998373
0.992825
0.961051
0.99537
0.996523
0.996414
0.995495
0.973361
0.976112
0.998249
0.990549
1
0.981968
0.999022
0.997804
0.993932
0.998345
0.994097
0.998035
0.995058
0.979497
1
0.99902
0.998838
0.997262
0.992989
0.958645
0.995791
0.996927
0.99599
0.996128
0.97389
0.967982
0.997886
0.992229
1
0.977096
0.999022
0.996149
0.997236
0.999291
0.991408
0.992938
0.994928
0.990037
1
0.997735
0.9987
0.998172
0.991209
0.950871
0.99561
0.994759
0.994712
0.996595
0.978296
0.983159
0.997373
0.987047
1
0.984936
0.996932
0.99902
0.996425
1
0.996822
0.995663
0.993922
0.991433
1
0.998986
0.998788
0.998618
0.99313
0.923269
0.997775
0.994008
0.992537
1
0.976406
0.977119
1
0.99797
1
0.983256
0.999022
1
0.997086
0.999021
0.995674
0.996922
0.993809
0.988138
1
0.997127
0.992992
0.998881
0.993272
0.930585
0.993386
0.994012
0.994461
0.998064
0.985718
0.984862
0.996316
0.992159
1
0.976762
0.997641
0.995136
0.996214
0.999966
0.996704
0.996815
0.994697
0.994533
1
0.999088
0.996696
0.99959
0.994613
0.927555
0.994378
0.99612
0.995589
0.999032
0.979763
0.980255
0.996497
0.984175
1
0.962539
0.999326
0.998987
0.996455
1
0.997951
0.998841
0.995679
0.99337
1
0.999054
0.997496
0.999102
0.994411
0.907569
0.998828
0.996693
0.996548
0.997163
0.98803
0.986491
0.998249
0.99146
1
0.96825
0.999966
0.998514
0.994984
1
0.996776
0.998995
0.99492
0.989884
1
0.998479
0.996311
0.999888
0.994857
0.886222
0.993206
0.997917
0.998092
0.998765
0.98201
0.987226
0.999698
0.99391
1
0.982977
0.998382
0.99902
0.994864
0.999021
0.991008
0.99947
0.995719
0.994109
1
0.996587
0.995361
0.999574
0.995075
0.867965
0.99519
0.995857
0.997865
0.998097
0.98614
0.967288
0.999819
0.97354
1
0.982251
0.997101
0.998683
0.996846
0.994935
0.990462
0.998902
0.995667
0.992053
1
1
0.996269
0.999024
0.994463
0.864005
0.993957
0.997735
0.998654
1
0.98775
0.945915
0.999124
0.97326
0.996812
0.986505
0.99545
0.997061
0.993151
0.993247
0.99409
0.994573
0.992993
0.992712
1
0.996857
0.987046
0.998804
0.990556
0.856206
0.999098
0.993822
0.99901
0.999032
0.98628
0.946225
0.998249
0.95772
1
0.989025
0.999966
0.994528
0.996786
0.995442
0.996559
0.991357
0.994548
0.986742
1
0.991686
0.988492
0.999253
0.987723
0.85536
0.993958
0.988848
0.997898
1
0.98782
0.946612
0.999819
0.96703
1
0.981017
0.997775
0.998075
0.994773
0.998379
0.996387
0.99404
0.996906
0.989108
0.996812
0.997127
0.999296
0.983804
0.982344
0.81555
0.997114
0.989643
0.995751
0.998965
0.98376
0.968641
0.992633
0.97816
0.996811
0.976988
0.998989
0.996994
0.993962
0.999021
0.991427
0.993476
0.997112
0.989494
0.996922
0.994457
0.996246
0.980807
0.983568
0.823076
0.991824
0.99782
0.989841
0.996228
0.98362
0.977081
0.999124
0.97697
1
0.982587
0.997978
0.997095
0.996846
0.998379
0.9943
0.992789
0.997896
0.992867
1
0.999966
0.99453
0.999288
0.981108
0.843994
0.994619
0.989437
0.988761
0.997062
0.96717
0.975724
0.997434
0.97277
1
0.992721
0.999022
0.996656
0.993722
0.995678
0.986521
0.99521
0.997767
0.994379
0.993734
0.996249
0.99293
0.991389
0.978462
0.819237
0.994739
0.989336
0.995686
0.99546
0.97662
0.977431
0.9968
0.9741
0.9989
0.994401
0.996124
0.998683
0.997417
0.997265
0.986601
0.99632
0.99731
0.989999
1
0.997465
0.991884
0.995083
0.978076
0.798682
0.997414
0.991206
0.9924
0.99516
0.94946
0.97205
0.99837
0.97767
1
0.994064
0.997405
0.993515
0.995314
0.995408
0.981912
0.995502
0.996349
0.995697
1
0.984319
0.985095
0.995656
0.976313
0.766429
0.993777
0.988105
0.985341
0.982475
0.95709
0.977082
0.995229
0.96717
0.99945
1
0.996157
0.998345
0.994743
0.998312
0.989375
0.991043
0.994423
0.99527
1
0.999223
0.984818
0.994606
0.969686
0.773593
0.996573
0.981774
0.982802
0.976065
0.95058
0.947893
0.983998
0.98271
1
0.995184
0.996056
0.997568
0.995853
0.997096
0.990286
0.992033
0.994524
0.99085
1
0.999966
0.985934
0.994723
0.968025
0.753923
0.994498
0.981495
0.982442
0.984578
0.833467
0.977315
0.987077
0.97179
0.998021
1
0.998045
1
0.99387
1
0.983053
0.990498
0.995497
0.991392
1
1
0.987203
0.983459
0.951901
0.728614
0.997535
0.980437
0.969255
0.98648
0.648105
0.974644
0.974215
0.93665
0.994062
0.996753
0.998045
0.997466
0.998798
1
0.994506
0.992689
0.987331
0.987515
1
1
0.989303
0.979134
0.916416
0.665861
0.998196
0.97818
0.953238
0.969556
0.591334
0.982502
0.974092
0.89822
1
0.997088
0.998314
0.998345
0.995102
0.999325
0.999012
0.99204
0.982982
0.976465
1
0.997634
0.991653
0.978828
0.844156
0.559761
1
0.983659
0.941943
0.856726
0.530643
0.983972
0.968868
0.663719
0.99923
0.997872
0.997303
0.996082
0.996514
0.997704
0.99892
0.986813
0.99351
0.988562
0.996812
0.99902
0.994292
0.98615
0.771475
0.499456
0.998256
0.986667
0.923188
0.578022
0.492422
0.993611
0.969653
0.537526
0.998131
0.991545
0.997708
0.99902
0.996785
0.997434
0.999206
0.989922
0.997084
0.998488
1
1
0.996465
0.990351
0.743958
0.49539
0.999699
0.992478
0.909172
0.485822
0.479752
0.998877
0.977323
0.524209
0.990434
0.994679
0.99609
0.998852
0.998828
0.98916
0.998111
0.998922
0.998934
0.998216
1
0.99902
0.999888
0.995168
0.734623
0.491859
0.999699
0.998607
0.908671
0.472203
0.507767
0.997328
0.969321
0.539959
0.996811
0.995856
0.990156
0.99902
0.997386
0.992402
0.999054
0.999889
0.998566
0.997829
1
0.999966
0.999777
0.9959
0.744781
0.529018
1
0.999067
0.901665
0.473771
0.571336
0.995626
0.99224
0.565299
1
1
0.996089
0.999223
0.997687
0.993246
0.997596
0.999889
0.998994
0.997751
1
0.998242
0.999554
0.999199
0.771272
0.569787
0.999128
0.999221
0.90103
0.483419
0.538485
0.99849
0.995954
0.622348
1
0.995071
0.986785
0.99902
1
0.993956
0.997192
0.999739
0.998958
0.997015
1
0.997059
0.999419
0.999884
0.812282
0.662021
1
0.999491
0.90992
0.508155
0.555425
0.99791
0.996014
0.636167
0.996922
0.999944
0.989651
0.997703
0.998829
0.997535
0.997295
0.999927
0.999616
0.996899
0.99912
0.999932
0.999088
0.999744
0.845546
0.770691
0.999128
0.999374
0.933639
0.523978
0.577755
0.995083
0.996105
0.649578
0.99989
0.996304
0.991403
0.994967
0.997086
0.991186
0.998268
0.999259
0.999842
0.997752
1
0.999155
0.996715
0.999888
0.873866
0.900641
0.999128
0.998991
0.962593
0.609067
0.555495
0.99636
0.994988
0.678628
0.985379
0.998096
0.997303
0.994663
0.997357
0.994699
0.997242
0.999328
0.999637
0.996124
0.993622
0.99706
0.998523
0.999775
0.901123
0.98147
0.997535
0.998833
0.984666
0.599921
0.552625
0.990787
0.993961
0.732738
0.992964
0.997368
0.995483
0.998852
0.997417
0.996016
0.998249
0.998607
0.999176
0.992171
0.994833
0.999966
0.998769
0.999775
0.927027
0.98407
0.999158
0.99941
0.997312
0.634871
0.587275
0.992372
0.987316
0.8352
0.996812
1
0.994809
0.997264
0.997807
0.993381
0.997856
0.998392
0.999443
0.991975
0.994611
0.999662
0.998977
0.999772
0.958496
0.964476
0.997595
0.998934
0.998706
0.655268
0.552154
0.998412
0.984054
0.854453
0.990436
0.998824
0.991944
0.992468
0.996486
0.991052
0.998348
0.998645
0.997759
0.984375
0.991094
0.995438
0.999492
0.999779
0.983678
0.954102
0.995551
0.999184
0.998961
0.690183
0.603191
0.988848
0.977534
0.814919
0.996812
0.993503
0.991707
0.992569
0.998348
0.992841
0.998539
0.999087
0.99786
0.977589
0.99934
0.991483
0.999054
0.999775
0.988246
0.940496
0.998166
0.998474
0.996269
0.753642
0.640086
0.989274
0.969774
0.778379
0.996811
0.98667
0.986648
0.99179
0.99357
0.990107
0.997955
0.999666
0.997452
0.954287
0.997471
0.994322
0.999565
0.999028
0.985088
0.914826
0.996272
0.997093
0.994227
0.909235
0.671203
0.977425
0.934288
0.780269
0.985484
0.980733
0.990829
0.99804
0.99393
0.990848
0.999493
0.99985
0.998639
0.878409
0.993622
0.994389
0.9998
0.999272
0.986499
0.894658
0.994409
0.998046
0.996066
0.944486
0.773593
0.95516
0.922262
0.823159
0.973498
0.91034
0.993427
0.997703
0.986088
0.982408
0.999996
0.999889
0.999875
0.786479
0.991972
1
1
0.999137
0.98594
0.929599
0.984429
0.999406
0.997146
0.96762
0.902279
0.901159
0.908762
0.839331
0.751088
0.653066
0.863723
0.996318
0.747862
0.805713
1
1
0.999972
0.747706
0.91983
0.889758
1
0.999663
0.989806
0.942778
0.745816
0.997961
0.993164
0.975932
0.898919
0.7481
0.921165
0.9685
0.936892
0.967074
0.975259
0.960278
0.920387
0.98879
1
1
0.999968
0.952581
0.930065
0.957012
0.999946
1
0.993174
0.961459
0.899288
0.99761
0.99643
0.986414
0.913269
0.888694
0.967062
0.97053
1
1
0.967911
0.998379
0.99997
0.992707
0.999783
1
0.999915
0.962979
1
0.997736
0.999985
1
0.998942
0.976573
0.99991
0.992987
0.998351
0.994792
0.905569
0.96295
0.985054
0.963596
1
1
0.993629
0.995406
0.999099
0.999899
0.988966
1
0.997815
0.965078
1
0.993038
0.999781
1
0.999814
0.984674
0.999158
0.989292
0.999883
0.999366
0.870359
0.994231
0.97666
0.934542
1
1
1
0.990542
1
1
0.960432
0.98116
0.980219
0.994341
1
0.999527
0.985884
0.997305
0.992344
0.959948
1
0.980498
0.984371
1
0.860979
1
0.946985
0.93448
1
1
1
1
1
1
0.998585
0.977353
0.987638
1
1
1
0.980168
0.953889
0.954904
0.99737
1
0.995373
0.977628
0.921587
0.99006
1
0.999155
0.99797
1
1
1
1
1
1
1
1
1
1
1
1
1
0.999872
0.99957
0.999123
1
1
0.999511
0.997864
0.994538
1
1
1
1
1
1
1
1
1
1
1
1
1
1
1
1
1
1
1
1
1
1
1
0.99797
1
1
0.99867
1
1
1
1
1
1
1
1
1
1
1
1
1
1
1
1
1
1
1
1
1
1
1
0.997969
1
1
1
1
1
1
1
1
1
1
1
1
1
1
1
1
1
1
1
1
1
1
1
1
1
1
1
1
1
1
1
1
1
1
1
1
1
1
1
1
1
1
1
1
1
1
1
1
1
1
1
1
1
1
1
1
1
1
1
1
1
1
1
1
1
1
1
1
1
1
1
1
1
1
1
1
1
1
1
1
1
1
1
1
1
1
1
1
1
1
1
1
1
1
1
1
1
1
1
1
1
1
1
1
1
1
1
1
1
1
1
1
1
1
1
1
1
1
1
1
1
1
1
1
1
1
1
1
1
1
1
1
1
1
1
1
1
1
1
1
1
1
1
1
1
1
1
1
1
1
1
1
1
1
1
1
1
1
1
1
1
1
1
1
1
1
1
1
1
1
1
1
1
1
1
1
1
1
1
1
1
1
1
1
1
1
1
1
1
1
1
1
1
1
1
1
1
1
1
1
1
1
1
1
1
1
1
1
1
1
1
1
1
1
1
1
1
1
1
1
1
1
1
1
1
1
1
1
1
1
1
1
1
1
1
1
1
1
1
1
1
1
1
1
1
1
1
1
1
1
1
1
1
1
1
1
1
1
1
1
1
1
1
1
1
1
1
1
1
1
1
1
1
1
1
1
1
1
1
1
1
1
1
1
1
1
1
1
1
1
1
1
1
1
1
1
1
1
1
1
1
1
1
1
1
1
1
1
1
1
1
1
1
1
1
1
1
1
1
1
1
1
1
1
1
1
1
1
1
1
1
1
1
1
1
1
1
1
1
1
1
1
1
1
1
1
1
1
1
1
1
1
1
1
1
1
1
1
1
1
1
1
1
1
1
1
1
1
1
1
1
1
1
1
1
1
1
1
1
1
1
1
1
1
1
1
1
1
1
1
1
1
1
0.458883
0.473347
0.452403
0.45649
0.541637
0.466527
0.468389
0.455356
0.448568
0.454875
0.453384
0.452754
0.445338
0.43342
0.457989
0.467849
0.472459
0.459976
0.450433
0.469927
0.45741
0.423925
0.436007
0.431025
0.439027
0.454312
0.439441
0.526476
0.451609
0.435516
0.452898
0.472153
0.479196
0.485636
0.484569
0.522418
0.468564
0.469812
0.45104
0.455598
0.455834
0.434826
0.425807
0.429017
0.431041
0.439873
0.426078
0.448611
0.567268
0.47712
0.464412
0.470489
0.514586
0.449129
0.470668
0.501787
0.46528
0.480145
0.474701
0.456334
0.448822
0.450194
0.451291
0.441049
0.425491
0.440758
0.418312
0.421634
0.462435
0.427444
0.450134
0.442885
0.431704
0.455599
0.4524
0.443563
0.456176
0.43862
0.443472
0.447866
0.446542
0.438439
0.433435
0.440759
0.430738
0.428206
0.42682
0.429464
0.473922
0.463081
0.437584
0.480603
0.440218
0.457083
0.493526
0.450854
0.861328
0.959274
0.975615
0.908658
0.909895
1
0.981168
0.97421
0.965059
0.954037
1
0.996171
0.974717
0.926937
0.97926
0.887305
0.980592
0.851105
0.880194
0.840477
0.95867
0.977183
0.98932
0.988165
0.886503
0.850554
0.875635
0.990064
0.978682
0.989797
0.989989
0.873808
0.971547
0.924083
0.987223
0.920597
0.988288
0.991515
0.98225
0.869445
0.919465
0.974663
0.966168
0.97708
0.948608
0.933015
1
0.98326
0.976395
0.944942
0.864152
0.975298
0.974116
0.988365
0.915088
0.977558
0.890185
0.88304
0.866096
0.987
0.985907
0.967089
0.985971
0.835347
0.876218
0.866088
0.986049
0.976699
0.980167
0.974316
0.982712
0.857891
0.944208
0.892084
0.950603
0.95542
0.9894
0.993851
0.936519
0.967639
0.988306
0.993166
0.996926
0.979389
0.956855
0.974203
1
0.981664
0.974298
0.99685
0.976867
0.979936
0.99574
0.982323
0.997828
0.984068
0.983816
0.965711
0.98386
0.988362
0.980069
0.982341
0.989565
0.999316
0.966547
0.985024
0.987182
1
0.979429
0.99979
0.992047
0.991429
0.964185
0.999277
0.990527
0.984038
0.983126
0.986413
0.996141
0.988544
0.989301
0.986858
0.987706
0.978323
0.968359
0.974394
0.964418
0.988041
0.988801
0.991454
0.995547
0.994679
0.990809
0.969121
0.976464
0.966712
0.979246
0.98619
0.976561
0.985422
0.99997
0.97714
0.993329
0.988809
0.999088
0.98285
0.990143
0.980599
0.98721
0.983249
0.995506
0.98018
0.978021
0.988382
0.972146
0.965213
0.953383
0.992606
0.996893
0.966925
0.993393
0.990557
0.992313
1
0.997215
0.994497
0.996852
0.988779
0.9661
0.965679
0.996827
0.986362
0.992992
0.996817
0.988397
0.986949
0.991822
0.989345
0.996817
0.995387
0.984381
0.984665
0.984708
0.971363
0.967365
0.986777
0.988493
0.999968
0.970478
0.982878
0.985547
1
0.985368
0.999067
0.993914
0.993099
0.977592
0.999869
0.988019
0.972689
0.98682
0.983907
0.996827
0.993321
0.98612
0.989572
0.989751
0.951096
0.98007
0.979508
0.954692
0.962285
0.991072
0.985778
0.998573
0.991255
0.985688
0.950865
0.975063
0.965548
0.966929
0.985658
0.991777
0.985467
0.999098
0.980904
0.990659
0.992646
0.998073
0.980379
0.986449
0.981886
0.985665
0.975652
0.994503
0.984452
0.991888
0.984444
0.968498
0.966085
0.950388
0.993061
0.990495
0.978721
0.991896
0.993643
0.993467
0.993664
0.997922
0.994204
0.990465
0.991548
0.986073
0.975751
0.996813
0.988522
0.986127
0.996812
0.984837
0.97679
0.990627
0.99018
0.998461
0.994793
0.991408
0.987599
0.984938
0.981697
0.973607
0.989419
0.985731
0.999352
0.971726
0.987997
0.991456
0.9949
0.982813
0.998129
0.986642
0.991765
0.9874
0.984764
0.987508
0.981973
0.980353
0.98624
0.997472
0.983193
0.985416
1
0.986078
0.959321
0.951551
0.985347
0.958701
0.965429
0.991956
0.984686
0.994723
0.994278
0.98924
0.955441
0.976103
0.959427
0.974419
0.984606
0.989685
0.982495
0.999048
0.966563
0.994682
0.989875
1
0.970926
0.989804
0.990764
0.994442
0.977229
0.997928
0.986698
0.99717
0.987892
0.977517
0.942806
0.957886
0.986097
0.986616
0.98076
0.997795
0.994623
0.997832
0.996819
0.995743
0.996009
0.997805
0.995797
0.971983
0.983829
0.996811
0.987231
0.987193
1
0.989473
0.983828
0.996486
0.982844
0.996812
0.994545
0.984812
0.983812
0.968165
0.981821
0.974714
0.990685
0.985136
0.99652
0.974349
0.991402
0.990883
0.99541
0.983164
0.994173
0.992541
0.994058
0.986832
0.996505
0.990012
0.981496
0.986557
0.988739
0.994832
0.988615
0.989744
0.99934
0.993579
0.973159
0.971814
0.982875
0.975804
0.94619
0.993457
0.978356
0.991643
0.992577
0.989235
0.945308
0.987515
0.973109
0.946256
0.988777
0.989607
0.988071
1
0.975758
0.989104
0.993204
1
0.985037
0.990161
0.986462
0.994543
0.988053
0.998619
0.978948
0.991079
0.987275
0.970972
0.955014
0.948994
0.995138
0.997586
0.976497
0.994138
0.997915
0.994611
0.994294
0.997372
0.994142
0.998903
0.985905
0.968005
0.963473
1
0.990943
0.99794
1
0.986955
0.998243
0.992635
0.992442
0.99989
0.998151
0.993412
0.98108
0.982141
0.988436
0.977429
0.988913
0.993414
0.99987
0.96376
0.988762
0.982744
0.999935
0.975803
0.994818
0.992842
0.991302
0.985744
0.999798
0.99063
0.975013
0.979753
0.991678
0.997471
0.993064
0.983858
1
0.987035
0.955173
0.979148
0.807113
0.986103
0.993667
0.981399
0.991726
0.436975
0.498888
0.397623
0.994825
0.943212
0.992124
0.902854
0.992364
0.991906
1
0.993788
0.991906
0.810728
0.990519
0.937166
0.952694
0.986473
0.98907
0.997656
0.392218
0.637297
0.40663
0.98612
0.905008
0.995744
0.941002
0.979211
0.990163
1
0.985768
0.98895
0.992962
0.998152
0.985824
0.995458
0.982825
0.990174
0.981302
0.999046
0.989812
0.991093
0.973788
0.977152
0.964387
0.956059
0.987735
1
0.975992
0.988396
0.996817
0.994566
0.99989
0.992085
0.998331
1
0.978982
0.964657
0.978529
1
0.988774
0.991762
0.993733
0.987651
0.976649
0.992635
0.99051
1
0.99503
0.986952
0.99004
0.986087
0.984465
0.980563
0.981209
0.991684
0.999055
0.951604
0.98034
0.989717
0.989999
0.979714
0.999056
0.993286
0.988968
0.992672
0.999663
0.99197
0.983283
1
0.987399
1
1
1
1
1
0.988116
0.993622
0.984006
0.978129
0.996701
0.969434
0.996621
0.989648
0.994913
0.988377
0.995447
0.988002
0.994152
1
1
1
1
1
1
1
0.996364
0.990047
0.997031
0.996727
0.990782
0.987096
0.988346
0.995692
0.962294
0.985865
0.978951
0.996732
1
1
1
1
1
1
1
0.990442
0.980047
0.99769
0.980986
0.997033
0.991127
0.997194
0.982054
0.987525
0.990022
0.990056
0.974144
0.998981
0.992354
0.989412
0.98502
1
0.972298
1
1
1
1
0.981388
0.975301
0.991541
1
0.974522
0.997311
0.996817
0.9948
0.999451
0.997403
0.995733
0.999671
0.993226
0.979784
0.963124
0.993513
0.992684
0.971349
1
0.984593
0.977709
0.992273
0.994774
1
0.996243
0.991017
0.982545
0.982252
0.977707
0.982583
0.981419
0.992698
0.987523
0.972553
0.989421
0.990075
0.989706
0.989823
0.998114
0.995039
0.995338
0.987745
0.999798
0.992771
0.99296
0.999951
0.983028
1
1
1
1
1
0.980335
0.993732
0.965981
0.986916
0.993732
0.980916
0.997878
0.987599
0.993397
0.990047
0.998982
0.986492
0.988954
1
1
1
1
1
1
1
0.994636
0.984043
1
0.989757
0.976878
0.981191
0.987863
0.994066
0.968364
0.982994
0.990068
0.998236
1
1
1
1
1
1
1
0.989117
0.978373
1
0.974573
0.981773
0.994767
0.999043
0.976992
0.987465
0.994554
0.981692
0.988488
0.988994
0.99295
0.98678
0.994254
1
0.97869
1
1
1
1
0.967745
0.9562
0.994078
1
0.977077
0.992719
0.996817
0.99488
1
0.99701
0.997052
1
0.992382
0.964797
0.981598
0.990434
0.983665
0.983494
1
0.987149
0.985068
0.993727
0.986288
1
0.987878
0.979818
0.976096
0.973846
0.982166
0.973807
0.984596
0.991595
0.990521
0.982245
0.988793
0.993265
0.993845
0.976792
1
0.987011
0.988154
0.988803
0.996831
0.98835
0.989757
0.984563
0.980955
0.99989
0.991548
0.984594
1
0.991912
0.996522
0.978304
0.985335
0.988307
1
0.98242
0.988669
1
1
1
1
1
1
1
0.980545
0.978931
0.996701
0.987364
0.978119
0.980994
0.989803
0.998593
0.969575
0.969737
0.989954
1
1
1
1
1
1
1
1
0.979768
0.976141
0.998119
0.975023
0.986557
0.980332
0.99802
0.985374
0.988979
0.990847
0.987506
0.98528
0.995546
0.991455
0.98717
0.982872
0.985645
0.949833
0.939618
0.993564
1
0.9631
0.993656
0.993635
0.996275
1
1
0.997362
1
0.993065
0.9954
0.98599
0.996811
0.992143
0.990793
0.992963
0.989086
0.995791
0.99191
0.982494
1
0.993184
0.992063
0.969727
0.988564
0.981679
0.993661
0.992809
0.99395
0.995897
0.985383
0.987567
0.994547
0.994107
0.992034
0.997144
0.990502
0.998286
0.985788
0.999074
0.991533
0.987766
0.996
0.985407
1
0.99473
0.987614
1
0.998728
0.976479
0.983672
0.988899
0.978784
0.978633
0.99191
0.996243
0.990433
0.991668
0.990667
0.961135
0.990779
0.971978
0.937061
0.991913
0.986885
0.975723
0.996568
0.989537
0.990978
0.993896
0.985023
0.991844
0.993794
0.995046
0.994451
0.981112
0.993606
0.992719
0.988373
0.975095
0.976795
0.932974
0.931576
0.991178
0.993634
0.966509
0.990938
1
0.997712
1
0.997494
0.998876
0.999561
0.992366
0.990312
0.987942
0.994392
0.989629
0.995639
0.992523
0.990984
0.995609
0.995608
0.984981
1
0.996184
0.994504
0.980201
0.987034
0.986347
0.994706
0.982145
0.995441
0.983985
0.984991
0.977353
0.994875
0.979529
0.985509
0.997889
0.992677
0.993302
0.972481
1
0.995617
0.985854
0.975926
0.994465
1
0.999637
0.993807
1
0.996123
0.978271
0.980704
0.990662
0.984633
0.969671
0.99491
0.992216
0.993622
0.992335
0.99272
0.905241
0.989577
0.961677
0.933912
0.987267
0.984514
0.989885
0.988949
0.985207
0.991978
0.997384
0.996702
0.986782
0.988769
0.993471
0.988019
0.974529
0.996062
0.989729
0.986078
0.986897
0.979467
0.945428
0.950886
0.991814
0.996817
0.973402
0.991815
0.994073
0.997753
0.996818
0.997403
0.99663
1
0.99097
0.989197
0.992403
0.997911
0.988894
0.997911
0.993623
0.991178
0.994338
0.994851
0.991872
1
0.998486
0.995471
0.988289
0.997978
0.989552
0.996378
0.989127
0.994756
0.976309
0.98236
0.98688
0.993654
0.985812
0.991237
0.999209
0.992593
0.991589
0.99455
0.999045
0.99498
0.983303
0.972731
0.989744
1
0.996729
0.996091
0.997471
0.997365
0.978194
0.96051
0.989112
0.982394
0.981517
0.998122
0.993069
1
0.997243
0.995005
0.938902
0.974621
0.94457
0.944497
0.976509
0.987793
0.984654
0.99812
0.977389
0.991978
0.992934
0.998087
0.985826
0.988588
0.994422
0.990334
0.985934
0.997997
0.989358
0.987658
0.981524
0.97404
0.958373
0.976493
0.993597
0.993195
0.976693
0.99553
0.996817
0.997754
0.996817
1
0.995468
1
0.987469
0.993937
0.990313
0.996811
0.989707
0.994005
1
0.993306
0.997366
0.996699
0.99311
1
0.998213
0.998877
0.996723
0.995956
0.9899
0.987462
0.994099
0.993565
0.994696
0.984936
0.994938
0.995323
0.993395
0.986177
1
0.992982
0.99303
0.987019
0.999044
0.989471
0.982164
0.982721
0.998645
0.99934
0.999122
0.997252
1
0.999122
0.981694
0.984156
0.985269
0.980845
0.958191
0.992093
0.997948
1
0.998425
0.995663
0.94955
0.979716
0.951053
0.931744
0.983585
0.989955
0.991141
0.998714
0.986951
0.988043
0.992123
0.99967
0.989932
0.989345
0.989447
0.983613
0.989941
0.997997
0.989262
0.989724
0.98621
0.975636
0.966209
0.965299
0.993567
0.996817
0.981997
0.996678
0.996817
0.998838
0.998134
0.997403
0.991053
0.996817
0.987398
0.984807
0.989964
1
0.993964
0.996609
1
0.991023
0.995791
0.997123
0.996787
1
0.999122
0.996787
0.997978
0.997978
0.994985
0.98795
0.993111
0.992641
0.991052
0.981912
0.991344
0.993356
0.9959
0.986681
0.999407
0.988261
0.995073
0.98803
0.998715
0.98823
0.992514
0.986078
0.995085
1
0.997698
0.998297
1
0.997971
0.98496
0.977446
0.993061
0.98493
0.977776
0.997667
0.996631
1
0.997576
0.995586
0.911855
0.982539
0.936025
0.935595
0.975917
0.992467
0.997489
0.992251
0.982227
0.99101
0.993987
0.987964
0.988245
0.989648
0.99213
0.985406
0.97728
0.998164
0.990146
0.992186
0.977337
0.966743
0.956974
0.948229
0.992903
1
0.986488
0.994654
1
0.999264
1
0.998249
0.994771
1
0.985928
0.98871
0.99094
1
0.992919
0.994913
1
0.990868
0.993066
0.999122
0.995084
1
0.996456
0.99222
0.997281
0.998606
0.994428
0.98586
0.985143
0.993118
0.996909
0.983032
0.99386
0.995829
0.997039
0.989941
0.999044
0.988957
0.994833
0.985951
0.9971
0.991014
0.992165
0.990346
0.993459
1
0.997941
0.996633
1
0.997365
0.984234
0.984488
0.988797
0.983568
0.987238
0.998546
0.999264
1
1
0.998103
0.920101
0.983274
0.930011
0.918892
0.987301
0.988351
0.988142
0.989844
0.985377
0.988528
0.994919
0.99512
0.991563
0.985077
0.994631
0.986136
0.987058
1
0.992313
0.986652
0.987171
0.971575
0.974464
0.983209
0.994141
0.990451
0.973867
0.996164
1
0.998877
1
0.998249
0.995933
1
0.980817
0.983343
0.991707
1
0.989204
0.994943
0.996811
0.988314
0.997184
0.997335
0.9928
1
0.997971
0.991716
0.997978
0.994632
0.995055
0.990597
0.993051
0.997944
0.998178
0.976872
0.989097
0.992641
0.995184
0.994717
0.995222
0.992012
0.992459
0.992301
0.995749
0.992345
0.990696
0.98286
0.995975
1
0.996093
0.997755
1
0.993368
0.988168
0.981958
0.988176
0.986927
0.980857
0.999121
0.995895
1
0.997334
0.99605
0.915265
0.983352
0.919701
0.911968
0.985133
0.999233
0.995675
0.995614
0.98397
0.995671
0.992243
0.997428
0.98982
0.991494
0.99097
0.983004
0.986775
1
0.994539
0.987777
0.973438
0.988798
0.971666
0.9823
0.993476
0.996817
0.987185
0.993537
1
0.996243
1
0.998792
0.99818
1
0.980117
0.986062
0.977906
0.996811
0.991023
0.992097
0.996812
0.992803
0.989069
0.993579
0.995897
1
0.995851
0.996246
0.994631
0.991148
0.990946
0.988925
0.989608
0.994519
0.996324
0.972447
0.98577
0.99425
0.998568
0.989546
0.994563
0.993222
0.996395
0.990055
0.996144
0.991832
0.984887
0.994055
0.994079
1
0.995246
0.996633
1
0.992973
0.984172
0.986027
0.993062
0.981754
0.978438
0.997213
0.992643
1
0.999061
0.996553
0.918888
0.987608
0.922399
0.884499
0.983548
0.997977
0.993513
0.995549
0.993532
0.988438
0.996512
0.994261
0.988021
0.990495
0.996766
0.990543
0.984342
0.998063
0.994631
0.989755
0.980449
0.98215
0.983208
0.974326
0.996859
0.99045
0.986566
0.99251
1
0.993686
1
0.996618
0.992642
1
0.98523
0.963762
0.983133
0.996812
0.991566
0.992825
1
0.991486
0.996729
0.998819
0.995704
0.996811
0.996728
0.991909
0.993377
0.993934
0.983493
0.975759
0.987511
0.994877
0.995576
0.980623
0.985861
0.992551
0.999252
0.985443
0.993081
0.99879
0.997116
0.990617
0.99242
0.994101
0.997831
0.996922
0.995472
1
0.99564
0.997058
0.99989
0.997577
0.984596
0.968094
0.997287
0.977669
0.968318
0.998061
0.991365
1
0.996758
0.993146
0.871297
0.985675
0.892985
0.864279
0.989198
0.997977
0.998675
0.997758
0.989483
0.995127
0.993655
0.99746
0.979188
0.995641
0.994174
0.987931
0.973386
0.999499
0.997285
0.994557
0.980894
0.988096
0.985029
0.968866
0.997101
0.993635
0.981723
0.996134
1
0.996011
1
0.996164
0.994538
1
0.985435
0.971222
0.970097
1
0.991528
0.994944
1
0.991486
0.99464
0.996911
0.99435
0.996811
0.997364
0.997793
0.994912
0.997978
0.984956
0.985651
0.991405
0.990884
0.997105
0.975079
0.992151
0.993833
0.993817
0.98792
0.996475
0.994948
0.995132
0.984206
0.994859
0.99649
0.98643
0.992303
0.994621
0.996922
0.99461
0.983587
0.996811
0.994094
0.986445
0.972171
0.99306
0.968675
0.968751
0.997425
0.994386
0.996921
0.996637
0.996127
0.868799
0.990284
0.888905
0.883044
0.989002
0.993234
0.996303
0.99967
0.98307
0.993886
0.994918
1
0.980822
0.996155
0.995669
0.98632
0.989207
0.999967
0.993227
0.994344
0.979481
0.982144
0.979503
0.970475
0.996709
1
0.96666
0.993475
0.996817
0.995237
0.993636
0.997735
0.997133
0.998683
0.985715
0.990034
0.97247
0.996811
0.990908
0.990463
1
0.993035
0.986918
0.998244
0.997794
0.996811
0.999121
0.993806
0.991845
0.988355
0.981961
0.983352
0.99422
0.997081
0.990468
0.982359
0.99329
0.98978
0.988415
0.982526
0.995651
0.996491
0.995974
0.984656
0.994068
0.996702
0.993705
0.990134
0.999536
1
0.985587
0.988969
1
0.987824
0.975039
0.970411
0.991315
0.977119
0.972492
0.995123
0.990591
1
0.99397
0.984548
0.891985
0.982464
0.877415
0.898543
0.984123
0.984306
0.987793
1
0.976888
0.995914
0.994918
0.998978
0.981267
0.991493
0.995303
0.984284
0.979601
0.998063
0.999695
0.986164
0.986547
0.977102
0.964396
0.9753
0.997071
1
0.954428
0.996013
1
0.999884
1
0.999003
0.995894
1
0.980323
0.979932
0.983062
0.996812
0.988046
0.983016
0.996811
0.990015
0.986887
0.99573
0.993265
0.996811
0.993427
0.987962
0.991982
0.98055
0.988578
0.984257
0.992693
0.993983
0.993396
0.979557
0.99311
0.994279
0.992743
0.978029
0.99519
0.995251
0.996695
0.983084
0.994068
0.99186
0.992375
0.987687
0.996827
1
0.995246
0.994465
1
0.99373
0.967986
0.976458
0.987207
0.967104
0.965013
0.990337
0.991753
1
0.993819
0.996244
0.884732
0.980219
0.855704
0.900961
0.988073
0.989257
0.985143
0.995549
0.979753
0.988318
0.992994
0.998417
0.985151
0.994308
0.993473
0.987779
0.979036
0.999032
0.997285
0.98145
0.984116
0.979413
0.973486
0.945637
0.990578
1
0.964111
0.993566
1
0.990744
1
1
0.997947
1
0.97171
0.970243
0.997352
1
0.983481
0.987436
1
0.98661
0.993943
0.985432
0.991484
0.995932
0.988974
0.991174
0.979293
0.989752
0.987952
0.97722
0.993411
0.99017
0.995283
0.993112
0.993649
0.9868
0.995086
0.986626
0.984614
0.99637
0.994802
0.983702
0.985663
0.993887
0.985799
0.989226
0.996672
1
0.999182
0.995278
1
0.994184
0.956276
0.974808
0.981819
0.964198
0.970074
0.990942
0.983659
1
0.992668
0.990513
0.925169
0.976
0.84131
0.900961
0.965613
0.993165
0.993652
0.991428
0.987233
0.988347
0.994106
0.990568
0.987119
0.984228
0.992314
0.975133
0.981466
1
0.989321
0.979565
0.980442
0.974721
0.956902
0.972857
0.994172
0.996817
0.961788
0.99414
0.996817
0.987259
1
0.996164
0.988611
1
0.959736
0.985853
0.9862
1
0.993732
0.996852
1
0.991293
0.995336
0.99685
0.989704
1
0.998576
0.991329
0.994004
0.997978
0.981262
0.984538
0.987033
0.993863
0.995283
0.984767
0.991552
0.998063