/*--------------------------------*- C++ -*----------------------------------*\
| =========                 |                                                 |
| \\      /  F ield         | OpenFOAM: The Open Source CFD Toolbox           |
|  \\    /   O peration     | Version:  5.x                                   |
|   \\  /    A nd           | Web:      www.OpenFOAM.org                      |
|    \\/     M anipulation  |                                                 |
\*---------------------------------------------------------------------------*/
FoamFile
{
    version     2.0;
    format      ascii;
    class       volVectorField;
    location    "4.45";
    object      Us;
}
// * * * * * * * * * * * * * * * * * * * * * * * * * * * * * * * * * * * * * //

dimensions      [0 1 -1 0 0 0 0];

internalField   nonuniform List<vector> 
10571
(
(0.0757944 0.0219176 -0.266198)
(-0.00396831 0.0974737 -0.192228)
(0.161851 0.25805 0.00738318)
(0.152497 0.257511 0.0214576)
(0.0755319 0.118199 -0.0140567)
(0.158684 0.276722 0.0207705)
(0.343801 0.3004 0.1263)
(-7.10076e-14 -1.34227e-13 -3.36855e-14)
(0.115474 0.27176 0.0375869)
(0.055966 0.186914 -0.0618474)
(0.0433452 0.114257 -0.135316)
(0.134551 0.258997 0.059762)
(0.323157 0.362457 0.0823973)
(0.169756 0.276478 0.0267467)
(-0.0992271 0.050175 0.074989)
(-0.0573983 0.227174 -0.00788251)
(0.126168 0.164304 -0.0188836)
(0.161488 0.187069 0.0929977)
(-0.0517059 0.0150938 0.112664)
(-0.0178516 -0.0117558 0.127522)
(-0.0865227 0.110404 -0.0309355)
(0.109977 0.00882262 -0.0320369)
(0.0883004 -0.0610572 -0.0299637)
(0.0160894 -0.0454631 -0.101021)
(-0.0034429 -0.00292938 -0.398219)
(-0.0306162 0.0164582 -0.397957)
(-0.0493946 0.0163867 -0.234027)
(0.11488 0.00624273 -0.0811126)
(0.218452 0.0213234 0.0055957)
(-0.111331 0.0169655 -0.10134)
(0.0530957 0.191452 0.208752)
(0.176628 0.286441 0.265863)
(0.17929 0.209419 0.235917)
(0.042408 0.0892625 -0.0617496)
(-0.030975 0.0302181 -0.243003)
(-0.0414132 0.113124 0.0405661)
(0.130509 0.274874 0.266777)
(0.087967 0.165981 0.231957)
(0.0169494 0.0858411 0.233064)
(-0.00977051 0.200128 -0.00601161)
(0.033434 0.238992 0.105155)
(0.116223 0.0998124 0.24902)
(0.0834614 0.0541044 0.126432)
(0.00468811 -0.0451765 0.145647)
(-0.0620015 0.104098 -0.0101435)
(0.0894895 0.0452939 0.0035894)
(0.0597008 -0.0706684 -0.0420289)
(0.0309073 -0.0279862 -0.0840788)
(-0.137229 -0.0288584 -0.442396)
(0.0206606 -0.0569872 -0.315823)
(-0.0291706 -0.210667 -0.183285)
(-0.0191322 -0.214003 -0.20529)
(0.148034 -0.138713 -0.0177661)
(-0.220997 0.0406746 0.00376889)
(-0.047957 0.0456477 0.140547)
(0.0901868 0.0699038 0.112361)
(0.246152 0.0777541 0.282328)
(0.0873976 0.041893 0.0989606)
(-0.0173002 0.0923012 -0.178489)
(-0.171141 0.0537904 0.0949131)
(0.0414467 0.247298 0.398443)
(0.175552 0.345754 0.427951)
(0.179669 0.253754 0.333124)
(0.00343257 0.0887241 0.0457989)
(-0.13413 0.188379 0.0113468)
(0.0745064 0.331941 0.41328)
(0.0829769 0.131674 0.206565)
(0.0704789 0.092573 0.171391)
(-0.0382521 0.0655548 -0.0100208)
(0.0891303 0.0394282 0.0562823)
(0.0728312 0.0312631 0.0399987)
(0.0149513 0.0123839 -0.0290339)
(0 0 0)
(0.0853246 -0.0945443 -0.300052)
(0.0105186 -0.215937 -0.349575)
(-0.176378 -0.016037 -0.327041)
(-0.0448016 -0.0150015 -0.0495952)
(-0.143495 -0.0924332 0.0106744)
(-0.0676481 -0.0539845 -0.0118221)
(0.0126241 -0.0428819 -0.0380207)
(0.197461 -0.00670534 0.197633)
(0.215413 -0.000980517 0.17015)
(-0.0574611 0.080499 -0.110228)
(-0.256352 0.112524 0.189733)
(-0.0958582 0.121313 0.240177)
(0.0861959 0.160846 0.131837)
(0.188452 0.177358 0.210537)
(0.00945288 0.0260196 0.0675366)
(0.0371909 0.109558 0.0345817)
(-0.00994703 0.235144 0.254251)
(0.088766 0.192786 0.216039)
(0.0712259 0.164951 0.168403)
(0.00749787 0.0344872 0.0384781)
(0.0416364 0.0624727 0.142955)
(0.0478094 0.0268163 0.115564)
(0.00917245 0.0249858 0.1027)
(0 0 0)
(0 0 0)
(0 0 0)
(-0.205823 -0.0174751 -0.199946)
(-0.143541 -0.0556276 -0.0575052)
(-0.0176202 -0.163238 -0.0586077)
(0.00164775 -0.114692 -0.280022)
(-0.038077 -0.0632753 -0.366537)
(0.0207485 -0.0465626 -0.191004)
(0.0583746 0.0546816 -0.143439)
(0.0133269 -0.0111897 -0.191508)
(-0.208603 0.0839767 0.0488402)
(-0.073057 0.0568639 -0.0181247)
(0.0296369 0.0277345 -0.0568862)
(0.121277 0.0965853 0.064193)
(0.0587383 0.0525711 0.155478)
(0.0393752 0.100576 0.14296)
(-0.0146678 0.143093 0.0656383)
(0.0392095 0.120651 0.100884)
(0.0750992 0.135427 0.211094)
(0.00289987 0.0419249 0.151055)
(0.0469253 0.0246342 0.112047)
(0.0628846 0.0526847 0.215662)
(0.0205965 0.049756 0.276524)
(0 0 0)
(0 0 0)
(0 0 0)
(-0.218914 -0.0223474 -0.200202)
(-0.0661866 -0.0108496 -0.149511)
(-0.071681 -0.131422 -0.131736)
(0.0195018 -0.0895601 -0.273428)
(0.0238279 -0.0583292 -0.347695)
(0.0230308 -0.0506174 -0.277711)
(0.00924205 0.0333567 -0.203623)
(-0.00200783 0.000939076 -0.00136151)
(-0.00168056 -0.0198783 -0.132445)
(-0.0249683 -0.0362931 0.0429482)
(-0.0519969 0.0332941 -0.123399)
(0.0472277 -0.0109333 -0.325609)
(0.0316541 0.0465855 -0.256559)
(0.141619 0.089342 -0.0380436)
(-0.00343515 -0.000446718 -0.00223066)
(0.0491178 0.0475897 0.239979)
(-0.0267321 0.100396 0.00964578)
(-0.0140737 0.063295 -0.140873)
(0.0011433 0.0923564 -0.258368)
(-0.0128772 0.057707 0.0166879)
(0.0361645 0.0335886 -0.104618)
(-0.025843 0.0818967 -0.0644966)
(-0.0873911 0.0632155 -0.103496)
(0 0 0)
(0 0 0)
(0 0 0)
(0 0 0)
(0 0 0)
(-0.0874301 -0.131285 -0.112859)
(0.0206697 -0.0865587 -0.232565)
(-0.0156621 -0.127142 -0.328415)
(-0.0638453 0.0778948 -0.387679)
(0 0 0)
(0 0 0)
(-0.0219169 -0.0565082 -0.145944)
(-0.0871316 -0.0579163 0.0359506)
(0.0112401 -0.00705794 -0.270502)
(0.0503391 -0.0229979 -0.290592)
(-0.0484702 -0.0558284 -0.329248)
(0 0 0)
(0.186493 0.0583164 -0.111861)
(0.0601762 -0.00654867 0.302602)
(0.029849 0.0331486 -0.0736797)
(0.037693 0.0248705 -0.160107)
(-0.0509237 -0.0284979 -0.218713)
(-0.010348 -0.0317595 -0.193065)
(0.113646 -0.0287159 -0.0596531)
(0.0192426 0.00563963 -0.0879313)
(-0.0228663 0.0399241 -0.0764523)
(-0.0504892 0.023261 -0.0535854)
(0 0 0)
(0 0 0)
(0 0 0)
(0 0 0)
(-0.0327889 -0.0742716 -0.323441)
(-0.0918529 -0.136319 -0.147225)
(0.0385137 -0.0835116 -0.17817)
(-0.0336602 -0.0354627 -0.381291)
(0 0 0)
(0 0 0)
(0 0 0)
(-0.0183291 -0.0414173 -0.0996102)
(-0.0893945 -0.0552048 0.0221213)
(-0.00173851 -0.0226014 -0.215809)
(-0.0130598 -0.0984999 -0.171039)
(-0.0268534 -0.0753781 -0.248161)
(0 0 0)
(0 0 0)
(-0.0131343 0.0355521 0.209633)
(0.0148805 0.0247824 -0.100731)
(0.047385 0.00332705 -0.0862153)
(0.00663619 -0.034821 -0.115023)
(0.0862549 -0.00170607 -0.241484)
(0 0 0)
(0.00624609 0.0110293 -0.0980042)
(0.0378805 0.0183348 -0.113362)
(0.00328698 -0.0153204 -0.0689271)
(0 0 0)
(0 0 0)
(0 0 0)
(0 0 0)
(0 0 0)
(0 0 0)
(-0.0247514 -0.10907 -0.141716)
(-0.0706732 -0.155301 -0.245633)
(-0.107267 0.0729756 -0.260581)
(0 0 0)
(0 0 0)
(-0.18424 -0.032286 -0.0555748)
(-0.107014 -0.0412081 -0.0389441)
(-0.00149458 -0.1326 -0.166139)
(-0.0062895 -0.127498 -0.166634)
(0.0306315 -0.0500192 -0.185991)
(0 0 0)
(0 0 0)
(-0.0732856 -0.0168649 0.072114)
(-0.00260972 -0.00930302 -0.119804)
(0.0169562 -0.0472466 -0.053724)
(0.015143 -0.0669515 -0.0675998)
(0.0109089 -0.025213 -0.200993)
(-0.00494374 0.0128099 -0.158553)
(0.0349341 -0.0218253 -0.168743)
(-0.000987871 0.00221435 -0.0376392)
(0 0 0)
(0 0 0)
(0 0 0)
(0 0 0)
(0 0 0)
(0 0 0)
(-0.0183943 -0.289463 -0.13678)
(-0.0706732 -0.155301 -0.245633)
(0 0 0)
(0 0 0)
(0 0 0)
(0 0 0)
(-0.0223045 -0.16419 -0.106781)
(-0.0203387 -0.135873 0.0189932)
(0.0201655 -0.0800332 -0.133952)
(-2.11977e-14 3.48182e-14 5.21039e-14)
(-0.111805 -0.0379168 0.0688783)
(-0.0497888 -0.0863797 -0.180422)
(0.00870916 -0.0719859 -0.0643663)
(-0.00266683 -0.0665323 -0.0726694)
(0.0490058 -0.0291164 -0.148464)
(-0.0974713 -0.00826273 -0.26945)
(-0.00299827 -0.00844664 -0.220461)
(0.0319671 -0.0358169 -0.0695612)
(0 0 0)
(0 0 0)
(0 0 0)
(0 0 0)
(0 0 0)
(0 0 0)
(-0.094276 -0.148449 -0.13941)
(-0.0769996 -0.149902 -0.15038)
(0 0 0)
(0 0 0)
(0 0 0)
(-0.0725557 -0.219745 -0.0325306)
(-0.0639367 -0.129303 -0.094834)
(-0.0512706 -0.142006 -0.0539354)
(-0.00508718 -0.11133 -0.0455234)
(0 0 0)
(0 0 0)
(-0.0696394 -0.0414244 -0.109388)
(-0.0107633 -0.0616067 -0.0341976)
(-0.00812869 -0.0826524 0.0420667)
(0.0431388 -0.048992 -0.182632)
(-0.0656675 0.0228207 -0.26654)
(-0.0413253 -0.0155197 -0.240163)
(0.0556279 -0.0060029 -0.0583221)
(0 0 0)
(0 0 0)
(0 0 0)
(0 0 0)
(0 0 0)
(0 0 0)
(0 0 0)
(0.0217375 -0.198594 -0.0497043)
(0.0217375 -0.198594 -0.0497043)
(0 0 0)
(0 0 0)
(0 0 0)
(-0.0792858 -0.129125 -0.0186609)
(-0.0266007 -0.127538 0.00285167)
(0.0495193 -0.130085 -0.00220813)
(0 0 0)
(0 0 0)
(-0.0921066 -0.0364325 -0.0437022)
(-0.018522 -0.0395334 0.0030008)
(0.0541873 -0.0975589 0.134761)
(0.0686988 -0.00197715 -0.169305)
(-0.041626 0.0563292 -0.0946259)
(-0.0548894 0.0183151 -0.209501)
(0.0268943 -0.00280443 -0.0283936)
(0 0 0)
(0 0 0)
(0 0 0)
(0 0 0)
(0 0 0)
(0 0 0)
(0 0 0)
(0 0 0)
(0.0489537 -0.223892 -0.0177466)
(0 0 0)
(0 0 0)
(0 0 0)
(-0.0924577 -0.111305 -0.0153968)
(-0.0305692 -0.136421 0.0251366)
(0.0382428 -0.107388 0.0109748)
(0 0 0)
(0 0 0)
(-0.0984469 -0.0447147 0.0362396)
(-0.0418451 -0.0509578 0.038283)
(-0.00900756 -0.109687 0.107566)
(-0.00360024 -0.0544684 -0.0667298)
(0 0 0)
(-0.0763632 -0.0225568 -0.157473)
(0.0186877 -0.01816 -0.00314267)
(0 0 0)
(0 0 0)
(0 0 0)
(0 0 0)
(0 0 0)
(0 0 0)
(0 0 0)
(-0.0532796 -0.217067 0.0531133)
(0 0 0)
(0 0 0)
(0 0 0)
(0 0 0)
(-0.114514 -0.088789 0.0341242)
(-0.0662259 -0.125881 0.108165)
(0.0265991 -0.130594 0.0856741)
(0 0 0)
(0 0 0)
(-0.0763369 -0.036126 0.0531561)
(-0.0471795 -0.0658392 0.0368538)
(-0.00876703 -0.0931637 0.0490824)
(0 0 0)
(0 0 0)
(-0.0843079 -0.00867659 -0.202638)
(-0.012178 0.0364545 0.0858485)
(0 0 0)
(0 0 0)
(0 0 0)
(0 0 0)
(0 0 0)
(0 0 0)
(0 0 0)
(0 0 0)
(0 0 0)
(0 0 0)
(0 0 0)
(0 0 0)
(-0.114223 -0.0990776 0.0888361)
(-0.0471114 -0.120738 0.116826)
(0.0439601 -0.139283 0.220879)
(0 0 0)
(0 0 0)
(-0.10714 -0.0698834 0.0942818)
(-0.0675533 -0.069071 0.11731)
(0.00110035 -0.0833059 0.154525)
(0.0221406 -0.0751328 0.0339913)
(0 0 0)
(0 0 0)
(0 0 0)
(0 0 0)
(0 0 0)
(0 0 0)
(0 0 0)
(0 0 0)
(0 0 0)
(0 0 0)
(0 0 0)
(0 0 0)
(0 0 0)
(0 0 0)
(0 0 0)
(0 0 0)
(-0.0888318 -0.0939486 0.147756)
(0.0317564 -0.104115 0.14276)
(0 0 0)
(0 0 0)
(0 0 0)
(-0.0752196 -0.0488202 0.130745)
(0 0 0)
(0.100825 -0.0791904 0.165526)
(0 0 0)
(0 0 0)
(-0.0674336 0.0168221 -0.0491638)
(0 0 0)
(0 0 0)
(0 0 0)
(0 0 0)
(0 0 0)
(0 0 0)
(0 0 0)
(0 0 0)
(0 0 0)
(0 0 0)
(0 0 0)
(0 0 0)
(0 0 0)
(0 0 0)
(0 0 0)
(0 0 0)
(0 0 0)
(0 0 0)
(-0.0619412 -0.039146 0.14274)
(1.13936e-14 1.78267e-14 -8.83107e-14)
(0 0 0)
(0 0 0)
(-0.102726 0.0218042 0.136877)
(-0.0323792 0.000553761 0.0437424)
(0 0 0)
(0 0 0)
(0 0 0)
(0 0 0)
(0 0 0)
(0 0 0)
(0 0 0)
(0 0 0)
(0 0 0)
(0 0 0)
(0 0 0)
(0 0 0)
(0 0 0)
(0 0 0)
(0 0 0)
(0 0 0)
(0 0 0)
(0 0 0)
(0 0 0)
(0 0 0)
(0 0 0)
(0 0 0)
(0 0 0)
(0 0 0)
(0 0 0)
(0 0 0)
(0 0 0)
(0 0 0)
(0 0 0)
(0 0 0)
(0 0 0)
(0 0 0)
(0 0 0)
(0 0 0)
(0 0 0)
(0 0 0)
(0 0 0)
(0 0 0)
(0 0 0)
(0 0 0)
(0 0 0)
(0 0 0)
(0 0 0)
(0 0 0)
(0 0 0)
(0 0 0)
(0 0 0)
(0 0 0)
(0 0 0)
(0 0 0)
(0 0 0)
(0 0 0)
(0 0 0)
(0 0 0)
(0 0 0)
(0 0 0)
(0 0 0)
(0 0 0)
(0 0 0)
(0 0 0)
(0 0 0)
(0 0 0)
(0 0 0)
(0 0 0)
(0 0 0)
(0 0 0)
(0 0 0)
(0 0 0)
(0 0 0)
(0 0 0)
(0 0 0)
(0 0 0)
(0 0 0)
(0 0 0)
(0 0 0)
(0 0 0)
(0 0 0)
(0 0 0)
(0 0 0)
(0 0 0)
(0 0 0)
(0 0 0)
(0 0 0)
(0 0 0)
(0 0 0)
(0 0 0)
(0 0 0)
(0 0 0)
(0 0 0)
(0 0 0)
(0 0 0)
(0 0 0)
(0 0 0)
(0 0 0)
(0 0 0)
(0 0 0)
(0 0 0)
(0 0 0)
(0 0 0)
(0 0 0)
(0 0 0)
(0 0 0)
(0 0 0)
(0 0 0)
(0 0 0)
(0 0 0)
(0 0 0)
(0 0 0)
(0 0 0)
(0 0 0)
(0 0 0)
(0 0 0)
(0 0 0)
(0 0 0)
(0 0 0)
(0 0 0)
(0 0 0)
(0 0 0)
(0 0 0)
(0 0 0)
(0 0 0)
(0 0 0)
(0 0 0)
(0 0 0)
(0 0 0)
(0 0 0)
(0 0 0)
(0 0 0)
(0 0 0)
(0 0 0)
(0 0 0)
(0 0 0)
(0 0 0)
(0 0 0)
(0 0 0)
(0 0 0)
(0 0 0)
(0 0 0)
(0 0 0)
(0 0 0)
(0 0 0)
(0 0 0)
(0 0 0)
(0 0 0)
(0 0 0)
(0 0 0)
(0 0 0)
(0 0 0)
(0 0 0)
(0 0 0)
(0 0 0)
(0 0 0)
(0 0 0)
(0 0 0)
(0 0 0)
(0 0 0)
(0 0 0)
(0 0 0)
(0 0 0)
(0 0 0)
(0 0 0)
(0 0 0)
(0 0 0)
(0 0 0)
(0 0 0)
(0 0 0)
(0 0 0)
(0 0 0)
(0 0 0)
(0 0 0)
(0 0 0)
(0 0 0)
(0 0 0)
(0 0 0)
(0 0 0)
(0 0 0)
(0 0 0)
(0 0 0)
(0 0 0)
(0 0 0)
(0 0 0)
(0 0 0)
(0 0 0)
(0 0 0)
(0 0 0)
(0 0 0)
(0 0 0)
(0 0 0)
(0 0 0)
(0 0 0)
(0 0 0)
(0 0 0)
(0 0 0)
(0 0 0)
(0 0 0)
(0 0 0)
(0 0 0)
(0 0 0)
(0 0 0)
(0 0 0)
(0 0 0)
(0 0 0)
(0 0 0)
(0 0 0)
(0 0 0)
(0 0 0)
(0 0 0)
(0 0 0)
(0 0 0)
(0 0 0)
(0 0 0)
(0 0 0)
(0 0 0)
(0 0 0)
(0 0 0)
(0 0 0)
(0 0 0)
(0 0 0)
(0 0 0)
(0 0 0)
(0 0 0)
(0 0 0)
(0 0 0)
(0 0 0)
(0 0 0)
(0 0 0)
(0 0 0)
(0 0 0)
(0 0 0)
(0 0 0)
(0 0 0)
(0 0 0)
(0 0 0)
(0 0 0)
(0 0 0)
(0 0 0)
(0 0 0)
(0 0 0)
(0 0 0)
(0 0 0)
(0 0 0)
(0 0 0)
(0 0 0)
(0 0 0)
(0 0 0)
(0 0 0)
(0 0 0)
(0 0 0)
(0 0 0)
(0 0 0)
(0 0 0)
(0 0 0)
(0 0 0)
(0 0 0)
(0 0 0)
(0 0 0)
(0 0 0)
(0 0 0)
(0 0 0)
(0 0 0)
(0 0 0)
(0 0 0)
(0 0 0)
(0 0 0)
(0 0 0)
(0 0 0)
(0 0 0)
(0 0 0)
(0 0 0)
(0 0 0)
(0 0 0)
(0 0 0)
(0 0 0)
(0 0 0)
(0 0 0)
(0 0 0)
(0 0 0)
(0 0 0)
(0 0 0)
(0 0 0)
(0 0 0)
(0 0 0)
(0 0 0)
(0 0 0)
(0 0 0)
(0 0 0)
(0 0 0)
(0 0 0)
(0 0 0)
(0 0 0)
(0 0 0)
(0 0 0)
(0 0 0)
(0 0 0)
(0 0 0)
(0 0 0)
(0 0 0)
(0 0 0)
(0 0 0)
(0 0 0)
(0 0 0)
(0 0 0)
(0 0 0)
(0 0 0)
(0 0 0)
(0 0 0)
(0 0 0)
(0 0 0)
(0 0 0)
(0 0 0)
(0 0 0)
(0 0 0)
(0 0 0)
(0 0 0)
(0 0 0)
(0 0 0)
(0 0 0)
(0 0 0)
(0 0 0)
(0 0 0)
(0 0 0)
(0 0 0)
(0 0 0)
(0 0 0)
(0 0 0)
(0 0 0)
(0 0 0)
(0 0 0)
(0 0 0)
(0 0 0)
(0 0 0)
(0 0 0)
(0 0 0)
(0 0 0)
(0 0 0)
(0 0 0)
(0 0 0)
(0 0 0)
(0 0 0)
(0 0 0)
(0 0 0)
(0 0 0)
(0 0 0)
(0 0 0)
(0 0 0)
(0 0 0)
(0 0 0)
(0 0 0)
(0 0 0)
(0 0 0)
(0 0 0)
(0 0 0)
(0 0 0)
(0 0 0)
(0 0 0)
(0 0 0)
(0 0 0)
(0 0 0)
(0 0 0)
(0 0 0)
(0 0 0)
(0 0 0)
(0 0 0)
(0 0 0)
(0 0 0)
(0 0 0)
(0 0 0)
(0 0 0)
(0 0 0)
(0 0 0)
(0 0 0)
(0 0 0)
(0 0 0)
(0 0 0)
(0 0 0)
(0 0 0)
(0 0 0)
(0 0 0)
(0 0 0)
(0 0 0)
(0 0 0)
(0 0 0)
(0 0 0)
(0 0 0)
(0 0 0)
(0 0 0)
(0 0 0)
(0 0 0)
(0 0 0)
(0 0 0)
(0 0 0)
(0 0 0)
(0 0 0)
(0 0 0)
(0 0 0)
(0 0 0)
(0 0 0)
(0 0 0)
(0 0 0)
(0 0 0)
(0 0 0)
(0 0 0)
(0 0 0)
(0 0 0)
(0 0 0)
(0 0 0)
(0 0 0)
(0 0 0)
(0 0 0)
(0 0 0)
(0 0 0)
(0 0 0)
(0 0 0)
(0 0 0)
(0 0 0)
(0 0 0)
(0 0 0)
(0 0 0)
(0 0 0)
(0 0 0)
(0 0 0)
(0 0 0)
(0 0 0)
(0 0 0)
(0 0 0)
(0 0 0)
(0 0 0)
(0 0 0)
(0 0 0)
(0 0 0)
(0 0 0)
(0 0 0)
(0 0 0)
(0 0 0)
(0 0 0)
(0 0 0)
(0 0 0)
(0 0 0)
(0 0 0)
(0 0 0)
(0 0 0)
(0 0 0)
(0 0 0)
(0 0 0)
(0 0 0)
(0 0 0)
(0 0 0)
(0 0 0)
(0 0 0)
(0 0 0)
(0 0 0)
(0 0 0)
(0 0 0)
(0 0 0)
(0 0 0)
(0 0 0)
(0 0 0)
(0 0 0)
(0 0 0)
(0 0 0)
(0 0 0)
(0 0 0)
(0 0 0)
(0 0 0)
(0 0 0)
(0 0 0)
(0 0 0)
(0 0 0)
(0 0 0)
(0 0 0)
(0 0 0)
(0 0 0)
(0 0 0)
(0 0 0)
(0 0 0)
(0 0 0)
(0 0 0)
(0 0 0)
(0 0 0)
(0 0 0)
(0 0 0)
(0 0 0)
(0 0 0)
(0 0 0)
(0 0 0)
(0 0 0)
(0 0 0)
(0 0 0)
(0 0 0)
(0 0 0)
(0 0 0)
(0 0 0)
(0 0 0)
(0 0 0)
(0 0 0)
(0 0 0)
(0 0 0)
(0 0 0)
(0 0 0)
(0 0 0)
(0 0 0)
(0 0 0)
(0 0 0)
(0 0 0)
(0 0 0)
(0 0 0)
(0 0 0)
(0 0 0)
(0 0 0)
(0 0 0)
(0 0 0)
(0 0 0)
(0 0 0)
(0 0 0)
(0 0 0)
(0 0 0)
(0 0 0)
(0 0 0)
(0 0 0)
(0 0 0)
(0 0 0)
(0 0 0)
(0 0 0)
(0 0 0)
(0 0 0)
(0 0 0)
(0 0 0)
(0 0 0)
(0 0 0)
(0 0 0)
(0 0 0)
(0 0 0)
(0 0 0)
(0 0 0)
(0 0 0)
(0 0 0)
(0 0 0)
(0 0 0)
(0 0 0)
(0 0 0)
(0 0 0)
(0 0 0)
(0 0 0)
(0 0 0)
(0 0 0)
(0 0 0)
(0 0 0)
(0 0 0)
(0 0 0)
(0 0 0)
(0 0 0)
(0 0 0)
(0 0 0)
(0 0 0)
(0 0 0)
(0 0 0)
(0 0 0)
(0 0 0)
(0 0 0)
(0 0 0)
(0 0 0)
(0 0 0)
(0 0 0)
(0 0 0)
(0 0 0)
(0 0 0)
(0 0 0)
(0 0 0)
(0 0 0)
(0 0 0)
(0 0 0)
(0 0 0)
(0 0 0)
(0 0 0)
(0 0 0)
(0 0 0)
(0 0 0)
(0 0 0)
(0 0 0)
(0 0 0)
(0 0 0)
(0 0 0)
(0 0 0)
(0 0 0)
(0 0 0)
(0 0 0)
(0 0 0)
(0 0 0)
(0 0 0)
(0 0 0)
(0 0 0)
(0 0 0)
(0 0 0)
(0 0 0)
(0 0 0)
(0 0 0)
(0 0 0)
(0 0 0)
(0 0 0)
(0 0 0)
(0 0 0)
(0 0 0)
(0 0 0)
(0 0 0)
(0 0 0)
(0 0 0)
(0 0 0)
(0 0 0)
(0 0 0)
(0 0 0)
(0 0 0)
(0 0 0)
(0 0 0)
(0 0 0)
(0 0 0)
(0 0 0)
(0 0 0)
(0 0 0)
(0 0 0)
(0 0 0)
(0 0 0)
(0 0 0)
(0 0 0)
(0 0 0)
(0 0 0)
(0 0 0)
(0 0 0)
(0 0 0)
(0 0 0)
(0 0 0)
(0 0 0)
(0 0 0)
(0 0 0)
(0 0 0)
(0 0 0)
(0 0 0)
(0 0 0)
(0 0 0)
(0 0 0)
(0 0 0)
(0 0 0)
(0 0 0)
(0 0 0)
(0 0 0)
(0 0 0)
(0 0 0)
(0 0 0)
(0 0 0)
(0 0 0)
(0 0 0)
(0 0 0)
(0 0 0)
(0 0 0)
(0 0 0)
(0 0 0)
(0 0 0)
(0 0 0)
(0 0 0)
(0 0 0)
(0 0 0)
(0 0 0)
(0 0 0)
(0 0 0)
(0 0 0)
(0 0 0)
(0 0 0)
(0 0 0)
(0 0 0)
(0 0 0)
(0 0 0)
(0 0 0)
(0 0 0)
(0 0 0)
(0 0 0)
(0 0 0)
(0 0 0)
(0 0 0)
(0 0 0)
(0 0 0)
(0 0 0)
(0 0 0)
(0 0 0)
(0 0 0)
(0 0 0)
(0 0 0)
(0 0 0)
(0 0 0)
(0 0 0)
(0 0 0)
(0 0 0)
(0 0 0)
(0 0 0)
(0 0 0)
(0 0 0)
(0 0 0)
(0 0 0)
(0 0 0)
(0 0 0)
(0 0 0)
(0 0 0)
(0 0 0)
(0 0 0)
(0 0 0)
(0 0 0)
(0 0 0)
(0 0 0)
(0 0 0)
(0 0 0)
(0 0 0)
(0 0 0)
(0 0 0)
(0 0 0)
(0 0 0)
(0 0 0)
(0 0 0)
(0 0 0)
(0 0 0)
(0 0 0)
(0 0 0)
(0 0 0)
(0 0 0)
(0 0 0)
(0 0 0)
(0 0 0)
(0 0 0)
(0 0 0)
(0 0 0)
(0 0 0)
(0 0 0)
(0 0 0)
(0 0 0)
(0 0 0)
(0 0 0)
(0 0 0)
(0 0 0)
(0 0 0)
(0 0 0)
(0 0 0)
(0 0 0)
(0 0 0)
(0 0 0)
(0 0 0)
(0 0 0)
(0 0 0)
(0 0 0)
(0 0 0)
(0 0 0)
(0 0 0)
(0 0 0)
(0 0 0)
(0 0 0)
(0 0 0)
(0 0 0)
(0 0 0)
(0 0 0)
(0 0 0)
(0 0 0)
(0 0 0)
(0 0 0)
(0 0 0)
(0 0 0)
(0 0 0)
(0 0 0)
(0 0 0)
(0 0 0)
(0 0 0)
(0 0 0)
(0 0 0)
(0 0 0)
(0 0 0)
(0 0 0)
(0 0 0)
(0 0 0)
(0 0 0)
(0 0 0)
(0 0 0)
(0 0 0)
(0 0 0)
(0 0 0)
(0 0 0)
(0 0 0)
(0 0 0)
(0 0 0)
(0 0 0)
(0 0 0)
(0 0 0)
(0 0 0)
(0 0 0)
(0 0 0)
(0 0 0)
(0 0 0)
(0 0 0)
(0 0 0)
(0 0 0)
(0 0 0)
(0 0 0)
(0 0 0)
(0 0 0)
(0 0 0)
(0 0 0)
(0 0 0)
(0 0 0)
(0 0 0)
(0 0 0)
(0 0 0)
(0 0 0)
(0 0 0)
(0 0 0)
(0 0 0)
(0 0 0)
(0 0 0)
(0 0 0)
(0 0 0)
(0 0 0)
(0 0 0)
(0 0 0)
(0 0 0)
(0 0 0)
(0 0 0)
(0 0 0)
(0 0 0)
(0 0 0)
(0 0 0)
(0 0 0)
(0 0 0)
(0 0 0)
(0 0 0)
(0 0 0)
(0 0 0)
(0 0 0)
(0 0 0)
(0 0 0)
(0 0 0)
(0 0 0)
(0 0 0)
(0 0 0)
(0 0 0)
(0 0 0)
(0 0 0)
(0 0 0)
(0 0 0)
(0 0 0)
(0 0 0)
(0 0 0)
(0 0 0)
(0 0 0)
(0 0 0)
(0 0 0)
(0 0 0)
(0 0 0)
(0 0 0)
(0 0 0)
(0 0 0)
(0 0 0)
(0 0 0)
(0 0 0)
(0 0 0)
(0 0 0)
(0 0 0)
(0 0 0)
(0 0 0)
(0 0 0)
(0 0 0)
(0 0 0)
(0 0 0)
(0 0 0)
(0 0 0)
(0 0 0)
(0 0 0)
(0 0 0)
(0 0 0)
(0 0 0)
(0 0 0)
(0 0 0)
(0 0 0)
(0 0 0)
(0 0 0)
(0 0 0)
(0 0 0)
(0 0 0)
(0 0 0)
(0 0 0)
(0 0 0)
(0 0 0)
(0 0 0)
(0 0 0)
(0 0 0)
(0 0 0)
(0 0 0)
(0 0 0)
(0 0 0)
(0 0 0)
(0 0 0)
(0 0 0)
(0 0 0)
(0 0 0)
(0 0 0)
(0 0 0)
(0 0 0)
(0 0 0)
(0 0 0)
(0 0 0)
(0 0 0)
(0 0 0)
(0 0 0)
(0 0 0)
(0 0 0)
(0 0 0)
(0 0 0)
(0 0 0)
(0 0 0)
(0 0 0)
(0 0 0)
(0 0 0)
(0 0 0)
(0 0 0)
(0 0 0)
(0 0 0)
(0 0 0)
(0 0 0)
(0 0 0)
(0 0 0)
(0 0 0)
(0 0 0)
(0 0 0)
(0 0 0)
(0 0 0)
(0 0 0)
(0 0 0)
(0 0 0)
(0 0 0)
(0 0 0)
(0 0 0)
(0 0 0)
(0 0 0)
(0 0 0)
(0 0 0)
(0 0 0)
(0 0 0)
(0 0 0)
(0 0 0)
(0 0 0)
(0 0 0)
(0 0 0)
(0 0 0)
(0 0 0)
(0 0 0)
(0 0 0)
(0 0 0)
(0 0 0)
(0 0 0)
(0 0 0)
(0 0 0)
(0 0 0)
(0 0 0)
(0 0 0)
(0 0 0)
(0 0 0)
(0 0 0)
(0 0 0)
(0 0 0)
(0 0 0)
(0 0 0)
(0 0 0)
(0 0 0)
(0 0 0)
(0 0 0)
(0 0 0)
(0 0 0)
(0 0 0)
(0 0 0)
(0 0 0)
(0 0 0)
(0 0 0)
(0 0 0)
(0 0 0)
(0 0 0)
(0 0 0)
(0 0 0)
(0 0 0)
(0 0 0)
(0 0 0)
(0 0 0)
(0 0 0)
(0 0 0)
(0 0 0)
(0 0 0)
(0 0 0)
(0 0 0)
(0 0 0)
(0 0 0)
(0 0 0)
(0 0 0)
(0 0 0)
(0 0 0)
(0 0 0)
(0 0 0)
(0 0 0)
(0 0 0)
(0 0 0)
(0 0 0)
(0 0 0)
(0 0 0)
(0 0 0)
(0 0 0)
(0 0 0)
(0 0 0)
(0 0 0)
(0 0 0)
(0 0 0)
(0 0 0)
(0 0 0)
(0 0 0)
(0 0 0)
(0 0 0)
(0 0 0)
(0 0 0)
(0 0 0)
(0 0 0)
(0 0 0)
(0 0 0)
(0 0 0)
(0 0 0)
(0 0 0)
(0 0 0)
(0 0 0)
(0 0 0)
(0 0 0)
(0 0 0)
(0 0 0)
(0 0 0)
(0 0 0)
(0 0 0)
(0 0 0)
(0 0 0)
(0 0 0)
(0 0 0)
(0 0 0)
(0 0 0)
(0 0 0)
(0 0 0)
(0 0 0)
(0 0 0)
(0 0 0)
(0 0 0)
(0 0 0)
(0 0 0)
(0 0 0)
(0 0 0)
(0 0 0)
(0 0 0)
(0 0 0)
(0 0 0)
(0 0 0)
(0 0 0)
(0 0 0)
(0 0 0)
(0 0 0)
(0 0 0)
(0 0 0)
(0 0 0)
(0 0 0)
(0 0 0)
(0 0 0)
(0 0 0)
(0 0 0)
(0 0 0)
(0 0 0)
(0 0 0)
(0 0 0)
(0 0 0)
(0 0 0)
(0 0 0)
(0 0 0)
(0 0 0)
(0 0 0)
(0 0 0)
(0 0 0)
(0 0 0)
(0 0 0)
(0 0 0)
(0 0 0)
(0 0 0)
(0 0 0)
(0 0 0)
(0 0 0)
(0 0 0)
(0 0 0)
(0 0 0)
(0 0 0)
(0 0 0)
(0 0 0)
(0 0 0)
(0 0 0)
(0 0 0)
(0 0 0)
(0 0 0)
(0 0 0)
(0 0 0)
(0 0 0)
(0 0 0)
(0 0 0)
(0 0 0)
(0 0 0)
(0 0 0)
(0 0 0)
(0 0 0)
(0 0 0)
(0 0 0)
(0 0 0)
(0 0 0)
(0 0 0)
(0 0 0)
(0 0 0)
(0 0 0)
(0 0 0)
(0 0 0)
(0 0 0)
(0 0 0)
(0 0 0)
(0 0 0)
(0 0 0)
(0 0 0)
(0 0 0)
(0 0 0)
(0 0 0)
(0 0 0)
(0 0 0)
(0 0 0)
(0 0 0)
(0 0 0)
(0 0 0)
(0 0 0)
(0 0 0)
(0 0 0)
(0 0 0)
(0 0 0)
(0 0 0)
(0 0 0)
(0 0 0)
(0 0 0)
(0 0 0)
(0 0 0)
(0 0 0)
(0 0 0)
(0 0 0)
(0 0 0)
(0 0 0)
(0 0 0)
(0 0 0)
(0 0 0)
(0 0 0)
(0 0 0)
(0 0 0)
(0 0 0)
(0 0 0)
(0 0 0)
(0 0 0)
(0 0 0)
(0 0 0)
(0 0 0)
(0 0 0)
(0 0 0)
(0 0 0)
(0 0 0)
(0 0 0)
(0 0 0)
(0 0 0)
(0 0 0)
(0 0 0)
(0 0 0)
(0 0 0)
(0 0 0)
(0 0 0)
(0 0 0)
(0 0 0)
(0 0 0)
(0 0 0)
(0 0 0)
(0 0 0)
(0 0 0)
(0 0 0)
(0 0 0)
(0 0 0)
(0 0 0)
(0 0 0)
(0 0 0)
(0 0 0)
(0 0 0)
(0 0 0)
(0 0 0)
(0 0 0)
(0 0 0)
(0 0 0)
(0 0 0)
(0 0 0)
(0 0 0)
(0 0 0)
(0 0 0)
(0 0 0)
(0 0 0)
(0 0 0)
(0 0 0)
(0 0 0)
(0 0 0)
(0 0 0)
(0 0 0)
(0 0 0)
(0 0 0)
(0 0 0)
(0 0 0)
(0 0 0)
(0 0 0)
(0 0 0)
(0 0 0)
(0 0 0)
(0 0 0)
(0 0 0)
(0 0 0)
(0 0 0)
(0 0 0)
(0 0 0)
(0 0 0)
(0 0 0)
(0 0 0)
(0 0 0)
(0 0 0)
(0 0 0)
(0 0 0)
(0 0 0)
(0 0 0)
(0 0 0)
(0 0 0)
(0 0 0)
(0 0 0)
(0 0 0)
(0 0 0)
(0 0 0)
(0 0 0)
(0 0 0)
(0 0 0)
(0 0 0)
(0 0 0)
(0 0 0)
(0 0 0)
(0 0 0)
(0 0 0)
(0 0 0)
(0 0 0)
(0 0 0)
(0 0 0)
(0 0 0)
(0 0 0)
(0 0 0)
(0 0 0)
(0 0 0)
(0 0 0)
(0 0 0)
(0 0 0)
(0 0 0)
(0 0 0)
(0 0 0)
(0 0 0)
(0 0 0)
(0 0 0)
(0 0 0)
(0 0 0)
(0 0 0)
(0 0 0)
(0 0 0)
(0 0 0)
(0 0 0)
(0 0 0)
(0 0 0)
(0 0 0)
(0 0 0)
(0 0 0)
(0 0 0)
(0 0 0)
(0 0 0)
(0 0 0)
(0 0 0)
(0 0 0)
(0 0 0)
(0 0 0)
(0 0 0)
(0 0 0)
(0 0 0)
(0 0 0)
(0 0 0)
(0 0 0)
(0 0 0)
(0 0 0)
(0 0 0)
(0 0 0)
(0 0 0)
(0 0 0)
(0 0 0)
(0 0 0)
(0 0 0)
(0 0 0)
(0 0 0)
(0 0 0)
(0 0 0)
(0 0 0)
(0 0 0)
(0 0 0)
(0 0 0)
(0 0 0)
(0 0 0)
(0 0 0)
(0 0 0)
(0 0 0)
(0 0 0)
(0 0 0)
(0 0 0)
(0 0 0)
(0 0 0)
(0 0 0)
(0 0 0)
(0 0 0)
(0 0 0)
(0 0 0)
(0 0 0)
(0 0 0)
(0 0 0)
(0 0 0)
(0 0 0)
(0 0 0)
(0 0 0)
(0 0 0)
(0 0 0)
(0 0 0)
(0 0 0)
(0 0 0)
(0 0 0)
(0 0 0)
(0 0 0)
(0 0 0)
(0 0 0)
(0 0 0)
(0 0 0)
(0 0 0)
(0 0 0)
(0 0 0)
(0 0 0)
(0 0 0)
(0 0 0)
(0 0 0)
(0 0 0)
(0 0 0)
(0 0 0)
(0 0 0)
(0 0 0)
(0 0 0)
(0 0 0)
(0 0 0)
(0 0 0)
(0 0 0)
(0 0 0)
(0 0 0)
(0 0 0)
(0 0 0)
(0 0 0)
(0 0 0)
(0 0 0)
(0 0 0)
(0 0 0)
(0 0 0)
(0 0 0)
(0 0 0)
(0 0 0)
(0 0 0)
(0 0 0)
(0 0 0)
(0 0 0)
(0 0 0)
(0 0 0)
(0 0 0)
(0 0 0)
(0 0 0)
(0 0 0)
(0 0 0)
(0 0 0)
(0 0 0)
(0 0 0)
(0 0 0)
(0 0 0)
(0 0 0)
(0 0 0)
(0 0 0)
(0 0 0)
(0 0 0)
(0 0 0)
(0 0 0)
(0 0 0)
(0 0 0)
(0 0 0)
(0 0 0)
(0 0 0)
(0 0 0)
(0.0200265 0.0885443 -0.0451222)
(0.0536912 0.0549476 -0.0845391)
(0.0615162 0.161001 -0.0354099)
(0.119487 0.220182 -0.0444014)
(0.104647 0.0886198 -0.118404)
(0.143213 0.248996 -0.0414375)
(0.128374 0.188891 -0.0129023)
(0.0899533 0.126871 -0.0120384)
(0.0334028 0.120595 -0.0741783)
(0.0370658 0.102862 -0.0600555)
(0.13518 0.204666 -0.0159065)
(0.124468 0.212389 -0.0236798)
(0.265359 0.305688 0.0706487)
(0.232791 0.310783 0.042907)
(0.243655 0.385634 0.0318084)
(0.377712 0.358649 0.0883143)
(0.450679 0.381035 0.0593623)
(0.0808751 0.39732 0.0191232)
(0.0635167 0.301407 0.0234354)
(0.132774 0.407504 0.0125177)
(0.0418016 0.388277 0.0171955)
(0.0820355 0.206937 -0.00444445)
(0.0758866 0.154027 -0.0269168)
(0.104255 0.321442 0.00239979)
(0.125975 0.247847 0.000355608)
(0.0569864 0.111339 -0.00350765)
(0.0740418 0.205669 -0.0450072)
(0.0473626 0.1751 -0.0500735)
(0.129222 0.281742 0.0151615)
(0.221932 0.307945 0.0649632)
(0.348347 0.355775 0.127897)
(0.281435 0.368014 0.113821)
(0.392874 0.413124 0.10265)
(0.462701 0.371071 0.0951398)
(0.436886 0.318023 0.03141)
(0.417804 0.368494 0.0473652)
(0.337238 0.296262 -0.0143155)
(0.251427 0.280552 -0.0736935)
(0.112577 0.396782 -0.0295514)
(0.248625 0.294983 -0.0706477)
(0.152004 0.354623 -0.0804935)
(0.144309 0.382101 -0.0255525)
(0.154965 0.321989 -0.00832282)
(0.151716 0.345982 -0.0636594)
(0.0734073 0.249839 0.0115298)
(0.0350068 0.125245 -0.00771284)
(-0.0226019 0.147853 0.0107746)
(-0.0184712 0.145549 -0.0282077)
(0.0669149 0.203679 -0.0329243)
(0.140777 0.327342 -1.25305e-05)
(0.123189 0.388261 -0.00646575)
(0.247607 0.410742 0.0565461)
(0.379759 0.419106 0.0541142)
(0.180151 0.452634 0.00490293)
(0.268073 0.392973 -0.00267604)
(0.359354 0.376397 0.0198821)
(0.279329 0.321144 -0.0517365)
(0.265554 0.362644 -0.0399936)
(0.0952975 0.193888 -0.027348)
(0.0699007 0.124694 -0.0267293)
(-0.0551377 -0.00994303 -0.00800125)
(-0.0367722 0.0330985 -0.00955421)
(-0.0788263 -0.0309368 -0.00941446)
(-0.0872612 -0.0356891 0.00604818)
(-0.087725 0.122197 0.00790279)
(-0.067907 -0.0512366 0.0135896)
(-0.0809231 -0.0621976 0.0174103)
(-0.0961408 0.133876 -0.00173006)
(-0.0397454 0.159605 -0.0426721)
(-0.090099 0.0321463 -0.00532195)
(0.0892616 0.264531 0.00280556)
(0.124244 0.228176 0.00518329)
(0.1889 0.325092 -0.0223208)
(0.126577 0.0615427 -0.0204607)
(0.172187 0.00138839 0.00698458)
(0.124886 0.157128 -0.01059)
(-0.00483891 0.0892597 -0.0150525)
(0.119099 -0.137133 0.0318343)
(-0.0444367 -0.0159718 0.00226086)
(-0.0677551 0.00807567 -0.0134482)
(-0.0502902 -0.0444879 -0.00545141)
(-0.0631014 0.00518634 -0.00670044)
(-0.0511128 -0.0705046 0.000639902)
(0.00455909 0.0426474 0.013657)
(-0.00926841 -0.0448646 0.0108085)
(-0.0324699 -0.00518523 0.000361344)
(-0.0281549 -0.0225661 -0.0216635)
(-0.0108172 -0.0274331 -0.00921886)
(0.0954777 -0.0139317 -0.0206263)
(0.0932912 -0.055695 -0.020404)
(0.0859052 -0.0280264 -0.00959906)
(0.0524947 0.00841199 -0.00768284)
(0.0198356 0.0279163 -0.000264467)
(-0.0214878 -0.0524495 -0.00583315)
(0.038552 0.0256918 0.00519018)
(-0.0250981 -0.0353788 -0.0283376)
(-0.00274361 0.0724171 -0.175932)
(-0.0239293 0.0400966 -0.292242)
(0.0405591 0.0146616 -0.223238)
(0.0253526 0.114011 -0.174409)
(0.0670108 0.125249 -0.200719)
(0.0197731 0.00257205 -0.316266)
(-0.0113829 0.0452808 -0.319836)
(0.0102179 0.0245637 -0.354615)
(0.121735 0.119718 -0.212023)
(0.144675 0.11373 -0.085504)
(0.0348679 -0.00689323 -0.367265)
(0.0551829 -0.00932781 -0.380011)
(0.12872 -0.0131831 -0.307331)
(0.118061 0.108102 -0.0683856)
(0.173755 0.072754 -0.244188)
(-0.00211473 0.11406 -0.200145)
(-0.025374 0.0883927 -0.317564)
(0.0824978 0.181523 -0.132434)
(0.0787782 0.188805 -0.131937)
(0.185439 0.255849 0.0325065)
(-0.0332903 0.0735165 -0.308689)
(-0.0160168 0.0859493 -0.305174)
(-0.00373465 0.108001 -0.241007)
(0.00750428 0.0989985 0.0513512)
(0.0553022 0.0826926 -0.0968996)
(0.0895522 0.180014 -0.000657324)
(0.0788343 0.131673 -0.0303315)
(0.136512 0.0141349 -0.02733)
(0.0484617 0.057893 -0.139293)
(0.119325 0.0483968 0.040027)
(0.0327313 0.0493619 -0.0372522)
(0.0749076 0.150363 -0.0600336)
(0.0313106 0.0741039 -0.0902095)
(0.0370697 0.186308 -0.175598)
(0.0129028 0.145088 -0.135326)
(0.0859579 0.236585 -0.041925)
(-0.0183561 0.113262 -0.288596)
(-0.0179232 0.0985677 -0.260427)
(-0.0537218 0.115461 -0.181801)
(0.0120589 0.213138 -0.0301221)
(0.0112152 0.193088 -0.0515141)
(0.04527 0.143905 -0.073659)
(0.0379884 0.200753 -0.0557362)
(0.0271302 0.163961 -0.0664497)
(0.086567 0.20868 0.00437829)
(0.0661317 0.220823 0.00921679)
(-0.0168279 -0.00203663 -0.260768)
(-0.0388655 0.0798724 -0.088788)
(0.027266 0.118485 0.0161364)
(-0.0250708 0.206004 -0.063541)
(-0.110874 0.201606 -0.00965299)
(-0.0235838 0.229752 -0.0208842)
(-0.0157512 0.175641 -0.0559043)
(-0.0682498 0.197074 -0.00863135)
(0.0818691 0.1499 -0.0359978)
(0.0557768 0.104585 -0.0225707)
(0.190773 0.282441 0.0783728)
(0.114956 0.106261 -0.0408501)
(0.155957 0.0753046 -0.00434995)
(0.0949712 0.228461 0.0531702)
(0.124977 0.319249 0.157729)
(0.0804111 0.123705 -0.0115834)
(0.137606 0.112937 0.0230062)
(-0.0761312 -0.0511397 0.0318586)
(-0.0289425 -0.0720245 0.00890181)
(-0.0128989 -0.0527202 -0.0686181)
(-0.0319328 -0.0832342 0.128232)
(-0.0935107 0.000908177 0.0351156)
(0.00866221 -0.0773937 0.0112658)
(-0.0062647 -0.0200631 -0.0797745)
(-0.0715239 0.102814 -0.0161338)
(0.103702 0.0390744 -0.0439965)
(0.0843975 0.0436452 -0.0443706)
(0.0931842 -0.054811 -0.0120541)
(0.092858 -0.0172707 -0.0207559)
(0.0902433 0.0293291 -0.0298789)
(0.0676825 -0.0333473 -0.0154774)
(0.081999 -0.0188125 -0.0590673)
(0.034612 -0.0921586 0.00335573)
(0.111866 -0.0362723 -0.119439)
(0.0722966 -0.0813931 -0.0412692)
(0.0369601 -0.0597035 -0.0130277)
(0.0898559 -0.018332 -0.151228)
(0.0334217 -0.0242835 -0.107964)
(-0.0187531 0.0081381 -0.377443)
(0.0028933 -0.0181387 -0.377767)
(-0.00327445 -0.00193075 -0.365341)
(-0.0125015 0.00138125 -0.377929)
(-0.00576939 -0.0250491 -0.37859)
(-0.0235605 -0.00780256 -0.368125)
(-0.0057982 -0.0580895 -0.362909)
(-0.0303795 -0.137573 -0.332249)
(0.0187705 -0.0718962 -0.357962)
(0.0817809 -0.0700163 -0.253409)
(-0.120086 -0.0126789 -0.456024)
(-0.0550198 -0.145629 -0.325378)
(0.0225406 -0.130335 -0.184174)
(0.126737 0.0404289 -0.208786)
(0.102475 -0.0333145 -0.115269)
(-0.035211 0.0450765 -0.426608)
(-0.0155071 0.0124655 -0.394196)
(-0.0383349 0.012042 -0.372539)
(-0.0447011 0.0187815 -0.400524)
(-0.0618151 0.0473169 0.0423684)
(0.00166707 -0.0270264 -0.381301)
(-0.0115726 -0.0565042 -0.352298)
(-0.0327717 -0.0292776 -0.371048)
(-0.105005 0.00913934 -0.00104409)
(0.106123 0.0894515 -0.101231)
(0.194223 0.0287155 0.0979102)
(0.0745609 0.0379157 -0.00270635)
(0.240491 -0.0878208 0.0197744)
(0.110586 0.0648968 -0.0167826)
(0.270404 0.00493547 0.139125)
(0.154719 0.0229976 0.0852117)
(0.0346645 0.0496677 -0.0957155)
(0.073471 0.0490161 -0.0374242)
(-0.0300185 0.0764706 -0.423544)
(-0.0228414 0.0848428 -0.302588)
(-0.0517366 0.0885948 -0.313916)
(-0.0325344 0.0567853 -0.379035)
(-0.00860633 0.0957692 -0.268933)
(-0.0297795 0.0987456 -0.31104)
(0.0462879 0.154989 -0.0362844)
(0.0216447 0.108255 -0.0697312)
(0.0706108 0.060762 0.0207843)
(0.0504238 0.10895 0.0102745)
(0.0165996 0.0693903 -0.0594952)
(-0.0954687 0.0873371 -0.147144)
(-0.0803079 0.116503 -0.0808831)
(-0.0152654 0.062665 -0.212375)
(-0.0683102 0.10259 -0.165838)
(-0.114782 0.137372 -0.107966)
(-0.0129634 0.123862 -0.0448381)
(-0.05379 0.188523 0.000838517)
(-0.000168366 0.150189 0.0254707)
(-0.0103305 0.0804895 -0.0357014)
(-0.0394087 0.138488 -0.000801429)
(-0.00275049 0.134768 -0.0479891)
(-0.0570331 0.131661 -0.0486804)
(0.101441 0.31925 0.244557)
(0.0545901 0.14794 0.0456118)
(0.124449 0.157129 0.0865074)
(-0.092772 0.229821 0.0351056)
(0.0770214 0.313083 0.313184)
(0.0544026 0.144375 0.0769528)
(0.0933486 0.189077 0.162353)
(-0.0705316 0.0471352 0.0543571)
(0.0249648 -0.0519957 0.010023)
(-0.0299873 0.0149192 -0.0707187)
(0.0406673 0.0393174 0.181444)
(-0.0510377 0.0830201 0.0641992)
(0.0285033 -0.00527444 0.00896691)
(-0.0356681 0.0359989 -0.0571296)