/*--------------------------------*- C++ -*----------------------------------*\
| =========                 |                                                 |
| \\      /  F ield         | OpenFOAM: The Open Source CFD Toolbox           |
|  \\    /   O peration     | Version:  5.x                                   |
|   \\  /    A nd           | Web:      www.OpenFOAM.org                      |
|    \\/     M anipulation  |                                                 |
\*---------------------------------------------------------------------------*/
FoamFile
{
    version     2.0;
    format      ascii;
    class       volVectorField;
    location    "4";
    object      U;
}
// * * * * * * * * * * * * * * * * * * * * * * * * * * * * * * * * * * * * * //

dimensions      [0 1 -1 0 0 0 0];

internalField   nonuniform List<vector> 
10571
(
(0.029159 0.128427 0.96971)
(0.0331878 0.00127871 0.633114)
(0.0697273 -0.0855248 0.881666)
(0.0445797 -0.143585 1.21795)
(0.034497 -0.0193405 0.838095)
(0.018945 0.00523762 0.890595)
(0.0717778 0.0269733 1.00424)
(0.0715634 -0.0206836 1.13541)
(0.117283 -0.0419164 1.14996)
(0.0211568 0.00917323 1.0337)
(0.207726 0.0916346 1.07583)
(0.046932 0.147545 1.21009)
(0.03861 0.142653 1.29335)
(0.0261173 0.0345637 1.00712)
(0.106593 0.0361407 1.09842)
(0.158438 0.0032248 1.06129)
(0.0515134 0.120588 1.04029)
(-0.0439667 0.160164 1.44425)
(0.0258549 0.116623 1.17591)
(0.143458 0.113055 1.0808)
(0.0324971 -0.0349789 0.97694)
(-0.0326809 -0.0203999 1.15074)
(0.0422383 0.0847681 1.08841)
(0.0307434 -0.0255238 0.810258)
(-0.0362704 -0.13939 1.086)
(0.0121985 -0.00930312 0.637595)
(0.0681653 -0.0547167 0.838354)
(-0.0311839 -0.180412 0.928117)
(0.0113487 -0.0233153 0.800983)
(0.0320097 -0.0246649 0.872091)
(0.12795 0.0895895 0.655075)
(0.0378359 0.118066 0.626746)
(-0.0658599 0.0903836 0.624092)
(-0.204758 0.0352291 0.996001)
(0.00527427 -0.0263572 0.789167)
(0.0383731 -0.0428633 0.86624)
(0.181005 0.016854 0.671545)
(0.0335784 -0.00422537 0.648352)
(-0.0793432 -0.0787122 0.625978)
(-0.119241 -0.00959497 0.838708)
(0.0142095 0.0295732 0.878838)
(0.127692 -0.102458 0.692954)
(-0.0393103 -0.119464 0.669414)
(-0.119489 -0.176307 0.905087)
(0.0165462 -0.0439062 0.883694)
(0.0173805 -0.216454 0.938688)
(0.0499273 -0.174086 0.860484)
(0.0221779 -0.0224488 0.814085)
(0.134649 -0.118032 2.88532)
(0.00476505 0.00376467 0.444609)
(0.00976942 0.0286115 0.519583)
(-0.00494002 0.06504 0.589876)
(0.000781663 0.0159097 0.646531)
(0.015033 0.000353589 0.646357)
(0.0640073 0.0608288 1.13832)
(0.0195901 0.100257 1.26623)
(-0.0977847 0.0771611 1.31805)
(-0.0282624 -0.00363633 0.844372)
(0.00410464 -0.00703549 0.580696)
(0.0217274 -0.00591553 0.655689)
(0.107235 0.00556912 1.38953)
(-0.0024768 -0.0319917 1.26642)
(-0.101748 -0.0832108 1.18766)
(0.00817388 -0.0088874 0.770199)
(0.01016 0.00370468 0.501189)
(0.0512141 -0.0765777 1.38125)
(-0.0208076 -0.0736836 1.07633)
(0.00160195 -0.0325152 0.57202)
(0.00548228 -0.0168116 0.848061)
(0.00384014 -0.012615 0.575726)
(0.00940825 -0.00674653 0.527269)
(0.0312574 0.00585678 0.791745)
(0.126807 0.0985636 1.44808)
(0.00831412 0.0230019 -0.146352)
(0.188273 0.000648735 0.116405)
(-0.0163138 -0.101387 0.35215)
(-0.201995 -0.00324738 0.00933529)
(0.11796 0.096729 0.191002)
(0.00188271 -0.0218192 0.571919)
(-0.0253523 -0.0588003 0.541696)
(-0.0178672 0.00577333 0.640319)
(-0.195522 0.109348 0.00535268)
(-0.0109623 -0.0112479 -0.103217)
(0.0192386 -0.133254 0.239656)
(0.00411684 0.024317 0.658396)
(-7.21097e-05 0.0532585 0.419682)
(-0.0038839 -0.0137431 0.576271)
(-0.215305 0.125395 0.0358474)
(-0.0102477 -0.0672701 -0.019097)
(0.0881284 -0.054811 0.780951)
(-0.00538736 0.00589195 0.648921)
(-0.105048 -0.0983635 0.0397231)
(-0.0346068 0.00419285 0.0946513)
(0.134101 -0.178165 -0.0677568)
(0.099639 -0.179454 -0.0595775)
(-0.0263126 -0.0214311 0.159874)
(0.0730145 0.0474164 1.15018)
(0.0663487 -0.0273546 -0.138176)
(0.122386 -0.125398 0.164217)
(-0.0183391 -0.131559 0.504108)
(-0.173569 -0.0793099 0.144545)
(0.0668581 0.0213409 0.303018)
(0.0105588 -0.0772144 0.508089)
(-0.0652797 -0.051879 0.594904)
(-0.00780015 -0.0295721 0.621986)
(0.122831 0.00137305 0.0677978)
(-0.016168 -0.045834 0.339442)
(-0.0631351 -0.205668 0.511312)
(-0.00292809 -0.0132492 0.667885)
(0.0214415 0.0411722 0.633508)
(-0.01696 0.0115644 0.649671)
(0.0368388 0.120687 0.21719)
(0.00343496 -0.109751 -0.0698073)
(0.0271894 -0.025341 0.686865)
(0.0327416 -0.0117788 0.635834)
(0.13116 0.138753 0.266442)
(0.0458595 0.0566224 0.152305)
(0.111475 0.169592 0.109473)
(0.13361 0.0639866 0.185479)
(-0.0329132 0.0128373 0.157693)
(0.0583193 0.00882807 1.06049)
(0.0318785 -0.0382333 -0.0656117)
(0.0090425 -0.0941202 0.242218)
(-0.0216469 -0.0556118 0.635776)
(-0.0647201 -0.0971796 0.167931)
(0.0153422 -0.0672347 0.320621)
(0.0543941 -0.107761 0.519362)
(-0.115502 -0.0625026 0.592642)
(-0.059609 -0.0573118 0.522754)
(0.100389 0.0269499 0.0235716)
(-0.136154 0.0534273 -0.00726244)
(-0.00326514 -0.00767633 0.43405)
(-0.102593 -0.117716 0.664495)
(-0.0248018 -0.0826193 0.603989)
(0.0199315 0.0134311 0.598036)
(-0.0186343 0.0184947 0.600094)
(0.0418244 0.0872285 0.299764)
(0.0455912 0.0268597 0.0930029)
(-0.0015807 -0.0469225 -0.0424265)
(0.00944045 -0.00764657 0.617239)
(0.0629588 -0.0130474 0.615234)
(0.0739608 0.050088 0.248517)
(0.0437894 0.00962172 0.320706)
(0.106256 0.13976 0.161027)
(0.14088 0.0584439 0.345614)
(-0.01632 0.0254058 0.27593)
(0.0540269 -0.0138979 0.970201)
(0.0130665 -0.0112571 0.0297376)
(-0.0550162 -0.0556596 0.329276)
(0.0514809 0.00637478 0.722493)
(0.134572 0.096196 0.258083)
(0.0534784 -0.135513 0.26216)
(0.0977998 -0.0943571 0.562237)
(-0.117946 -0.0683668 0.596796)
(-0.0464608 -0.0149432 0.372495)
(-0.0833652 0.0495314 0.00761877)
(-0.107562 0.0384599 -0.0593479)
(-0.00357126 0.0154995 0.423808)
(0.00242919 0.0139078 0.792768)
(0.00261378 -0.0928005 0.50533)
(0.00179989 -0.0336641 0.555219)
(0.0245717 -0.0251255 0.51148)
(0.0520448 0.0274776 0.328942)
(0.0295661 0.00398351 0.156175)
(0.0454087 0.0403499 0.00647227)
(0.0264176 0.0419422 0.470722)
(0.0599946 -0.0133192 0.56011)
(0.0692412 0.0602051 0.249064)
(0.0569679 0.00330567 0.352198)
(0.00879014 -0.0209804 -0.00481622)
(0.0997241 0.114761 0.14515)
(0.0923761 0.0427839 0.44619)
(-0.012864 0.0333446 0.365592)
(0.0467748 -0.0173141 1.00246)
(-0.0743701 0.0574746 0.113644)
(-0.120277 -0.090454 0.351241)
(0.0567115 0.0123342 0.70948)
(0.154628 0.148813 0.301822)
(0.0719882 -0.0662888 0.186808)
(0.128291 -0.000769316 0.621853)
(-0.0874837 -0.0393181 0.638894)
(0.0289675 0.0999849 0.366414)
(-0.0364598 0.0567995 0.061691)
(-0.0391478 -0.0806184 -0.0627934)
(-0.00158327 0.0296175 0.400381)
(0.0776387 0.102675 0.6674)
(0.0514316 -0.0503859 0.499162)
(-0.0128593 -0.0403489 0.555604)
(0.0545324 -0.0513762 0.487199)
(0.0985492 -0.0701273 0.400349)
(0.079016 -0.0533534 0.18452)
(0.0700961 0.0961552 0.0943754)
(0.0299705 0.0792626 0.398425)
(-0.000868538 -0.0331016 0.529973)
(0.0550621 0.043923 0.221218)
(0.0159548 -0.00841346 0.371202)
(0.101998 -0.0241305 0.00381178)
(0.0884746 0.0874346 0.163532)
(0.0396691 0.0510451 0.526093)
(0.013768 0.0405884 0.489704)
(0.00550114 -0.0045486 1.09633)
(-0.145337 0.124798 0.125779)
(-0.113691 -0.0634291 0.362909)
(-0.0562918 -0.0765803 0.570357)
(0.0672118 0.103473 0.295512)
(-0.0604768 0.132544 0.195213)
(0.105247 0.066023 0.642862)
(-0.0408899 0.0719912 0.680084)
(0.0608141 0.167069 0.392837)
(-0.0365375 -0.0441647 0.145201)
(0.0133114 -0.142412 -0.0825204)
(0.0158232 0.0475785 0.416783)
(0.0861546 0.140619 0.408452)
(0.0644403 0.0034145 0.533472)
(-0.026662 -0.0208007 0.575241)
(0.0597469 -0.0467901 0.492693)
(0.09658 -0.111154 0.438751)
(0.09785 -0.0652696 0.152397)
(0.0545944 0.0873334 0.181569)
(0.0180674 0.0781232 0.388193)
(-0.0660811 -0.0649134 0.488093)
(0.0113776 -0.0632352 0.245844)
(-0.0264697 -0.0184245 0.359701)
(0.02561 0.0467721 0.219104)
(-0.0273809 0.0175544 0.55951)
(0.0569429 0.0205325 0.549773)
(-0.0169453 0.00241456 1.18909)
(-0.117576 0.107788 0.113925)
(-0.0394728 0.0771718 0.333065)
(-0.133599 -0.0189253 0.483837)
(0.0175803 0.0963354 0.206808)
(-0.121829 0.194396 0.234744)
(0.0331869 0.115634 0.592916)
(-0.00567211 0.126058 0.670422)
(0.0606745 0.162609 0.408947)
(-0.0980655 -0.127078 0.220828)
(0.0132547 0.0594446 0.41505)
(0.0287562 0.167237 0.343308)
(0.0405584 0.0426462 0.548633)
(-0.0127965 0.0264544 0.631289)
(0.0666049 -0.0370996 0.5318)
(0.00738508 -0.0760685 0.45216)
(0.0181701 0.0425129 0.248772)
(-0.0136307 0.0518718 0.407009)
(-0.0852366 -0.0761227 0.464433)
(-0.0188612 -0.0909962 0.275954)
(0.00644349 -0.0170612 0.335343)
(-0.0431252 0.0220187 0.329682)
(-0.196414 -0.0296498 0.434659)
(0.0539115 -0.0428541 0.477056)
(-0.036718 -0.000608008 1.25946)
(0.0125008 0.000664196 0.0965534)
(-0.0617041 0.120027 0.205021)
(-0.111779 0.0189252 0.453879)
(-0.0210084 0.0595547 0.16526)
(-0.110995 0.125666 0.261955)
(-0.0451575 0.189634 0.52343)
(0.0375926 0.136283 0.63269)
(0.0430523 0.162176 0.442629)
(-0.0804505 -0.114382 0.26396)
(-0.000392058 0.040773 0.452273)
(-0.0295189 0.135259 0.370929)
(0.0210612 0.0610764 0.560339)
(0.0215059 0.058111 0.680116)
(0.0793726 -0.0189033 0.596516)
(0.0488085 -0.0833208 0.471427)
(-0.0207422 0.00274044 0.311186)
(-0.0534648 0.00697248 0.438413)
(-0.0845459 -0.0590288 0.46078)
(-0.0523146 0.000215493 0.307649)
(-0.0148153 0.000129766 0.302692)
(-0.0367924 0.00290137 0.453173)
(-0.196742 0.00350317 0.320081)
(0.00602567 -0.0115799 0.213146)
(-0.0148134 0.00366624 1.31219)
(0.0804933 -0.0843526 0.111178)
(-0.0194026 0.0832145 0.113407)
(0.0328669 0.0275475 0.436388)
(-0.0110819 0.0668693 0.130428)
(0.0224038 -0.0652971 0.295138)
(-0.0836776 0.234874 0.479413)
(0.0570836 0.156413 0.594063)
(0.0233891 0.170277 0.479734)
(-0.0783178 -0.0960121 0.265297)
(0.0024447 -0.0769582 0.452215)
(0.0225098 0.0390699 0.435962)
(0.00892185 0.0592593 0.590462)
(0.0475811 0.077592 0.716924)
(0.0780054 -0.021105 0.643111)
(0.0306091 -0.0730461 0.466155)
(-0.0523911 -0.0227582 0.360805)
(-0.0656508 -0.0564902 0.460339)
(-0.0894103 -0.0352248 0.459849)
(-0.0495327 0.0258419 0.316985)
(-0.0443804 0.0611886 0.211602)
(-0.0269401 -0.0220672 0.488696)
(-0.0799797 0.00614442 0.266944)
(-0.0192987 0.0338173 0.157241)
(0.0826562 0.0467821 1.31991)
(0.105556 -0.10713 0.131359)
(0.0354063 0.0509751 0.102442)
(0.0735303 0.168637 0.331431)
(0.0104593 0.0948067 0.108671)
(0.0917021 -0.10844 0.318428)
(-0.0866943 0.240402 0.478613)
(0.0489918 0.174967 0.588215)
(-0.0167222 0.141907 0.53059)
(-0.0506371 -0.0789002 0.238709)
(0.00500883 -0.0792093 0.336015)
(0.0488735 0.000324069 0.466755)
(-0.00992807 0.047384 0.646121)
(0.0566552 0.0855301 0.757437)
(0.0519447 -0.0462179 0.692924)
(0.0185235 -0.0314271 0.449645)
(-0.0600308 -0.0274285 0.399179)
(-0.0543177 -0.11532 0.484527)
(-0.090384 -0.0418182 0.466044)
(-0.0484689 0.0202472 0.32095)
(-0.0272035 0.0714967 0.180842)
(-0.0971899 -0.0556728 0.431679)
(0.0053142 -0.0144888 0.212405)
(0.0103628 0.0273622 0.16843)
(0.081191 0.00695724 1.24665)
(0.105163 -0.107635 0.141335)
(0.0496642 0.0444337 0.128962)
(0.0176385 0.282623 0.222521)
(0.00797722 0.0910482 0.109378)
(0.0885025 -0.0936165 0.331685)
(-0.0828733 0.221925 0.498621)
(0.0319108 0.173847 0.608413)
(-0.0744285 0.0665639 0.579974)
(-0.0220328 -0.0641781 0.205294)
(-0.00451641 -0.0843088 0.263834)
(0.0303169 -0.00562796 0.47619)
(-0.028435 0.0309995 0.717546)
(0.0427092 0.0725482 0.811488)
(0.0248519 -0.0640552 0.733138)
(-0.0139913 -0.0138555 0.364235)
(-0.0602696 -0.0191018 0.419727)
(-0.0440925 -0.126938 0.514532)
(-0.0702278 -0.0561352 0.481849)
(-0.0318171 0.008425 0.33118)
(-0.0156471 0.0562833 0.189498)
(-0.111292 -0.0667226 0.351659)
(0.0415725 -0.00283733 0.180394)
(0.0391646 -0.00343192 0.174279)
(0.0265952 0.0911137 0.817595)
(0.0922115 -0.0900915 0.154169)
(0.0479911 0.0194424 0.151689)
(-0.0247122 0.263321 0.199495)
(-0.0151103 0.0539426 0.104914)
(0.0947887 -0.0931203 0.32225)
(-0.0594114 0.145101 0.530003)
(0.0167386 0.124958 0.657315)
(-0.0919481 0.0162376 0.601577)
(0.00450289 -0.0475697 0.157952)
(-0.0183676 -0.0954532 0.261885)
(-0.0203891 -0.0254098 0.482117)
(-0.0357896 0.0112304 0.773947)
(0.0183701 0.039503 0.863161)
(0.0173504 -0.0661689 0.74778)
(-0.0158893 0.00293065 0.298969)
(-0.0637389 -0.00891356 0.424862)
(-0.0588273 -0.0997621 0.541696)
(-0.0359195 -0.0371999 0.483015)
(0.0159281 -0.00286847 0.353194)
(-0.00393085 0.0309308 0.193226)
(-0.0608273 -0.00128599 0.335583)
(0.0537786 -0.00704321 0.16936)
(0.0567952 -0.0204154 0.159933)
(0.00534874 0.0338594 0.263576)
(0.0730643 -0.0618468 0.15415)
(0.0524821 -0.0218938 0.170999)
(-0.0201818 0.170092 0.197414)
(-0.0288235 0.0147723 0.0997868)
(0.0961096 -0.0899476 0.303616)
(-0.0366567 0.0517515 0.546418)
(0.00329687 0.0607696 0.688399)
(-0.0671956 0.00294646 0.602898)
(0.0227957 -0.0456485 0.119576)
(-0.0214123 -0.0768591 0.321589)
(-0.053415 -0.0345571 0.484344)
(-0.0358556 0.000172818 0.791759)
(0.000682397 0.00675039 0.878937)
(0.0212632 -0.0615248 0.743815)
(0.0128488 -0.00746243 0.289144)
(-0.0771128 -0.00681748 0.425514)
(-0.107947 -0.0436136 0.530925)
(-0.0160639 -0.00670259 0.442962)
(0.0498096 -0.000873836 0.389431)
(0.00572951 0.022628 0.189997)
(0.0073653 0.0509831 0.37186)
(0.0580363 0.000139749 0.179108)
(0.0645812 -0.0296153 0.148546)
(0.0254116 0.00313803 0.182037)
(0.0659551 -0.0675589 0.121396)
(0.0627144 -0.0530908 0.192377)
(0.0181368 0.0947383 0.209177)
(-0.0235718 -0.00630456 0.113436)
(0.0776953 -0.079466 0.33222)
(-0.0522979 -0.0294447 0.561316)
(-0.0389244 -0.00697856 0.674522)
(-0.00320655 -0.0462568 0.572923)
(0.0212781 -0.0594122 0.111084)
(-0.00773168 -0.0484775 0.375842)
(-0.0597457 -0.0300371 0.476692)
(-0.035517 -0.00146769 0.785917)
(-0.00741532 -0.00431441 0.864654)
(0.0419089 -0.0216092 0.728566)
(0.0389166 -0.0144441 0.292722)
(-0.0732983 -0.00468776 0.435895)
(-0.125241 -0.0242779 0.486052)
(-0.0406565 -0.0139915 0.38147)
(0.0519812 0.0247511 0.422901)
(0.0153555 0.0179883 0.199685)
(0.0473585 0.0626435 0.399447)
(0.0875351 0.00449803 0.189024)
(0.0615431 -0.0407834 0.146528)
(0.0207334 -0.00381026 0.190384)
(0.0560895 -0.0784 0.0859251)
(0.0823433 -0.074783 0.200902)
(0.0628892 0.0682849 0.223008)
(-0.0077781 -0.00736951 0.142059)
(0.0344522 -0.0729689 0.380581)
(-0.0863355 -0.0822504 0.585752)
(-0.0867321 -0.0731801 0.650189)
(0.0214005 -0.0945218 0.502585)
(-0.00754639 -0.0728802 0.129651)
(-0.00487805 -0.04142 0.360517)
(-0.0408033 -0.0321849 0.481744)
(-0.0511313 0.00975936 0.760974)
(-0.0163692 0.0118017 0.835161)
(0.0494156 0.0675684 0.656916)
(0.0467679 -0.0219894 0.290201)
(-0.0369018 0.0172703 0.456598)
(-0.10108 -0.02597 0.460147)
(-0.0633275 -0.0287743 0.35478)
(0.0125352 0.0893065 0.449381)
(0.0283389 0.0015077 0.237652)
(0.0848927 0.0740797 0.409966)
(0.130882 -0.0054689 0.202361)
(0.0492016 -0.0396174 0.174099)
(0.0113247 -0.00740797 0.211334)
(0.0174267 -0.0464766 0.0992283)
(0.0971818 -0.102364 0.191304)
(0.103408 0.0517256 0.222468)
(-0.00568059 -0.0153991 0.155826)
(-0.0345121 0.00414559 0.424965)
(-0.0977047 -0.0919971 0.598597)
(-0.114101 -0.102376 0.640961)
(0.00519483 -0.0724193 0.457146)
(-0.039036 -0.0657244 0.152718)
(0.000338611 0.0293978 0.330693)
(0.0178037 -0.0403644 0.485428)
(-0.0926795 0.0288978 0.706664)
(-0.0450136 0.0352122 0.772186)
(0.021971 0.0876481 0.572416)
(0.0447221 -0.044635 0.289815)
(-0.0227514 0.0700379 0.493281)
(-0.0108519 -0.0172774 0.454694)
(-0.0578593 -0.0360084 0.357614)
(-0.0392976 0.099294 0.461225)
(0.0358413 -0.0212352 0.282221)
(0.166624 0.090853 0.385964)
(0.158889 -0.0137979 0.239007)
(0.0415269 -0.0325218 0.225661)
(0.00232092 -0.00751771 0.245488)
(-0.0184002 -0.00491978 0.120754)
(0.0940178 -0.0987561 0.203553)
(0.100047 0.0332337 0.235648)
(-0.0226882 -0.0430414 0.152961)
(-0.100927 0.0716858 0.392144)
(-0.0979392 -0.0794782 0.595396)
(-0.119136 -0.0987937 0.632524)
(-0.000634576 0.020341 0.427822)
(-0.0512524 -0.0414077 0.170002)
(0.00453717 0.0519827 0.353266)
(0.0223943 -0.0406939 0.481087)
(-0.0975601 0.0312756 0.665683)
(-0.0729115 0.0201148 0.722179)
(-0.00166297 0.0541454 0.509836)
(0.0376692 -0.053836 0.291498)
(0.0408994 0.0658441 0.525989)
(0.0902906 0.00777654 0.458657)
(-0.00462006 -0.0348399 0.396211)
(-0.0363618 0.0667465 0.462152)
(0.0374222 -0.0431537 0.308441)
(0.199289 0.0835438 0.354456)
(0.142615 -0.0230329 0.297383)
(0.0362047 -0.0236282 0.27222)
(-0.00017008 -0.00342171 0.284239)
(-0.024811 0.00609262 0.12254)
(0.0591553 -0.0204482 0.255989)
(0.0589793 0.0301233 0.267763)
(-0.0395904 -0.0646951 0.152644)
(-0.0930117 -0.0183913 0.303389)
(-0.0857188 -0.0233232 0.59844)
(-0.112014 -0.0677355 0.607518)
(0.0230773 0.103384 0.414433)
(-0.0374419 -0.0198932 0.187206)
(0.00477944 0.0525873 0.391006)
(0.011515 -0.0336336 0.494151)
(-0.0858617 0.0373721 0.642932)
(-0.0879726 -0.00344214 0.678073)
(-0.0103766 0.00030563 0.481018)
(0.0261034 -0.0490492 0.301253)
(0.0951072 0.0396827 0.458281)
(0.111144 0.0406514 0.479708)
(0.066399 -0.00468816 0.449511)
(0.012475 0.0229831 0.467306)
(0.0371327 -0.0607535 0.315348)
(0.170741 0.0663374 0.346618)
(0.103646 -0.0215247 0.348353)
(0.0306029 -0.0136132 0.301797)
(-0.00323643 -0.000980851 0.305559)
(-0.0142975 0.00739163 0.118355)
(0.00804353 0.0325544 0.297575)
(0.0252286 0.0160626 0.286775)
(-0.0510392 -0.0738749 0.154608)
(0.00228666 -0.0543695 0.21645)
(-0.0224986 0.0287693 0.592173)
(-0.0396104 -0.0128219 0.584846)
(0.0546347 0.127668 0.412474)
(-0.0043487 -0.0163075 0.205893)
(-0.00122258 0.0340285 0.442792)
(-0.0503295 0.0690968 0.546435)
(-0.0755296 0.0550028 0.645684)
(-0.0819924 -0.00303156 0.640331)
(-0.0064508 -0.0516981 0.480266)
(0.0121853 -0.0337298 0.321898)
(0.0397607 0.0715981 0.356497)
(0.109918 0.0780301 0.508296)
(0.10062 0.0302347 0.479981)
(0.0601213 -0.00286857 0.473242)
(0.0347624 -0.0692359 0.314379)
(0.123657 0.0251336 0.369209)
(0.0785336 -0.00158061 0.385483)
(0.0241315 -0.000340014 0.326615)
(-0.00842758 -0.00201003 0.308387)
(-0.00489703 0.00828441 0.117182)
(-0.0269593 0.0405452 0.327253)
(-0.0355302 -0.00473615 0.290164)
(-0.0597104 -0.0780834 0.163945)
(0.0762671 -0.0553904 0.159331)
(0.0659589 0.000548082 0.548068)
(0.0665667 0.0169527 0.576399)
(0.0731935 0.111036 0.418297)
(0.027913 -0.033154 0.218503)
(-0.0130834 -0.0367811 0.493911)
(-0.0335826 0.0603125 0.592713)
(-0.0305303 0.0937471 0.65816)
(-0.0386372 0.0240456 0.616372)
(0.0150347 -0.072095 0.490705)
(0.0112686 -0.0164587 0.354613)
(0.0126116 0.0642969 0.295051)
(0.128415 0.101112 0.528842)
(0.12501 0.0555468 0.499983)
(0.101276 -0.000529076 0.476943)
(0.0272124 -0.0617956 0.31753)
(0.0627386 -0.000171758 0.408219)
(0.0693006 0.0230184 0.426383)
(0.0171468 0.0146978 0.361758)
(-0.00541504 -0.00332434 0.296755)
(-0.00147227 0.00724781 0.124201)
(-0.0510344 0.0311253 0.354306)
(-0.0887933 -0.00423442 0.297289)
(-0.0614279 -0.0749825 0.187408)
(0.0999761 -0.051146 0.158096)
(0.138047 -0.0365898 0.512021)
(0.104742 0.0162001 0.5668)
(0.0601395 0.060376 0.424229)
(0.0428739 -0.053529 0.230429)
(0.00643602 -0.0440648 0.552567)
(-0.0590562 0.0158598 0.551996)
(0.0807312 0.109887 0.616125)
(0.0678011 0.0583136 0.592311)
(0.0585237 -0.0550448 0.512797)
(0.0248827 -0.00984792 0.397477)
(0.0339322 0.0354599 0.283609)
(0.153339 0.0940308 0.532655)
(0.143395 0.0631791 0.525756)
(0.1233 0.0174585 0.490205)
(0.0134311 -0.0303966 0.33444)
(0.000325427 -0.00759838 0.436859)
(0.0440301 0.0323753 0.469642)
(0.00488486 0.0288468 0.414773)
(0.00922422 -0.00217384 0.283277)
(-0.00213503 0.00606575 0.135544)
(-0.0592186 0.00952426 0.370458)
(-0.107935 0.00659251 0.333258)
(-0.0620672 -0.0626916 0.225131)
(0.0796915 -0.0141974 0.181246)
(0.153825 -0.0454694 0.496404)
(0.103311 0.0154071 0.562073)
(-0.0120533 -0.0389398 0.407639)
(0.0341531 -0.0636851 0.239302)
(0.0145403 0.0736558 0.543987)
(-0.0106954 0.0320074 0.484814)
(0.168762 0.0604611 0.542035)
(0.130698 0.0642509 0.591222)
(0.113479 0.0033361 0.549504)
(0.0325257 -0.0142483 0.446572)
(0.0554777 0.0062813 0.299308)
(0.155697 0.0671868 0.528582)
(0.137686 0.052334 0.56627)
(0.1198 0.0199603 0.520752)
(2.21872e-05 0.012694 0.367912)
(-0.0538814 -0.0295408 0.449995)
(-0.0077472 0.027143 0.503368)
(-0.0224807 0.040713 0.47105)
(0.022976 -0.0010366 0.275018)
(0.000249911 0.000940451 0.148648)
(-0.0439986 -0.0135439 0.36162)
(-0.103579 0.000494207 0.368499)
(-0.0438896 -0.0150018 0.264044)
(0.047266 0.0190044 0.205636)
(0.148385 -0.0403636 0.488212)
(0.0916589 0.0111419 0.567173)
(-0.0704493 -0.0921277 0.37739)
(0.0101873 -0.0613175 0.228965)
(0.00854266 0.0281548 0.497357)
(0.128055 0.00548579 0.361279)
(0.17218 -0.0124891 0.504792)
(0.140686 0.0651302 0.602258)
(0.108684 0.06613 0.575418)
(0.0292915 -0.0181102 0.473195)
(0.0441371 -0.0285037 0.330347)
(0.0962336 0.0112562 0.513004)
(0.10614 0.0397739 0.606011)
(0.0912066 0.0163857 0.565486)
(-0.0148018 0.0386994 0.422338)
(-0.0969011 -0.0492173 0.444019)
(-0.0583452 0.0255989 0.526796)
(-0.0676328 0.0576111 0.50152)
(0.0281401 -0.00126772 0.279079)
(0.0052563 -0.00901895 0.166649)
(-0.0430153 -0.0130942 0.318211)
(-0.0618234 -0.022214 0.406403)
(-0.00387179 0.0235859 0.273151)
(0.0272837 0.0230271 0.222608)
(0.127924 -0.0229266 0.48235)
(0.0422457 -0.00486709 0.588005)
(-0.0873108 -0.090355 0.357252)
(-0.00698082 -0.0454563 0.216272)
(0.0123192 -0.0170605 0.274935)
(0.0918669 0.00191732 0.327673)
(0.134337 -0.055153 0.483501)
(0.130139 0.0670754 0.614962)
(0.0404388 0.0993098 0.583564)
(0.0170073 -0.029016 0.461612)
(0.0142283 -0.0557211 0.348715)
(-0.0081266 -0.0430879 0.480866)
(0.0516761 0.0405246 0.626912)
(0.0433149 0.0475586 0.598918)
(-0.0269035 0.0507458 0.45724)
(-0.130375 -0.0563884 0.424327)
(-0.103373 0.0335485 0.538962)
(-0.113782 0.0795278 0.518957)
(0.0129692 -0.00612974 0.314873)
(0.0130078 -0.0203131 0.188375)
(-0.0516069 0.00943667 0.280434)
(0.00473089 -0.0464653 0.4411)
(0.0367875 0.0349583 0.262285)
(0.0190941 0.00656529 0.222565)
(0.0694402 0.0197812 0.479071)
(-0.0280595 -0.0153647 0.602472)
(-0.0781931 -0.0568779 0.337562)
(-0.0138 -0.0177011 0.213469)
(0.00114017 0.018614 0.20834)
(0.0126996 0.0380021 0.328207)
(0.0873703 -0.0562556 0.476245)
(0.0883216 0.0674748 0.636444)
(-0.0421979 0.0854295 0.568175)
(-0.0122334 -0.0301418 0.413922)
(-0.00684593 -0.0594672 0.358198)
(-0.0687472 -0.059273 0.463602)
(-0.0145681 0.0486425 0.63129)
(-0.0340357 0.098153 0.617962)
(-0.028863 0.0523233 0.44713)
(-0.145508 -0.0569532 0.413271)
(-0.13815 0.0461634 0.545747)
(-0.137379 0.0957276 0.549685)
(-0.00302471 -0.00470565 0.352517)
(0.0169109 -0.02512 0.210717)
(-0.0449923 0.026758 0.287887)
(0.0240732 -0.0462766 0.416538)
(0.0528024 0.0373571 0.262768)
(0.0249649 -0.0161166 0.20086)
(0.00458806 0.0588697 0.473649)
(-0.0436631 -0.0120135 0.597753)
(-0.0649037 -0.0228625 0.324892)
(-0.00777649 0.0185797 0.213303)
(-0.0020225 0.0179203 0.223626)
(-0.0277536 0.0684754 0.349915)
(0.0373453 -0.0313712 0.494704)
(0.0102139 0.0611618 0.658355)
(-0.0755949 0.053842 0.535882)
(-0.0369098 -0.00634322 0.347909)
(-0.0197746 -0.0468223 0.378821)
(-0.0935022 -0.0633251 0.468372)
(-0.0601128 0.0480284 0.631525)
(-0.084178 0.11839 0.61497)
(-0.0304408 0.0397415 0.380485)
(-0.14662 -0.0530864 0.414747)
(-0.144359 0.0471969 0.553658)
(-0.135767 0.0945121 0.58046)
(0.000322587 0.000901338 0.349261)
(0.00380068 -0.012191 0.234834)
(-0.0331888 0.0144451 0.304717)
(0.00490829 0.00529437 0.364476)
(0.0410689 0.0271682 0.271595)
(0.0193202 -0.00686292 0.173823)
(-0.0367781 0.0808553 0.461914)
(-0.035695 -0.00833044 0.594197)
(-0.0542831 -0.0119363 0.314038)
(0.00316467 0.049123 0.206674)
(-0.00503511 -0.00834572 0.277084)
(-0.0462837 0.0867176 0.384834)
(0.00118819 0.000266827 0.53038)
(-0.0325502 0.0546751 0.669308)
(-0.0672153 0.0416882 0.495866)
(-0.0426496 0.0178257 0.27115)
(-0.0323255 -0.0251002 0.409699)
(-0.0936344 -0.0623922 0.484895)
(-0.0762791 0.0337576 0.628676)
(-0.091773 0.110536 0.584839)
(-0.0311099 0.0461798 0.339453)
(-0.129449 -0.0507497 0.427695)
(-0.137651 0.0418732 0.556903)
(-0.122876 0.0839223 0.592615)
(0.0283878 0.00745528 0.298272)
(-0.0138675 -0.00501095 0.253991)
(-0.0266392 -0.00992152 0.31712)
(-0.0226549 0.0184994 0.335269)
(0.029975 0.0157946 0.28111)
(0.0125396 0.0124284 0.160892)
(-0.0560267 0.0868059 0.438997)
(0.0033099 0.014629 0.586519)
(-0.0320398 -0.0148976 0.302192)
(0.0123745 0.0658229 0.196438)
(-0.00908373 -0.0423679 0.332856)
(-0.0452095 0.0808453 0.415627)
(-0.0148314 0.0298799 0.567227)
(-0.0390912 0.0521859 0.675638)
(-0.041494 0.0524134 0.462582)
(-0.0388289 0.0377126 0.216497)
(-0.0448003 -0.0051317 0.448844)
(-0.0744111 -0.0397203 0.517818)
(-0.0735796 0.0170964 0.630606)
(-0.0603682 0.0904171 0.541586)
(-0.0246408 0.0461696 0.329633)
(-0.0812787 -0.0429909 0.446569)
(-0.117311 0.00860064 0.554683)
(-0.105133 0.0652932 0.600719)
(0.0465533 0.00589568 0.279473)
(-0.0229216 -0.00716589 0.265578)
(-0.0166254 -0.032081 0.334091)
(-0.0433765 0.00745555 0.323036)
(0.0325553 0.0187815 0.283687)
(0.0185017 0.0185123 0.160138)
(-0.0536446 0.0717238 0.412675)
(0.0372015 0.0412894 0.546012)
(-0.0108788 -0.0214362 0.294562)
(0.0174203 0.0686787 0.191784)
(-0.00985149 -0.068717 0.378587)
(-0.0428607 0.0635256 0.436727)
(-0.0272304 0.0548518 0.586034)
(-0.0332681 0.0515708 0.680849)
(-0.0137482 0.0611286 0.44683)
(-0.0358882 0.0424702 0.189677)
(-0.0532766 0.00326656 0.489408)
(-0.04971 0.00324392 0.550694)
(-0.0607133 0.0119344 0.63913)
(-0.0192084 0.0434567 0.528902)
(-0.00761914 0.0298556 0.344069)
(-0.0418333 -0.0143766 0.463971)
(-0.0610757 -0.00997784 0.548203)
(-0.0378777 0.0103513 0.572343)
(0.060833 0.00602419 0.282476)
(-0.0259779 -0.00665466 0.277233)
(0.0106281 -0.0578046 0.345574)
(-0.0426262 0.00443222 0.330166)
(0.0382521 0.0295463 0.285086)
(0.0354085 0.00172143 0.163906)
(-0.0317283 0.037165 0.391598)
(0.0221955 0.0332925 0.488006)
(-0.00390978 -0.029542 0.287151)
(0.0187271 0.0660032 0.192922)
(-0.0065745 -0.0904912 0.396648)
(-0.0416918 0.0294069 0.457359)
(-0.0440958 0.0741826 0.575327)
(-0.0143788 0.062396 0.682562)
(0.0105807 0.0469722 0.448162)
(-0.035666 0.0329296 0.184476)
(-0.0578539 0.001547 0.523639)
(-0.0346872 0.0377615 0.564941)
(-0.0375587 0.0259882 0.642984)
(0.0073575 0.0242192 0.544845)
(0.0144609 -0.00250882 0.385298)
(-0.0218076 0.0125877 0.488119)
(-0.0144518 0.00212419 0.54463)
(0.0309671 -0.0153289 0.522859)
(0.0727997 0.00523237 0.293465)
(-0.0256464 -0.00529456 0.296199)
(0.031024 -0.0721409 0.353401)
(-0.00697746 -0.00345852 0.350624)
(0.0389495 0.0328813 0.289374)
(0.0487884 -0.0286584 0.167164)
(0.0049343 -0.00895251 0.377967)
(-0.0145005 0.0111477 0.440569)
(-0.00874177 -0.0367354 0.283159)
(0.0174828 0.0615861 0.197362)
(-0.00459379 -0.113599 0.365323)
(0.00613104 -0.0268459 0.488788)
(-0.0597642 0.0864658 0.535768)
(-0.00804506 0.0886989 0.661896)
(0.0304605 0.00400169 0.449789)
(-0.0376461 0.0139427 0.196956)
(-0.0560695 -1.2733e-05 0.547847)
(-0.0237614 0.0569533 0.569304)
(0.00566143 0.0603799 0.63595)
(0.0321079 0.0362917 0.57203)
(0.0309086 -0.0273243 0.436018)
(-0.0158533 0.0217463 0.519578)
(0.00931688 0.0272245 0.553129)
(0.0613294 -0.0167394 0.510998)
(0.0768936 0.00412532 0.310586)
(-0.0286866 -0.000313809 0.323571)
(0.0352761 -0.0759854 0.365368)
(0.0240856 -0.0213644 0.369228)
(0.0386048 0.0300124 0.300947)
(0.0543796 -0.0513948 0.170514)
(0.0386133 -0.0522505 0.374801)
(-0.0416152 -0.00684123 0.413743)
(-0.0163942 -0.0447164 0.283044)
(0.0158713 0.0563368 0.204883)
(-0.0117886 -0.129856 0.319577)
(0.0604225 -0.0830754 0.460358)
(-0.0525271 0.0801409 0.505514)
(-0.0243943 0.112627 0.600223)
(0.0347659 -0.0416039 0.441503)
(-0.0400521 -0.00704108 0.21902)
(-0.0552748 -0.0166749 0.564165)
(-0.0176413 0.0593248 0.571929)
(0.0333556 0.0718532 0.632108)
(0.0585112 0.0435572 0.593411)
(0.0427263 -0.0456446 0.486355)
(-0.013888 0.0177554 0.550595)
(0.0181608 0.0448744 0.579295)
(0.0718904 -0.0167466 0.538039)
(0.0726733 0.00295883 0.330625)
(-0.0410335 0.020451 0.343813)
(0.0214784 -0.0687486 0.384811)
(0.0275951 -0.0366959 0.381581)
(0.0361192 0.0256104 0.316485)
(0.056196 -0.0505368 0.178033)
(0.0503826 -0.0809347 0.384299)
(-0.0469749 -0.0258231 0.398173)
(-0.0198535 -0.057534 0.291255)
(0.0142581 0.047656 0.217486)
(-0.0119792 -0.110131 0.313662)
(0.0605039 -0.1061 0.370417)
(-0.014885 0.0468509 0.498592)
(-0.0154638 0.0848608 0.553911)
(0.0292563 -0.0719552 0.427391)
(-0.0385321 -0.0275342 0.243826)
(-0.0247423 -0.0255598 0.573015)
(-0.00893544 0.0539446 0.573004)
(0.0412779 0.0657341 0.630958)
(0.0688543 0.037955 0.600612)
(0.0508962 -0.0606015 0.527868)
(-0.00892659 0.00458804 0.575321)
(0.0230073 0.0447837 0.605744)
(0.0753973 -0.0207818 0.581046)
(0.0650472 0.00221189 0.351611)
(-0.0609541 0.045922 0.355764)
(-0.00358546 -0.0689027 0.404322)
(0.00937277 -0.0396525 0.391265)
(0.0309967 0.0223518 0.330127)
(0.058518 -0.0245268 0.194054)
(0.0457437 -0.0972219 0.398225)
(-0.0309544 -0.0486677 0.398291)
(-0.0181076 -0.0740802 0.309103)
(0.0145822 0.0371464 0.235099)
(-0.00819773 -0.0636777 0.323519)
(0.0397495 -0.0678511 0.317178)
(0.0514483 -0.0126579 0.491179)
(0.0185368 0.0190675 0.519928)
(0.0254918 -0.0886923 0.416911)
(-0.0315851 -0.0436798 0.269779)
(0.0141216 -0.0187071 0.512684)
(0.0196313 0.0456318 0.575178)
(0.0435222 0.055792 0.619823)
(0.0707372 0.0282741 0.595854)
(0.0534757 -0.077048 0.552247)
(-0.00118406 -0.00418556 0.586322)
(0.0251797 0.0334981 0.621913)
(0.0745891 -0.025551 0.619778)
(0.0551652 0.00139118 0.369632)
(-0.0752328 0.0620356 0.371464)
(-0.0287961 -0.0730263 0.424451)
(-0.00610917 -0.0395102 0.404495)
(0.0244753 0.0191775 0.341373)
(0.0590373 0.0147862 0.208702)
(0.0362244 -0.101712 0.408072)
(-0.00768244 -0.0690035 0.409153)
(-0.0154388 -0.0872635 0.332978)
(0.0174635 0.030424 0.255964)
(-0.000457849 -0.0258608 0.313389)
(0.0382694 -0.021898 0.282725)
(0.0822328 -0.0455933 0.463587)
(0.0450978 -0.02998 0.496802)
(0.0227796 -0.0978607 0.413816)
(-0.0221809 -0.0489942 0.29975)
(0.0162435 0.00969975 0.43202)
(0.0557294 0.0329399 0.576673)
(0.0426911 0.0465997 0.600109)