/*--------------------------------*- C++ -*----------------------------------*\
| =========                 |                                                 |
| \\      /  F ield         | OpenFOAM: The Open Source CFD Toolbox           |
|  \\    /   O peration     | Version:  5.x                                   |
|   \\  /    A nd           | Web:      www.OpenFOAM.org                      |
|    \\/     M anipulation  |                                                 |
\*---------------------------------------------------------------------------*/
FoamFile
{
    version     2.0;
    format      ascii;
    class       volVectorField;
    location    "0.55";
    object      Us;
}
// * * * * * * * * * * * * * * * * * * * * * * * * * * * * * * * * * * * * * //

dimensions      [0 1 -1 0 0 0 0];

internalField   nonuniform List<vector> 
10571
(
(0.00697104 0.0204975 -0.0965114)
(0.0113509 -0.00944657 -0.0128958)
(0.097424 -0.0755059 0.0300637)
(0.0869177 0.0582454 0.0338475)
(0.0241241 0.094567 -0.013802)
(-0.0402598 0.0551845 -0.0232894)
(0.0625953 -0.0152217 -0.134944)
(0.180384 0.00483025 -0.00701495)
(0.081088 0.103103 0.0973904)
(0.00665401 0.0127092 0.0147072)
(0.00469366 -0.000523444 -0.0892526)
(0.0276656 0.067932 0.0301536)
(0.0714801 0.158455 -0.0660812)
(0.127865 0.133639 0.0310443)
(0.00933578 0.0282118 -0.0534482)
(0.00640751 -0.0343876 -0.0121269)
(0.109325 0.056928 -0.0442456)
(0.166476 0.102697 0.129047)
(0.100871 0.0517598 0.0946475)
(-0.0558621 0.0376957 0.024335)
(-0.0347663 0.0387687 -0.0272041)
(0.0518997 0.0241758 0.0389694)
(0.00858157 0.00350541 0.00507666)
(-0.0109412 0.000398357 -0.013037)
(-0.0577905 0.0186555 -0.24115)
(0.0197044 -0.00944332 -0.106402)
(0.125061 -0.0888854 -0.0291724)
(0.113883 -0.0193459 -0.016245)
(-0.054546 -0.0930771 -0.389704)
(-0.115145 0.0745307 -0.0882077)
(-0.00210684 -0.0446412 -0.284791)
(-0.0363084 -0.0685643 -0.343985)
(-0.0352272 -0.0214644 -0.328939)
(-0.00792213 -0.065623 -0.375367)
(0.0103674 -0.0577613 -0.214164)
(-0.0607655 0.0389639 -0.00949462)
(-0.0197716 0.0345115 -0.244982)
(-0.0594243 -0.0509128 -0.437339)
(-0.0442043 -0.021888 -0.464779)
(-0.0250505 0.0216358 -0.453062)
(-0.02138 0.0145596 -0.306166)
(0.00286497 0.0764216 -0.116104)
(-0.0712498 0.0573348 -0.351193)
(-0.0185408 0.00200235 -0.408039)
(-0.00475705 -0.0166616 -0.425802)
(-0.0883506 0.0049587 -0.335159)
(-0.0623576 0.0241669 -0.391127)
(-0.0247046 0.0113131 -0.429958)
(-0.122739 -0.0197097 -0.326277)
(0.0050345 0.000519175 -0.208509)
(-0.0288515 -0.02753 -0.254643)
(-0.121667 -0.154744 -0.224058)
(-0.0675716 -0.058108 -0.351665)
(-0.099461 0.0261542 -0.27846)
(-0.0548258 -0.0697529 -0.351697)
(-0.0812057 -0.0521861 -0.388689)
(-0.0532809 0.0127422 -0.366437)
(-0.0085541 -0.0342036 -0.304149)
(-0.0145162 -0.0693331 -0.310436)
(-0.0713598 -0.103357 -0.356736)
(-0.0663151 -0.0902259 -0.362985)
(-0.0400316 -0.101395 -0.403685)
(-0.015295 -0.0440087 -0.422182)
(-0.0107219 -0.0343848 -0.422411)
(-0.063651 -0.0729114 -0.363674)
(-0.0978513 -0.00453931 -0.219224)
(-0.0695033 -0.0254422 -0.255769)
(-0.0290588 -0.038465 -0.350765)
(0.0269781 -0.0768457 -0.372206)
(-0.0878544 -0.0062805 -0.238584)
(-0.0726659 0.00541411 -0.297285)
(-0.021401 0.00818086 -0.343257)
(-0.112305 -0.0140912 -0.300301)
(-0.0316793 0.0272988 -0.26501)
(-0.194245 -0.0311516 -0.162423)
(-0.184868 -0.107424 -0.180755)
(-0.0679151 -0.0431245 -0.299882)
(-0.0595009 -0.0345962 -0.261345)
(-0.079687 -0.0386884 -0.335028)
(-0.0745175 0.0119422 -0.359961)
(-0.0480311 0.0597064 -0.340547)
(-0.00639726 0.109436 -0.190676)
(-0.0054509 -0.0432336 -0.234136)
(-0.0752747 -0.140371 -0.325807)
(-0.0544026 -0.143544 -0.332728)
(-0.0167774 -0.115175 -0.36775)
(0.0135093 -0.102254 -0.333974)
(0.00174666 -0.0863079 -0.367541)
(-0.0601384 -0.102772 -0.319876)
(-0.0934131 -0.0713211 -0.174772)
(-0.0104998 -0.133035 -0.279236)
(-0.0172378 -0.107161 -0.279759)
(0.0464974 -0.109158 -0.311764)
(-0.112136 -0.0110935 -0.146352)
(-0.0816638 -0.0113022 -0.2372)
(-0.000496041 -0.0104112 -0.261221)
(-0.0734851 -0.00500008 -0.293143)
(-0.0402793 0.0378405 -0.210377)
(-0.245441 -0.0111241 -0.0440108)
(-0.208514 -0.0322831 -0.116422)
(0.00397187 -0.0083516 -0.283396)
(-0.0765663 -0.0112492 -0.207987)
(-0.060361 0.0466729 -0.258034)
(-0.0733122 0.0753173 -0.278125)
(-0.019497 0.046137 -0.262144)
(0.00884383 0.0417208 -0.246741)
(-0.00797548 -0.0259355 -0.23336)
(-0.000867125 -0.0541543 -0.239782)
(-0.0261582 -0.140165 -0.235211)
(0.0118607 -0.0880899 -0.318491)
(0.0309181 -0.0867648 -0.298877)
(-0.0892421 -0.0176094 -0.297066)
(-0.089857 -0.135084 -0.23615)
(-0.0535945 -0.146652 -0.143017)
(0.024382 -0.0976966 -0.231948)
(0.0457985 -0.0804496 -0.287173)
(0.03763 -0.070678 -0.272342)
(-0.126232 -0.0433307 -0.0435321)
(-0.0157229 -0.0418016 -0.161832)
(0.0750679 -0.048797 -0.238832)
(-0.0747176 -0.093503 -0.272344)
(-0.0532399 0.0668573 -0.143251)
(-0.263153 0.0275469 0.0102014)
(-0.0877906 -0.00371357 -0.131244)
(0.0307879 0.00194929 -0.265053)
(-0.125631 0.0128844 -0.165676)
(-0.0800786 0.0945659 -0.176056)
(-0.0649145 0.0931916 -0.207182)
(0 0 0)
(-0.0531289 0.0202277 -0.132554)
(-0.0104842 0.00527924 -0.00391864)
(0 0 0)
(0.0363515 0.00174066 -0.18215)
(0.0925563 -0.0319099 -0.184646)
(0 0 0)
(0.0356817 0.176387 -0.27235)
(-0.0828987 -0.0289954 -0.170233)
(-0.0119215 -0.00497654 -0.00420656)
(-0.155117 -0.1678 -0.128062)
(-0.0363947 -0.13168 -0.0723539)
(0.0352337 -0.0519657 -0.150135)
(0 0 0)
(0 0 0)
(-0.0629234 -0.063042 0.0116046)
(0.0513583 -0.0120428 -0.160397)
(0 0 0)
(0 0 0)
(-0.2843 0.0221824 -0.112838)
(-0.216378 0.00666715 -0.0218391)
(-0.065759 0.0194775 -0.134373)
(0 0 0)
(-0.0514471 -0.0658037 -0.011321)
(-0.139743 0.117896 -0.113605)
(-0.0638771 0.0968362 -0.175051)
(0 0 0)
(0 0 0)
(0 0 0)
(0 0 0)
(0 0 0)
(-9.39288e-17 1.48841e-17 1.24687e-16)
(0 0 0)
(0 0 0)
(0 0 0)
(0 0 0)
(-0.168083 -0.151262 0.00289556)
(-0.0611772 -0.0921535 0.0304351)
(0 0 0)
(0 0 0)
(0 0 0)
(0 0 0)
(-0.0549146 -0.0479056 0.0848348)
(0 0 0)
(0 0 0)
(0 0 0)
(0 0 0)
(0 0 0)
(0 0 0)
(0 0 0)
(0 0 0)
(0 0 0)
(0 0 0)
(0 0 0)
(0 0 0)
(0 0 0)
(0 0 0)
(0 0 0)
(0 0 0)
(0 0 0)
(0 0 0)
(0 0 0)
(0 0 0)
(0 0 0)
(0 0 0)
(0 0 0)
(0 0 0)
(0 0 0)
(0 0 0)
(0 0 0)
(0 0 0)
(0 0 0)
(0 0 0)
(0 0 0)
(0 0 0)
(0 0 0)
(0 0 0)
(0 0 0)
(0 0 0)
(0 0 0)
(0 0 0)
(0 0 0)
(0 0 0)
(0 0 0)
(0 0 0)
(0 0 0)
(0 0 0)
(0 0 0)
(0 0 0)
(0 0 0)
(0 0 0)
(0 0 0)
(0 0 0)
(0 0 0)
(0 0 0)
(0 0 0)
(0 0 0)
(0 0 0)
(0 0 0)
(0 0 0)
(0 0 0)
(0 0 0)
(0 0 0)
(0 0 0)
(0 0 0)
(0 0 0)
(0 0 0)
(0 0 0)
(0 0 0)
(0 0 0)
(0 0 0)
(0 0 0)
(0 0 0)
(0 0 0)
(0 0 0)
(0 0 0)
(0 0 0)
(0 0 0)
(0 0 0)
(0 0 0)
(0 0 0)
(0 0 0)
(0 0 0)
(0 0 0)
(0 0 0)
(0 0 0)
(0 0 0)
(0 0 0)
(0 0 0)
(0 0 0)
(0 0 0)
(0 0 0)
(0 0 0)
(0 0 0)
(0 0 0)
(0 0 0)
(0 0 0)
(0 0 0)
(0 0 0)
(0 0 0)
(0 0 0)
(0 0 0)
(0 0 0)
(0 0 0)
(0 0 0)
(0 0 0)
(0 0 0)
(0 0 0)
(0 0 0)
(0 0 0)
(0 0 0)
(0 0 0)
(0 0 0)
(0 0 0)
(0 0 0)
(0 0 0)
(0 0 0)
(0 0 0)
(0 0 0)
(0 0 0)
(0 0 0)
(0 0 0)
(0 0 0)
(0 0 0)
(0 0 0)
(0 0 0)
(0 0 0)
(0 0 0)
(0 0 0)
(0 0 0)
(0 0 0)
(0 0 0)
(0 0 0)
(0 0 0)
(0 0 0)
(0 0 0)
(0 0 0)
(0 0 0)
(0 0 0)
(0 0 0)
(0 0 0)
(0 0 0)
(0 0 0)
(0 0 0)
(0 0 0)
(0 0 0)
(0 0 0)
(0 0 0)
(0 0 0)
(0 0 0)
(0 0 0)
(0 0 0)
(0 0 0)
(0 0 0)
(0 0 0)
(0 0 0)
(0 0 0)
(0 0 0)
(0 0 0)
(0 0 0)
(0 0 0)
(0 0 0)
(0 0 0)
(0 0 0)
(0 0 0)
(0 0 0)
(0 0 0)
(0 0 0)
(0 0 0)
(0 0 0)
(0 0 0)
(0 0 0)
(0 0 0)
(0 0 0)
(0 0 0)
(0 0 0)
(0 0 0)
(0 0 0)
(0 0 0)
(0 0 0)
(0 0 0)
(0 0 0)
(0 0 0)
(0 0 0)
(0 0 0)
(0 0 0)
(0 0 0)
(0 0 0)
(0 0 0)
(0 0 0)
(0 0 0)
(0 0 0)
(0 0 0)
(0 0 0)
(0 0 0)
(0 0 0)
(0 0 0)
(0 0 0)
(0 0 0)
(0 0 0)
(0 0 0)
(0 0 0)
(0 0 0)
(0 0 0)
(0 0 0)
(0 0 0)
(0 0 0)
(0 0 0)
(0 0 0)
(0 0 0)
(0 0 0)
(0 0 0)
(0 0 0)
(0 0 0)
(0 0 0)
(0 0 0)
(0 0 0)
(0 0 0)
(0 0 0)
(0 0 0)
(0 0 0)
(0 0 0)
(0 0 0)
(0 0 0)
(0 0 0)
(0 0 0)
(0 0 0)
(0 0 0)
(0 0 0)
(0 0 0)
(0 0 0)
(0 0 0)
(0 0 0)
(0 0 0)
(0 0 0)
(0 0 0)
(0 0 0)
(0 0 0)
(0 0 0)
(0 0 0)
(0 0 0)
(0 0 0)
(0 0 0)
(0 0 0)
(0 0 0)
(0 0 0)
(0 0 0)
(0 0 0)
(0 0 0)
(0 0 0)
(0 0 0)
(0 0 0)
(0 0 0)
(0 0 0)
(0 0 0)
(0 0 0)
(0 0 0)
(0 0 0)
(0 0 0)
(0 0 0)
(0 0 0)
(0 0 0)
(0 0 0)
(0 0 0)
(0 0 0)
(0 0 0)
(0 0 0)
(0 0 0)
(0 0 0)
(0 0 0)
(0 0 0)
(0 0 0)
(0 0 0)
(0 0 0)
(0 0 0)
(0 0 0)
(0 0 0)
(0 0 0)
(0 0 0)
(0 0 0)
(0 0 0)
(0 0 0)
(0 0 0)
(0 0 0)
(0 0 0)
(0 0 0)
(0 0 0)
(0 0 0)
(0 0 0)
(0 0 0)
(0 0 0)
(0 0 0)
(0 0 0)
(0 0 0)
(0 0 0)
(0 0 0)
(0 0 0)
(0 0 0)
(0 0 0)
(0 0 0)
(0 0 0)
(0 0 0)
(0 0 0)
(0 0 0)
(0 0 0)
(0 0 0)
(0 0 0)
(0 0 0)
(0 0 0)
(0 0 0)
(0 0 0)
(0 0 0)
(0 0 0)
(0 0 0)
(0 0 0)
(0 0 0)
(0 0 0)
(0 0 0)
(0 0 0)
(0 0 0)
(0 0 0)
(0 0 0)
(0 0 0)
(0 0 0)
(0 0 0)
(0 0 0)
(0 0 0)
(0 0 0)
(0 0 0)
(0 0 0)
(0 0 0)
(0 0 0)
(0 0 0)
(0 0 0)
(0 0 0)
(0 0 0)
(0 0 0)
(0 0 0)
(0 0 0)
(0 0 0)
(0 0 0)
(0 0 0)
(0 0 0)
(0 0 0)
(0 0 0)
(0 0 0)
(0 0 0)
(0 0 0)
(0 0 0)
(0 0 0)
(0 0 0)
(0 0 0)
(0 0 0)
(0 0 0)
(0 0 0)
(0 0 0)
(0 0 0)
(0 0 0)
(0 0 0)
(0 0 0)
(0 0 0)
(0 0 0)
(0 0 0)
(0 0 0)
(0 0 0)
(0 0 0)
(0 0 0)
(0 0 0)
(0 0 0)
(0 0 0)
(0 0 0)
(0 0 0)
(0 0 0)
(0 0 0)
(0 0 0)
(0 0 0)
(0 0 0)
(0 0 0)
(0 0 0)
(0 0 0)
(0 0 0)
(0 0 0)
(0 0 0)
(0 0 0)
(0 0 0)
(0 0 0)
(0 0 0)
(0 0 0)
(0 0 0)
(0 0 0)
(0 0 0)
(0 0 0)
(0 0 0)
(0 0 0)
(0 0 0)
(0 0 0)
(0 0 0)
(0 0 0)
(0 0 0)
(0 0 0)
(0 0 0)
(0 0 0)
(0 0 0)
(0 0 0)
(0 0 0)
(0 0 0)
(0 0 0)
(0 0 0)
(0 0 0)
(0 0 0)
(0 0 0)
(0 0 0)
(0 0 0)
(0 0 0)
(0 0 0)
(0 0 0)
(0 0 0)
(0 0 0)
(0 0 0)
(0 0 0)
(0 0 0)
(0 0 0)
(0 0 0)
(0 0 0)
(0 0 0)
(0 0 0)
(0 0 0)
(0 0 0)
(0 0 0)
(0 0 0)
(0 0 0)
(0 0 0)
(0 0 0)
(0 0 0)
(0 0 0)
(0 0 0)
(0 0 0)
(0 0 0)
(0 0 0)
(0 0 0)
(0 0 0)
(0 0 0)
(0 0 0)
(0 0 0)
(0 0 0)
(0 0 0)
(0 0 0)
(0 0 0)
(0 0 0)
(0 0 0)
(0 0 0)
(0 0 0)
(0 0 0)
(0 0 0)
(0 0 0)
(0 0 0)
(0 0 0)
(0 0 0)
(0 0 0)
(0 0 0)
(0 0 0)
(0 0 0)
(0 0 0)
(0 0 0)
(0 0 0)
(0 0 0)
(0 0 0)
(0 0 0)
(0 0 0)
(0 0 0)
(0 0 0)
(0 0 0)
(0 0 0)
(0 0 0)
(0 0 0)
(0 0 0)
(0 0 0)
(0 0 0)
(0 0 0)
(0 0 0)
(0 0 0)
(0 0 0)
(0 0 0)
(0 0 0)
(0 0 0)
(0 0 0)
(0 0 0)
(0 0 0)
(0 0 0)
(0 0 0)
(0 0 0)
(0 0 0)
(0 0 0)
(0 0 0)
(0 0 0)
(0 0 0)
(0 0 0)
(0 0 0)
(0 0 0)
(0 0 0)
(0 0 0)
(0 0 0)
(0 0 0)
(0 0 0)
(0 0 0)
(0 0 0)
(0 0 0)
(0 0 0)
(0 0 0)
(0 0 0)
(0 0 0)
(0 0 0)
(0 0 0)
(0 0 0)
(0 0 0)
(0 0 0)
(0 0 0)
(0 0 0)
(0 0 0)
(0 0 0)
(0 0 0)
(0 0 0)
(0 0 0)
(0 0 0)
(0 0 0)
(0 0 0)
(0 0 0)
(0 0 0)
(0 0 0)
(0 0 0)
(0 0 0)
(0 0 0)
(0 0 0)
(0 0 0)
(0 0 0)
(0 0 0)
(0 0 0)
(0 0 0)
(0 0 0)
(0 0 0)
(0 0 0)
(0 0 0)
(0 0 0)
(0 0 0)
(0 0 0)
(0 0 0)
(0 0 0)
(0 0 0)
(0 0 0)
(0 0 0)
(0 0 0)
(0 0 0)
(0 0 0)
(0 0 0)
(0 0 0)
(0 0 0)
(0 0 0)
(0 0 0)
(0 0 0)
(0 0 0)
(0 0 0)
(0 0 0)
(0 0 0)
(0 0 0)
(0 0 0)
(0 0 0)
(0 0 0)
(0 0 0)
(0 0 0)
(0 0 0)
(0 0 0)
(0 0 0)
(0 0 0)
(0 0 0)
(0 0 0)
(0 0 0)
(0 0 0)
(0 0 0)
(0 0 0)
(0 0 0)
(0 0 0)
(0 0 0)
(0 0 0)
(0 0 0)
(0 0 0)
(0 0 0)
(0 0 0)
(0 0 0)
(0 0 0)
(0 0 0)
(0 0 0)
(0 0 0)
(0 0 0)
(0 0 0)
(0 0 0)
(0 0 0)
(0 0 0)
(0 0 0)
(0 0 0)
(0 0 0)
(0 0 0)
(0 0 0)
(0 0 0)
(0 0 0)
(0 0 0)
(0 0 0)
(0 0 0)
(0 0 0)
(0 0 0)
(0 0 0)
(0 0 0)
(0 0 0)
(0 0 0)
(0 0 0)
(0 0 0)
(0 0 0)
(0 0 0)
(0 0 0)
(0 0 0)
(0 0 0)
(0 0 0)
(0 0 0)
(0 0 0)
(0 0 0)
(0 0 0)
(0 0 0)
(0 0 0)
(0 0 0)
(0 0 0)
(0 0 0)
(0 0 0)
(0 0 0)
(0 0 0)
(0 0 0)
(0 0 0)
(0 0 0)
(0 0 0)
(0 0 0)
(0 0 0)
(0 0 0)
(0 0 0)
(0 0 0)
(0 0 0)
(0 0 0)
(0 0 0)
(0 0 0)
(0 0 0)
(0 0 0)
(0 0 0)
(0 0 0)
(0 0 0)
(0 0 0)
(0 0 0)
(0 0 0)
(0 0 0)
(0 0 0)
(0 0 0)
(0 0 0)
(0 0 0)
(0 0 0)
(0 0 0)
(0 0 0)
(0 0 0)
(0 0 0)
(0 0 0)
(0 0 0)
(0 0 0)
(0 0 0)
(0 0 0)
(0 0 0)
(0 0 0)
(0 0 0)
(0 0 0)
(0 0 0)
(0 0 0)
(0 0 0)
(0 0 0)
(0 0 0)
(0 0 0)
(0 0 0)
(0 0 0)
(0 0 0)
(0 0 0)
(0 0 0)
(0 0 0)
(0 0 0)
(0 0 0)
(0 0 0)
(0 0 0)
(0 0 0)
(0 0 0)
(0 0 0)
(0 0 0)
(0 0 0)
(0 0 0)
(0 0 0)
(0 0 0)
(0 0 0)
(0 0 0)
(0 0 0)
(0 0 0)
(0 0 0)
(0 0 0)
(0 0 0)
(0 0 0)
(0 0 0)
(0 0 0)
(0 0 0)
(0 0 0)
(0 0 0)
(0 0 0)
(0 0 0)
(0 0 0)
(0 0 0)
(0 0 0)
(0 0 0)
(0 0 0)
(0 0 0)
(0 0 0)
(0 0 0)
(0 0 0)
(0 0 0)
(0 0 0)
(0 0 0)
(0 0 0)
(0 0 0)
(0 0 0)
(0 0 0)
(0 0 0)
(0 0 0)
(0 0 0)
(0 0 0)
(0 0 0)
(0 0 0)
(0 0 0)
(0 0 0)
(0 0 0)
(0 0 0)
(0 0 0)
(0 0 0)
(0 0 0)
(0 0 0)
(0 0 0)
(0 0 0)
(0 0 0)
(0 0 0)
(0 0 0)
(0 0 0)
(0 0 0)
(0 0 0)
(0 0 0)
(0 0 0)
(0 0 0)
(0 0 0)
(0 0 0)
(0 0 0)
(0 0 0)
(0 0 0)
(0 0 0)
(0 0 0)
(0 0 0)
(0 0 0)
(0 0 0)
(0 0 0)
(0 0 0)
(0 0 0)
(0 0 0)
(0 0 0)
(0 0 0)
(0 0 0)
(0 0 0)
(0 0 0)
(0 0 0)
(0 0 0)
(0 0 0)
(0 0 0)
(0 0 0)
(0 0 0)
(0 0 0)
(0 0 0)
(0 0 0)
(0 0 0)
(0 0 0)
(0 0 0)
(0 0 0)
(0 0 0)
(0 0 0)
(0 0 0)
(0 0 0)
(0 0 0)
(0 0 0)
(0 0 0)
(0 0 0)
(0 0 0)
(0 0 0)
(0 0 0)
(0 0 0)
(0 0 0)
(0 0 0)
(0 0 0)
(0 0 0)
(0 0 0)
(0 0 0)
(0 0 0)
(0 0 0)
(0 0 0)
(0 0 0)
(0 0 0)
(0 0 0)
(0 0 0)
(0 0 0)
(0 0 0)
(0 0 0)
(0 0 0)
(0 0 0)
(0 0 0)
(0 0 0)
(0 0 0)
(0 0 0)
(0 0 0)
(0 0 0)
(0 0 0)
(0 0 0)
(0 0 0)
(0 0 0)
(0 0 0)
(0 0 0)
(0 0 0)
(0 0 0)
(0 0 0)
(0 0 0)
(0 0 0)
(0 0 0)
(0 0 0)
(0 0 0)
(0 0 0)
(0 0 0)
(0 0 0)
(0 0 0)
(0 0 0)
(0 0 0)
(0 0 0)
(0 0 0)
(0 0 0)
(0 0 0)
(0 0 0)
(0 0 0)
(0 0 0)
(0 0 0)
(0 0 0)
(0 0 0)
(0 0 0)
(0 0 0)
(0 0 0)
(0 0 0)
(0 0 0)
(0 0 0)
(0 0 0)
(0 0 0)
(0 0 0)
(0 0 0)
(0 0 0)
(0 0 0)
(0 0 0)
(0 0 0)
(0 0 0)
(0 0 0)
(0 0 0)
(0 0 0)
(0 0 0)
(0 0 0)
(0 0 0)
(0 0 0)
(0 0 0)
(0 0 0)
(0 0 0)
(0 0 0)
(0 0 0)
(0 0 0)
(0 0 0)
(0 0 0)
(0 0 0)
(0 0 0)
(0 0 0)
(0 0 0)
(0 0 0)
(0 0 0)
(0 0 0)
(0 0 0)
(0 0 0)
(0 0 0)
(0 0 0)
(0 0 0)
(0 0 0)
(0 0 0)
(0 0 0)
(0 0 0)
(0 0 0)
(0 0 0)
(0 0 0)
(0 0 0)
(0 0 0)
(0 0 0)
(0 0 0)
(0 0 0)
(0 0 0)
(0 0 0)
(0 0 0)
(0 0 0)
(0 0 0)
(0 0 0)
(0 0 0)
(0 0 0)
(0 0 0)
(0 0 0)
(0 0 0)
(0 0 0)
(0 0 0)
(0 0 0)
(0 0 0)
(0 0 0)
(0 0 0)
(0 0 0)
(0 0 0)
(0 0 0)
(0 0 0)
(0 0 0)
(0 0 0)
(0 0 0)
(0 0 0)
(0 0 0)
(0 0 0)
(0 0 0)
(0 0 0)
(0 0 0)
(0 0 0)
(0 0 0)
(0 0 0)
(0 0 0)
(0 0 0)
(0 0 0)
(0 0 0)
(0 0 0)
(0 0 0)
(0 0 0)
(0 0 0)
(0 0 0)
(0 0 0)
(0 0 0)
(0 0 0)
(0 0 0)
(0 0 0)
(0 0 0)
(0 0 0)
(0 0 0)
(0 0 0)
(0 0 0)
(0 0 0)
(0 0 0)
(0 0 0)
(0 0 0)
(0 0 0)
(0 0 0)
(0 0 0)
(0 0 0)
(0 0 0)
(0 0 0)
(0 0 0)
(0 0 0)
(0 0 0)
(0 0 0)
(0 0 0)
(0 0 0)
(0 0 0)
(0 0 0)
(0 0 0)
(0 0 0)
(0 0 0)
(0 0 0)
(0 0 0)
(0 0 0)
(0 0 0)
(0 0 0)
(0 0 0)
(0 0 0)
(0 0 0)
(0 0 0)
(0 0 0)
(0 0 0)
(0 0 0)
(0 0 0)
(0 0 0)
(0 0 0)
(0 0 0)
(0 0 0)
(0 0 0)
(0 0 0)
(0 0 0)
(0 0 0)
(0 0 0)
(0 0 0)
(0 0 0)
(0 0 0)
(0 0 0)
(0 0 0)
(0 0 0)
(0 0 0)
(0 0 0)
(0 0 0)
(0 0 0)
(0 0 0)
(0 0 0)
(0 0 0)
(0 0 0)
(0 0 0)
(0 0 0)
(0 0 0)
(0 0 0)
(0 0 0)
(0 0 0)
(0 0 0)
(0 0 0)
(0 0 0)
(0 0 0)
(0 0 0)
(0 0 0)
(0 0 0)
(0 0 0)
(0 0 0)
(0 0 0)
(0 0 0)
(0 0 0)
(0 0 0)
(0 0 0)
(0 0 0)
(0 0 0)
(0 0 0)
(0 0 0)
(0 0 0)
(0 0 0)
(0 0 0)
(0 0 0)
(0 0 0)
(0 0 0)
(0 0 0)
(0 0 0)
(0 0 0)
(0 0 0)
(0 0 0)
(0 0 0)
(0 0 0)
(0 0 0)
(0 0 0)
(0 0 0)
(0 0 0)
(0 0 0)
(0 0 0)
(0 0 0)
(0 0 0)
(0 0 0)
(0 0 0)
(0 0 0)
(0 0 0)
(0 0 0)
(0 0 0)
(0 0 0)
(0 0 0)
(0 0 0)
(0 0 0)
(0 0 0)
(0 0 0)
(0 0 0)
(0 0 0)
(0 0 0)
(0 0 0)
(0 0 0)
(0 0 0)
(0 0 0)
(0 0 0)
(0 0 0)
(0 0 0)
(0 0 0)
(0 0 0)
(0 0 0)
(0 0 0)
(0 0 0)
(0 0 0)
(0 0 0)
(0 0 0)
(0 0 0)
(0 0 0)
(0 0 0)
(0 0 0)
(0 0 0)
(0 0 0)
(0 0 0)
(0 0 0)
(0 0 0)
(0 0 0)
(0 0 0)
(0 0 0)
(0 0 0)
(0 0 0)
(0 0 0)
(0 0 0)
(0 0 0)
(0 0 0)
(0 0 0)
(0 0 0)
(0 0 0)
(0 0 0)
(0 0 0)
(0 0 0)
(0 0 0)
(0 0 0)
(0 0 0)
(0 0 0)
(0 0 0)
(0 0 0)
(0 0 0)
(0 0 0)
(0 0 0)
(0 0 0)
(0 0 0)
(0 0 0)
(0 0 0)
(0 0 0)
(0 0 0)
(0 0 0)
(0 0 0)
(0 0 0)
(0 0 0)
(0 0 0)
(0 0 0)
(0 0 0)
(0 0 0)
(0 0 0)
(0 0 0)
(0 0 0)
(0 0 0)
(0 0 0)
(0 0 0)
(0 0 0)
(0 0 0)
(0 0 0)
(0 0 0)
(0 0 0)
(0 0 0)
(0 0 0)
(0 0 0)
(0 0 0)
(0 0 0)
(0 0 0)
(0 0 0)
(0 0 0)
(0 0 0)
(0 0 0)
(0 0 0)
(0 0 0)
(0 0 0)
(0 0 0)
(0 0 0)
(0 0 0)
(0 0 0)
(0 0 0)
(0 0 0)
(0 0 0)
(0 0 0)
(0 0 0)
(0 0 0)
(0 0 0)
(0 0 0)
(0 0 0)
(0 0 0)
(0 0 0)
(0 0 0)
(0 0 0)
(0 0 0)
(0 0 0)
(0 0 0)
(0 0 0)
(0 0 0)
(0 0 0)
(0 0 0)
(0 0 0)
(0 0 0)
(0 0 0)
(0 0 0)
(0 0 0)
(0 0 0)
(0 0 0)
(0 0 0)
(0 0 0)
(0 0 0)
(0 0 0)
(0 0 0)
(0 0 0)
(0 0 0)
(0 0 0)
(0 0 0)
(0 0 0)
(0 0 0)
(0 0 0)
(0 0 0)
(0 0 0)
(0 0 0)
(0 0 0)
(0 0 0)
(0 0 0)
(0 0 0)
(0 0 0)
(0 0 0)
(0 0 0)
(0 0 0)
(0 0 0)
(0 0 0)
(0 0 0)
(0 0 0)
(0 0 0)
(0 0 0)
(0 0 0)
(0 0 0)
(0 0 0)
(0 0 0)
(0 0 0)
(0 0 0)
(0 0 0)
(0 0 0)
(0 0 0)
(0 0 0)
(0 0 0)
(0 0 0)
(0 0 0)
(0 0 0)
(0 0 0)
(0 0 0)
(0 0 0)
(0 0 0)
(0 0 0)
(0 0 0)
(0 0 0)
(0 0 0)
(0 0 0)
(0 0 0)
(0 0 0)
(0 0 0)
(0 0 0)
(0 0 0)
(0 0 0)
(0 0 0)
(0 0 0)
(0 0 0)
(0 0 0)
(0 0 0)
(0 0 0)
(0 0 0)
(0 0 0)
(0 0 0)
(0 0 0)
(0 0 0)
(0 0 0)
(0 0 0)
(0 0 0)
(0 0 0)
(0 0 0)
(0 0 0)
(0 0 0)
(0 0 0)
(0 0 0)
(0 0 0)
(0 0 0)
(0 0 0)
(0 0 0)
(0 0 0)
(0 0 0)
(0 0 0)
(0 0 0)
(0 0 0)
(0 0 0)
(0 0 0)
(0 0 0)
(0 0 0)
(0 0 0)
(0 0 0)
(0 0 0)
(0 0 0)
(0 0 0)
(0 0 0)
(0 0 0)
(0 0 0)
(0 0 0)
(0 0 0)
(0 0 0)
(0 0 0)
(0 0 0)
(0 0 0)
(0 0 0)
(0 0 0)
(0 0 0)
(0 0 0)
(0 0 0)
(0 0 0)
(0 0 0)
(0 0 0)
(0 0 0)
(0 0 0)
(0 0 0)
(0 0 0)
(0 0 0)
(0 0 0)
(0 0 0)
(0 0 0)
(0 0 0)
(0 0 0)
(0 0 0)
(0 0 0)
(0 0 0)
(0 0 0)
(0 0 0)
(0 0 0)
(0 0 0)
(0 0 0)
(0 0 0)
(0 0 0)
(0 0 0)
(0 0 0)
(0 0 0)
(0 0 0)
(0 0 0)
(0 0 0)
(0 0 0)
(0 0 0)
(0 0 0)
(0 0 0)
(0 0 0)
(0 0 0)
(0 0 0)
(0 0 0)
(0 0 0)
(0 0 0)
(0 0 0)
(0 0 0)
(0 0 0)
(0 0 0)
(0 0 0)
(0 0 0)
(0 0 0)
(0 0 0)
(0 0 0)
(0 0 0)
(0 0 0)
(0 0 0)
(0 0 0)
(0 0 0)
(0 0 0)
(0 0 0)
(0 0 0)
(0 0 0)
(0 0 0)
(0 0 0)
(0 0 0)
(0 0 0)
(0 0 0)
(0 0 0)
(0 0 0)
(0 0 0)
(0 0 0)
(0 0 0)
(0 0 0)
(0 0 0)
(0 0 0)
(0 0 0)
(0 0 0)
(0 0 0)
(0 0 0)
(0 0 0)
(0 0 0)
(0 0 0)
(0 0 0)
(0 0 0)
(0 0 0)
(0 0 0)
(0 0 0)
(0 0 0)
(0 0 0)
(0 0 0)
(0 0 0)
(0 0 0)
(0 0 0)
(0 0 0)
(0 0 0)
(0 0 0)
(0 0 0)
(0 0 0)
(0 0 0)
(0 0 0)
(0 0 0)
(0 0 0)
(0 0 0)
(0 0 0)
(0 0 0)
(0 0 0)
(0 0 0)
(0 0 0)
(0 0 0)
(0 0 0)
(0 0 0)
(0 0 0)
(0 0 0)
(0 0 0)
(0 0 0)
(0 0 0)
(0 0 0)
(0 0 0)
(0 0 0)
(0 0 0)
(0 0 0)
(0 0 0)
(0 0 0)
(0 0 0)
(0 0 0)
(0 0 0)
(0 0 0)
(0 0 0)
(0 0 0)
(0 0 0)
(0 0 0)
(0 0 0)
(0 0 0)
(0 0 0)
(0 0 0)
(0 0 0)
(0 0 0)
(0 0 0)
(0 0 0)
(0 0 0)
(0 0 0)
(0 0 0)
(0 0 0)
(0 0 0)
(0 0 0)
(0 0 0)
(0 0 0)
(0 0 0)
(0 0 0)
(0 0 0)
(0 0 0)
(0 0 0)
(0 0 0)
(0 0 0)
(0 0 0)
(0 0 0)
(0 0 0)
(0 0 0)
(0 0 0)
(0 0 0)
(0 0 0)
(0 0 0)
(0 0 0)
(0 0 0)
(0 0 0)
(0 0 0)
(0 0 0)
(0 0 0)
(0 0 0)
(0 0 0)
(0 0 0)
(0 0 0)
(0 0 0)
(0 0 0)
(0 0 0)
(0 0 0)
(0 0 0)
(0 0 0)
(0 0 0)
(0 0 0)
(0 0 0)
(0 0 0)
(0 0 0)
(0 0 0)
(0 0 0)
(0 0 0)
(0 0 0)
(0 0 0)
(0 0 0)
(0 0 0)
(0 0 0)
(0 0 0)
(0 0 0)
(0 0 0)
(0 0 0)
(0 0 0)
(0 0 0)
(0 0 0)
(0 0 0)
(0 0 0)
(0 0 0)
(0 0 0)
(0 0 0)
(0 0 0)
(0 0 0)
(0 0 0)
(0 0 0)
(0 0 0)
(0 0 0)
(0 0 0)
(0 0 0)
(0 0 0)
(0 0 0)
(0 0 0)
(0 0 0)
(0 0 0)
(0 0 0)
(0 0 0)
(0 0 0)
(0 0 0)
(0 0 0)
(0 0 0)
(0 0 0)
(0 0 0)
(0 0 0)
(0 0 0)
(0 0 0)
(0 0 0)
(0 0 0)
(0 0 0)
(0 0 0)
(0 0 0)
(0 0 0)
(0 0 0)
(0 0 0)
(0 0 0)
(0 0 0)
(0 0 0)
(0 0 0)
(0 0 0)
(0 0 0)
(0 0 0)
(0 0 0)
(0 0 0)
(0 0 0)
(0 0 0)
(0 0 0)
(0 0 0)
(0 0 0)
(0 0 0)
(0 0 0)
(0 0 0)
(0 0 0)
(0 0 0)
(0 0 0)
(0 0 0)
(0 0 0)
(0 0 0)
(0 0 0)
(0 0 0)
(0 0 0)
(0 0 0)
(0 0 0)
(0 0 0)
(0 0 0)
(0 0 0)
(0 0 0)
(0 0 0)
(0 0 0)
(0 0 0)
(0 0 0)
(0 0 0)
(0 0 0)
(0 0 0)
(0 0 0)
(0 0 0)
(0 0 0)
(0 0 0)
(0 0 0)
(0 0 0)
(0 0 0)
(0 0 0)
(0 0 0)
(0 0 0)
(0 0 0)
(0 0 0)
(0 0 0)
(0 0 0)
(0 0 0)
(0 0 0)
(0 0 0)
(0 0 0)
(0 0 0)
(0 0 0)
(0 0 0)
(0 0 0)
(0 0 0)
(0 0 0)
(0 0 0)
(0 0 0)
(0 0 0)
(0 0 0)
(0 0 0)
(0 0 0)
(0 0 0)
(0 0 0)
(0 0 0)
(0 0 0)
(0 0 0)
(0 0 0)
(0 0 0)
(0 0 0)
(0 0 0)
(0 0 0)
(0 0 0)
(0 0 0)
(0 0 0)
(0 0 0)
(0 0 0)
(0 0 0)
(0 0 0)
(0 0 0)
(0 0 0)
(0 0 0)
(0 0 0)
(0 0 0)
(0 0 0)
(0 0 0)
(0 0 0)
(0 0 0)
(0 0 0)
(0 0 0)
(0 0 0)
(0 0 0)
(0 0 0)
(0 0 0)
(0 0 0)
(0 0 0)
(0 0 0)
(0 0 0)
(0 0 0)
(0 0 0)
(0 0 0)
(0 0 0)
(0 0 0)
(0 0 0)
(0 0 0)
(0 0 0)
(0 0 0)
(0 0 0)
(0 0 0)
(0 0 0)
(0 0 0)
(0 0 0)
(0 0 0)
(0.0370492 -0.020868 0.0053348)
(0.00311044 0.00535105 -0.0051984)
(0.0478418 -0.0253235 0.0135917)
(0.0266152 -8.02206e-05 0.00710368)
(0.0106884 0.0211117 -0.0262053)
(0.0309072 0.0537808 -0.0167468)
(0.0427497 0.0712193 -0.0272753)
(0.0355889 0.0539042 -0.0172304)
(-0.013986 0.0268256 -0.00144725)
(0.00737044 -0.00921122 -0.00087577)
(0.0474936 -0.0382933 -0.00354126)
(-0.00960912 0.0123904 -0.0080208)
(0.034642 -0.0251372 -0.0140755)
(0.101765 -0.0727001 0.0103986)
(0.100453 -0.0518121 0.018216)
(0.107031 -0.0734074 -0.0135791)
(0.153226 -0.0839258 -0.00895362)
(0.0999674 0.0441362 0.0100066)
(0.0886757 0.114445 0.0119015)
(0.161443 -0.0306481 0.0265579)
(0.140457 0.0246301 0.0383386)
(0.0496994 0.088701 0.00264565)
(0.0205649 0.0367154 -0.0014447)
(0.080402 0.0762562 0.0299626)
(0.0319009 0.034284 0.015904)
(0.00526947 0.0116933 0.00268225)
(-0.0188694 0.0534442 0.00211214)
(0.00129794 0.0271859 -0.0120595)
(-0.00582202 0.0584597 0.00558648)
(-0.0417968 0.0565747 -0.00836661)
(-0.00362723 0.0338588 -0.0255069)
(-0.0548716 0.097456 -0.0106194)
(-0.0304248 0.103708 -0.028907)
(0.0800443 -0.000176426 -0.0429064)
(0.168797 -0.0107093 -0.0486478)
(0.0686908 0.097144 -0.0457326)
(0.168153 0.0925754 -0.0540989)
(0.20702 0.00201919 0.00273761)
(0.151146 0.0368174 0.0487634)
(0.185389 0.0746599 0.00571422)
(0.1006 0.0446423 0.035989)
(0.0673824 0.0524737 0.0455593)
(0.0256405 0.0243363 0.0385585)
(0.0326957 0.00148665 0.0122357)
(0.0221165 -0.00962789 0.00773359)
(0.00177998 0.00288747 0.0100161)
(0.00739114 -0.00896427 0.00423157)
(0.00394908 -0.00653933 0.000561445)
(0.00817086 0.0251099 -0.02589)
(0.0192739 0.0529136 -0.00641744)
(0.0441064 0.0155002 -0.0301787)
(-0.0263846 0.118569 0.00373462)
(-0.00595677 0.167071 -0.019288)
(0.0753053 0.0798597 -0.00150031)
(0.0617712 0.164461 0.0220698)
(0.0680404 0.187212 -0.0218744)
(0.13505 0.159706 -0.0062059)
(0.0906256 0.184704 0.0384762)
(0.102435 0.145513 0.0406534)
(0.117193 0.108694 0.0277578)
(0.0285776 0.0506115 0.0082814)
(0.0686936 0.0866378 0.0343123)
(-0.00374776 0.0517941 0.0108218)
(0.0111029 0.00818914 -0.0109598)
(0.0207371 -0.0069227 -0.0085008)
(-0.015037 0.0429439 -0.00778736)
(-0.00750489 0.0278164 -0.00724133)
(0.0126964 -0.0184875 -0.00369092)
(0.00616008 -0.00892717 0.00318057)
(-0.00830371 0.00438849 -0.0136559)
(0.0466758 0.0207911 -0.0241407)
(0.0990149 0.0565267 -0.00682964)
(0.131852 0.10743 0.0276939)
(0.0630277 0.0423051 -0.00457011)
(0.0879799 0.0594772 0.0116919)
(0.121071 0.121949 0.0552666)
(0.088379 0.0835025 0.044699)
(0.0920977 0.0481646 0.0497116)
(0.0630614 0.0270285 0.0486277)
(0.0440807 0.0370315 0.0189624)
(0.000891463 0.0197423 0.0154817)
(0.0299757 0.00641601 0.0203012)
(0.00453601 -0.00564572 0.0150548)
(-0.0239221 0.03392 0.00892502)
(-0.020401 0.0350473 0.004924)
(-0.00855293 0.00815703 0.00310869)
(-0.00705999 0.0100118 0.00360081)
(-0.0170044 0.0240018 -0.00398891)
(0.0457169 0.0266705 0.00651132)
(0.039145 0.0122974 0.0196639)
(0.0301353 0.0137964 0.0191979)
(0.0158749 0.00420786 0.00632449)
(0.0190029 0.00275493 0.00650945)
(0.00446894 -0.00647025 0.000713093)
(0.0146998 -0.000251703 0.00359296)
(-0.00368639 0.00213464 -0.00016925)
(0.0470945 -0.0286827 0.00660263)
(0.0726631 -0.0439989 -0.00199646)
(-0.00858866 0.00724535 -0.0329622)
(0.0469788 -0.0378248 0.0572)
(0.0159932 -0.000390975 0.0260414)
(-0.000171382 0.0117772 -0.0802556)
(0.0499892 -0.0452093 0.112633)
(0.0324009 0.0053518 0.0340952)
(0.0261785 0.0615326 -0.0673365)
(0.0252662 0.0669748 -0.0870206)
(0.0022247 0.015934 -0.151644)
(0.0310153 0.0414688 -0.102462)
(-0.015103 0.0363467 -0.157311)
(0.0183071 0.0469631 -0.0823535)
(-0.028495 0.0172034 -0.195133)
(-0.0175267 0.0378989 -0.00941611)
(-0.0259663 0.0459813 -0.0259298)
(0.062686 -0.0405168 -0.0182172)
(-0.0110014 0.0171724 -0.0280132)
(0.0395822 -0.0322197 -0.0625715)
(0.0199596 -0.00839366 -0.0488935)
(0.0706253 -0.0444783 -0.0527644)
(-0.00762571 0.0220914 -0.0672157)
(0.0413615 -0.0233363 -0.11932)
(0.00861792 0.0442686 -0.0268124)
(0.0626074 0.112515 0.0706577)
(0.0256458 0.0654256 0.0297128)
(-0.0135844 0.0261216 -0.0682901)
(-0.0318886 0.0102198 -0.116565)
(0.048308 0.0707893 0.0715134)
(0.0194284 0.0402846 0.024146)
(0.00697303 0.0226194 -0.00383882)
(-0.0114348 0.00143956 -0.103798)
(-0.0256247 0.0556148 0.0098997)
(7.65736e-05 0.0308826 -0.0284094)
(-0.00392591 0.0515522 0.0189093)
(-0.0314447 0.0722041 0.0144517)
(0.00396979 0.0268765 -0.0327667)
(-0.0157736 0.0508438 0.0513736)
(-0.00399424 -0.00860197 0.0132559)
(-0.00380105 -0.0138541 -0.0253752)
(0.0142737 -0.0209735 -0.105231)
(-0.0172798 -0.0190411 -0.176154)
(0.00381011 -0.00217721 -0.284165)
(0.0453326 0.00351876 -0.0456354)
(0.0410691 -0.0201885 -0.128735)
(0.00826535 -0.00999379 -0.111106)
(0.0271559 -0.0247762 -0.0449065)
(0.0256614 -0.0256246 -0.205975)
(0.00659395 -0.0236542 0.0143016)
(-0.0126224 -0.00144303 -0.0674005)
(-0.0181223 -0.00422493 -0.218626)
(0.0120373 -0.0037414 -0.311806)
(-0.0137721 -0.00344639 -0.2531)
(0.0441058 0.0220393 -0.111627)
(0.0302732 0.00750744 -0.202295)
(0.152277 0.0886431 0.0655994)
(0.0690019 0.0536472 -0.0215326)
(0.093852 0.0610618 0.0193532)
(0.0597461 0.045449 -0.0928509)
(0.0977202 0.080422 0.0704282)
(0.0336581 0.0301659 -0.0491991)
(0.0482105 0.0476908 0.00866124)
(-0.0417548 0.0374907 0.0175264)
(-0.0240298 -0.00226978 -0.00545671)
(-0.0115016 0.0135141 0.00401206)
(-0.041414 0.039245 -0.195401)
(-0.0385426 0.0302852 -0.100746)
(-0.0179663 0.014416 -0.325082)
(-0.0167936 0.0140804 -0.229583)
(-0.0383209 0.0347728 -0.141504)
(0.0549142 0.0326312 0.0215432)
(0.0434955 0.0333259 0.0313634)
(0.0350511 0.0161989 0.0233363)
(0.0133528 0.0117488 0.0179778)
(0.0327987 0.030722 0.0372005)
(0.00466702 0.0293194 -0.0772897)
(-0.0350304 0.013559 -0.151332)
(-0.0077085 -0.0136811 -0.0117814)
(0.0128038 0.00468433 0.0279633)
(-0.0253027 0.0209524 -0.160904)
(-0.0292772 0.0157611 -0.333956)
(-0.0301809 0.0177086 -0.0916331)
(-0.0301769 0.0327339 -0.390533)
(0.144862 -0.0880174 -0.0863114)
(0.110702 -0.0522602 -0.19985)
(-0.0637987 0.0311413 -0.21198)
(0.0730307 -0.0494414 -0.0177877)
(0.00049515 0.039873 -0.147611)
(-0.110205 0.00600092 -0.387313)
(-0.0252359 0.0360763 -0.316396)
(-0.0470142 -0.00336811 -0.332133)
(-0.0260829 0.0122891 -0.230092)
(-0.0860653 -0.0369687 -0.336935)
(-0.116686 -0.0101319 -0.357283)
(-0.102514 -0.0586609 -0.342728)
(-0.0995987 -0.0730136 -0.376527)
(-0.0736217 -0.0462546 -0.411398)
(-0.0754053 -0.0519302 -0.411099)
(-0.0305839 0.0686621 -0.0625391)
(-0.0412022 0.0873851 -0.152206)
(0.0903125 -0.0570268 -0.110366)
(-0.0133278 0.036091 -0.115553)
(0.0339422 -0.021235 -0.174013)
(0.0159772 -0.00773553 -0.1609)
(0.0866093 -0.0462227 -0.184656)
(-0.016698 0.0349521 -0.179855)
(0.0270995 -0.0234595 -0.222413)
(-0.043412 -0.0545742 -0.43248)
(0.00709891 -0.0623515 -0.113735)
(-0.0279494 -0.0714379 -0.376922)
(-0.0608099 -0.07595 -0.377783)
(-0.044053 -0.0489457 -0.392802)
(-0.054353 -0.118707 -0.318032)
(-0.032355 -0.0764392 -0.340694)
(-0.0187331 -0.0778336 -0.402391)
(-0.0199555 -0.0594347 -0.349528)
(-0.045198 0.110821 0.00903789)
(0.0209212 0.0179854 -0.101159)
(-0.0266025 0.0455305 0.0594506)
(-0.0233438 0.080566 -0.203179)
(0.0143156 -0.0655256 -0.323058)
(0.0254765 -0.0274867 -0.246571)
(-0.0157016 -0.0180829 -0.432029)
(-0.0126788 -0.000603491 -0.434223)
(-0.00886594 -0.0491874 -0.3349)
(-0.0116358 0.00589656 -0.423853)
(-0.0117732 0.00962345 -0.408647)
(-0.00680494 -0.0822171 -0.210335)
(0.00690965 -0.0432623 -0.287843)
(-0.0179102 -0.0789145 -0.345298)
(-0.0442541 -0.0691122 -0.370569)
(-0.0198095 -0.0545272 -0.377609)
(-0.00543829 0.00280685 -0.430338)
(-0.0103949 -0.00123131 -0.44872)
(-0.0176974 -0.00301458 -0.445953)
(-0.00474431 0.0022264 -0.414464)
(-0.000696693 -0.0328433 -0.427159)
(0.0139642 -0.0106682 -0.303023)
(-0.0252038 -0.0477269 -0.397872)
(-0.0172944 0.0566109 -0.14047)
(-0.0570401 -0.0245107 -0.370889)
(-0.0765727 0.00359334 -0.338334)
(-0.0720775 -0.0366455 -0.371477)
(-0.0976635 0.011349 -0.303413)
(-0.0663466 -0.0348004 -0.344848)
(-0.0771569 0.00479741 -0.309397)
(-0.00332322 -0.0105479 -0.417523)
(-0.0181669 0.00892355 -0.432435)
(0.000921936 -0.0107387 -0.410028)
(-0.0237329 -0.00919808 -0.385165)
(-0.000355269 -0.0302716 -0.387529)
(-0.0236557 -0.000886842 -0.391673)
(-0.00289729 -0.0191153 -0.367137)
(0.00245802 -0.0290706 -0.40285)
(-0.0685653 -0.00947189 -0.320978)
(-0.07166 -0.00845967 -0.271711)
(-0.0748708 0.0116543 -0.376399)
(-0.088584 0.00513968 -0.384935)
(-0.0850284 -0.00664025 -0.287941)
(-0.0773214 -0.00148925 -0.332555)
(-0.0946041 0.00120124 -0.332804)
(-0.0483388 0.0235119 -0.401735)
(-0.0856433 0.00946555 -0.353135)
(-0.0626476 0.0137678 -0.346742)
(-0.0510439 0.0140138 -0.355205)
(-0.0753152 0.0127493 -0.330514)
(-0.0260506 0.0107172 -0.393199)
(0.0346503 -0.002826 -0.257067)
(-0.0404347 0.0282264 -0.287409)
(-0.126154 0.000791731 -0.370457)
(-0.0756175 0.0403779 -0.32919)
(-0.0866011 -0.0107135 -0.309996)
(-0.134296 0.00171779 -0.343832)
(-0.110835 0.0440904 -0.328891)
(-0.133888 -0.0248363 -0.282159)
(-0.124775 -0.0909416 -0.301215)
(-0.0980202 -0.0588881 -0.357223)
(-0.118833 -0.0156712 -0.308736)
(-0.147273 -0.100941 -0.255195)
(-0.0891899 -0.0460844 -0.336969)
(-0.0771119 -0.0467178 -0.382681)
(-0.0698915 -0.0418362 -0.355004)
(-0.0274849 0.0554927 -0.223122)
(-0.00821735 0.0132875 -0.256656)
(0.0465161 -0.0155848 -0.240609)
(-0.0198265 0.0335854 -0.235613)
(0.00448032 -0.0147356 -0.256378)
(-0.0121561 0.0136484 -0.246968)
(0.000342949 0.0177425 -0.266847)
(-0.02346 0.0173355 -0.266216)
(-0.0231541 -0.00949382 -0.27477)
(-0.0462481 -0.0365625 -0.374659)
(-0.0667464 -0.0861567 -0.273519)
(-0.0331578 -0.0538129 -0.305666)
(-0.0739081 -0.0549693 -0.321971)
(-0.0442064 -0.0357858 -0.346517)
(-0.0762872 -0.0503241 -0.246341)
(-0.0457501 -0.0397622 -0.268354)
(-0.0157094 -0.0338438 -0.309166)
(-0.00377888 -0.0013816 -0.283548)
(-0.001582 -0.00497057 -0.268769)
(0.00561665 -0.077169 -0.336817)
(-0.00566427 -0.0692357 -0.270865)
(0.0195556 -0.0489931 -0.25917)
(0.00617767 -0.0723929 -0.295277)
(-0.014046 -0.0867785 -0.252255)
(-0.00378111 0.0282485 -0.402143)
(-0.00459027 0.0221133 -0.383962)
(-0.00513049 0.0573735 -0.23369)
(0.00536024 0.0743739 -0.354437)
(0.0056532 0.0606816 -0.353336)
(-0.0516753 -0.0726023 -0.358071)
(-0.0327024 -0.0611782 -0.396767)
(-0.0133818 -0.051899 -0.267545)
(-0.0504001 -0.0759481 -0.32705)
(-0.0343944 -0.063175 -0.368555)
(-0.000130547 -0.00653392 -0.39168)
(0.0148239 -0.0785389 -0.396711)
(-0.00226285 -0.0714014 -0.393069)
(0.00430853 -0.0251182 -0.36138)
(0.0147901 -0.0971191 -0.365791)
(-0.0372193 -0.067232 -0.399018)
(-0.0408674 -0.0750367 -0.369319)
(-0.0959138 -0.0494479 -0.246245)
(-0.0802502 -0.0417805 -0.289716)
(-0.0816362 -0.0177571 -0.235479)
(-0.0638918 -0.0874615 -0.34673)