/*--------------------------------*- C++ -*----------------------------------*\
| =========                 |                                                 |
| \\      /  F ield         | OpenFOAM: The Open Source CFD Toolbox           |
|  \\    /   O peration     | Version:  5.x                                   |
|   \\  /    A nd           | Web:      www.OpenFOAM.org                      |
|    \\/     M anipulation  |                                                 |
\*---------------------------------------------------------------------------*/
FoamFile
{
    version     2.0;
    format      ascii;
    class       volScalarField;
    location    "0.35";
    object      Ksl;
}
// * * * * * * * * * * * * * * * * * * * * * * * * * * * * * * * * * * * * * //

dimensions      [1 -3 -1 0 0 0 0];

internalField   nonuniform List<scalar> 
10571
(
11000.2
13758.8
4207.9
1370.15
6392.97
5871.04
4051.82
11710.7
8387.92
11166.4
12235.4
332.191
9223.99
8881.64
7733.76
12414.2
6278.14
10516.8
7966.72
12270.2
12731.1
8639.45
11164.6
13345.7
11007.1
13805.8
10508.1
7849.29
10086.1
7522.47
1536.28
58.9347
126.126
630.816
12554.2
1399.93
511.343
62.9009
187.785
366.208
8542.96
706.746
75.5985
945.081
3551.3
9981.34
918.486
1878.39
12192.7
13491.4
12294.8
12091
8794.46
12027.4
2171.9
162.72
46.1381
435.796
11810.1
2059.2
301.967
47.9475
122.327
803.119
11026.3
823.751
42.7094
319.043
590.393
7466.71
596.545
1005.55
12850.5
12218.8
11407.9
22694.5
974.31
16245.8
644.889
79.3531
14.3274
1253.05
11102.1
12136.5
100.906
50.7327
84.7823
581.907
10918.9
93.4972
41.3373
80.8685
579.935
65.2632
538.793
692.533
4279.31
719.369
1316.56
324.226
470.199
2168.91
33.8315
14.1368
22.5947
1336.8
3374.85
664.425
16.4341
43.6069
67.8789
277.82
302.631
5.21514
37.6602
66.5177
659.312
202.845
232.989
315.717
548.926
36.9673
121.28
0.302198
180.798
59.3744
41.1533
11.8987
45.1322
125.553
26392
18.3727
13.6754
5.60005
33.6616
37.1106
100.189
11263.4
21.1109
25.438
24.0687
66.3428
638.844
1701.09
107.427
308.901
10.8385
11.0702
1.74879
66.6359
1.89336
47.1413
53.4166
4.12982
54.4143
62.0607
0.0354384
-4.98821e-16
74.6322
28.6734
35.2482
37.4724
38.7273
0.0574111
591.458
116.915
17.356
57.1834
290.663
0
122.355
67.4637
240.274
0
33.0263
-3.34094e-15
0
0
20.7544
69.6236
35.274
36.2711
54.5636
0
38.4064
105.471
67.5702
33.837
64.1742
41.2425
0
56.4944
86.5467
38.5227
68.8803
198.811
0
23.87
76.5292
95.4825
0
82.0832
0
0
-6.93072e-16
7.63531
29.8298
34.0799
28.5289
40.1455
0
396.294
83.9392
44.3763
20.8398
59.4447
31.0035
0
26.5584
43.1548
47.1216
44.5066
182.932
31.5086
108.274
151.783
8.46634
174.271
24.6045
0
0
4.10138
17.494
27.4734
20.5828
33.9155
19.5504
1.65548
29.0655
25.8726
39.5276
44.9619
5.00679
16.0246
53.4143
47.9635
201.173
16.159
62.2172
116.713
0
36.8372
16.5275
0
0
0.125708
9.64328
19.0271
13.6325
33.2269
0
1.59553
8.57317
37.7765
43.2987
54.5051
0.611031
4.72111
44.7141
58.6455
257.801
8.7566
47.8086
96.0246
0
0
7.02167
0
3.60977
-3.80692e-15
1.31362
8.05594
17.2176
25.1238
-1.44347e-14
11.8677
8.41318
24.6453
41.9404
69.5908
0
4.06882
36.561
59.3196
125.922
8.4615
60.3351
73.2336
12.8681
0
6.03677
0
0
4.2934
1.74035
5.508
12.271
8.93377
16.439
29.3471
5.59681
30.3662
42.8489
52.8628
0
3.7034
30.9059
58.0173
103.769
8.56787
43.7133
86.8318
-1.13239e-14
0
-6.23113e-16
0
0
4.4541
1.52382
1.9689
18.0663
5.77436
0
0
2.75668
16.4244
29.1919
41.8544
0
7.39039
21.8586
38.0046
154.521
10.5067
53.607
64.0219
0
0
12.0746
18.7238
59.6955
0
1.93759
1.77107
16.4254
25.1237
0
0
3.32698
5.12152
17.2478
44.3195
0
20.4189
6.59141
17.7075
143.841
11.1297
64.8275
110.889
0
0
0
42.3651
-4.61567e-15
0
17.5711
1.44271
11.1204
31.8974
0
0
6.6227
3.07901
15.0899
20.1944
0
44.2187
23.8782
8.09937
120.638
0
53.4088
144.873
0
0
0
-1.18028e-16
0
0
130.224
42.011
1.85472
45.557
0
0
33.2923
16.5845
1.13245
56.7502
0
19.823
58.2313
0
251.384
0
0.0784542
98.761
0
0
0
0
0
0
0
83.4185
80.9301
87.2604
0
0
0.686393
47.6624
89.1745
61.4313
0
0
8.71312
65.3172
43.4576
0
0
0
0
0
0
0
0
0
0
-5.18387e-16
3.85956
0
0
0
0
0.025846
5.91891
-3.03139e-15
0
0
0
0
0
0
0
0
0
0
0
0
0
0
0
0
0
0
0
0
0
0
0
0
0
0
0
0
0
0
0
0
0
0
0
0
0
0
0
0
0
0
0
0
0
0
0
0
0
0
0
0
0
0
0
0
0
0
0
0
0
0
0
0
0
0
0
0
0
0
0
0
0
0
0
0
0
0
0
0
0
0
0
0
0
0
0
0
0
0
0
0
0
0
0
0
0
0
0
0
0
0
0
0
0
0
0
0
0
0
0
0
0
0
0
0
0
0
0
0
0
0
0
0
0
0
0
0
0
0
0
0
0
0
0
0
0
0
0
0
0
0
0
0
0
0
0
0
0
0
0
0
0
0
0
0
0
0
0
0
0
0
0
0
0
0
0
0
0
0
0
0
0
0
0
0
0
0
0
0
0
0
0
0
0
0
0
0
0
0
0
0
0
0
0
0
0
0
0
0
0
0
0
0
0
0
0
0
0
0
0
0
0
0
0
0
0
0
0
0
0
0
0
0
0
0
0
0
0
0
0
0
0
0
0
0
0
0
0
0
0
0
0
0
0
0
0
0
0
0
0
0
0
0
0
0
0
0
0
0
0
0
0
0
0
0
0
0
0
0
0
0
0
0
0
0
0
0
0
0
0
0
0
0
0
0
0
0
0
0
0
0
0
0
0
0
0
0
0
0
0
0
0
0
0
0
0
0
0
0
0
0
0
0
0
0
0
0
0
0
0
0
0
0
0
0
0
0
0
0
0
0
0
0
0
0
0
0
0
0
0
0
0
0
0
0
0
0
0
0
0
0
0
0
0
0
0
0
0
0
0
0
0
0
0
0
0
0
0
0
0
0
0
0
0
0
0
0
0
0
0
0
0
0
0
0
0
0
0
0
0
0
0
0
0
0
0
0
0
0
0
0
0
0
0
0
0
0
0
0
0
0
0
0
0
0
0
0
0
0
0
0
0
0
0
0
0
0
0
0
0
0
0
0
0
0
0
0
0
0
0
0
0
0
0
0
0
0
0
0
0
0
0
0
0
0
0
0
0
0
0
0
0
0
0
0
0
0
0
0
0
0
0
0
0
0
0
0
0
0
0
0
0
0
0
0
0
0
0
0
0
0
0
0
0
0
0
0
0
0
0
0
0
0
0
0
0
0
0
0
0
0
0
0
0
0
0
0
0
0
0
0
0
0
0
0
0
0
0
0
0
0
0
0
0
0
0
0
0
0
0
0
0
0
0
0
0
0
0
0
0
0
0
0
0
0
0
0
0
0
0
0
0
0
0
0
0
0
0
0
0
0
0
0
0
0
0
0
0
0
0
0
0
0
0
0
0
0
0
0
0
0
0
0
0
0
0
0
0
0
0
0
0
0
0
0
0
0
0
0
0
0
0
0
0
0
0
0
0
0
0
0
0
0
0
0
0
0
0
0
0
0
0
0
0
0
0
0
0
0
0
0
0
0
0
0
0
0
0
0
0
0
0
0
0
0
0
0
0
0
0
0
0
0
0
0
0
0
0
0
0
0
0
0
0
0
0
0
0
0
0
0
0
0
0
0
0
0
0
0
0
0
0
0
0
0
0
0
0
0
0
0
0
0
0
0
0
0
0
0
0
0
0
0
0
0
0
0
0
0
0
0
0
0
0
0
0
0
0
0
0
0
0
0
0
0
0
0
0
0
0
0
0
0
0
0
0
0
0
0
0
0
0
0
0
0
0
0
0
0
0
0
0
0
0
0
0
0
0
0
0
0
0
0
0
0
0
0
0
0
0
0
0
0
0
0
0
0
0
0
0
0
0
0
0
0
0
0
0
0
0
0
0
0
0
0
0
0
0
0
0
0
0
0
0
0
0
0
0
0
0
0
0
0
0
0
0
0
0
0
0
0
0
0
0
0
0
0
0
0
0
0
0
0
0
0
0
0
0
0
0
0
0
0
0
0
0
0
0
0
0
0
0
0
0
0
0
0
0
0
0
0
0
0
0
0
0
0
0
0
0
0
0
0
0
0
0
0
0
0
0
0
0
0
0
0
0
0
0
0
0
0
0
0
0
0
0
0
0
0
0
0
0
0
0
0
0
0
0
0
0
0
0
0
0
0
0
0
0
0
0
0
0
0
0
0
0
0
0
0
0
0
0
0
0
0
0
0
0
0
0
0
0
0
0
0
0
0
0
0
0
0
0
0
0
0
0
0
0
0
0
0
0
0
0
0
0
0
0
0
0
0
0
0
0
0
0
0
0
0
0
0
0
0
0
0
0
0
0
0
0
0
0
0
0
0
0
0
0
0
0
0
0
0
0
0
0
0
0
0
0
0
0
0
0
0
0
0
0
0
0
0
0
0
0
0
0
0
0
0
0
0
0
0
0
0
0
0
0
0
0
0
0
0
0
0
0
0
0
0
0
0
0
0
0
0
0
0
0
0
0
0
0
0
0
0
0
0
0
0
0
0
0
0
0
0
0
0
0
0
0
0
0
0
0
0
0
0
0
0
0
0
0
0
0
0
0
0
0
0
0
0
0
0
0
0
0
0
0
0
0
0
0
0
0
0
0
0
0
0
0
0
0
0
0
0
0
0
0
0
0
0
0
0
0
0
0
0
0
0
0
0
0
0
0
0
0
0
0
0
0
0
0
0
0
0
0
0
0
0
0
0
0
0
0
0
0
0
0
0
0
0
0
0
0
0
0
0
0
0
0
0
0
0
0
0
0
0
0
0
0
0
0
0
0
0
0
0
0
0
0
0
0
0
0
0
0
0
0
0
0
0
0
0
0
0
0
0
0
0
0
0
0
0
0
0
0
0
0
0
0
0
0
0
0
0
0
0
0
0
0
0
0
0
0
0
0
0
0
0
0
0
0
0
0
0
0
0
0
0
0
0
0
0
0
0
0
0
0
0
0
0
0
0
0
0
0
0
0
0
0
0
0
0
0
0
0
0
0
0
0
0
0
0
0
0
0
0
0
0
0
0
0
0
0
0
0
0
0
0
0
0
0
0
0
0
0
0
0
0
0
0
0
0
0
0
0
0
0
0
0
0
0
0
0
0
0
0
0
0
0
0
0
0
0
0
0
0
0
0
0
10859.4
12488.7
10817.7
9570.29
9924.22
7496.97
7524.04
7907.8
10279.3
9994.7
10831.6
11236.4
8512.19
6385.33
2887
2142.94
1401.31
1554.93
2940.25
3111.74
4582.8
5641.37
6821.49
5124.48
6345.48
7937.7
11469.6
10291.9
10698.2
9349.07
2849.99
4208.32
1099.56
1416.75
3301.25
2727.88
4894.53
5592.65
6983.67
6751.69
7130.41
7687.34
7875.11
8371.03
9188.89
8502.58
9774.54
9385.43
10472.8
9805.31
10221.6
3080.58
2083.75
4633.15
2287.44
3714.49
6218.82
4454.78
6646.47
7090.98
8089.82
8163.17
9051.35
9303.74
9846.93
10130.4
10239.4
10775.6
10034.4
10866.9
10132.1
7173.47
3319.36
9097.76
6284.51
4639.11
7866.73
4410.19
6983.02
8343.93
9511.12
9133.69
9736.32
10543.7
11145.4
10604.8
10877.9
10515.3
8020.43
6644.53
7580.49
7099.58
9302.93
10087.2
8658.09
10781.9
12921.5
13520.5
11247.6
12051.8
8367.13
12057.2
12311.6
10054.6
5140.09
6369.71
10569.6
7628.88
8503.72
10224.7
9730.58
13716.7
13723.7
12208.4
12657.5
5104.28
13625.9
12801.2
12590.3
6272.17
9174.11
9592.18
10221.9
8936.73
10604.5
4788.07
9524.91
9799.59
10363
12353.5
12609.6
9144.26
11842.2
12688.9
9447.72
12290.4
10363.7
7455.71
5986.9
7172.01
7320.35
10302.2
12698.4
8151.84
10570.2
11104.3
11849.1
4245.09
4772.24
7112.25
12022.7
11825.2
4386.88
11131.3
6695.48
8619.38
7278.54
10439.4
10104.3
12203.6
12267.8
12935.7
5666.83
11533
7435.17
11428.4
10863.2
10062.1
9869.84
11259.5
9515.31
10357
6862.41
10770.4
11082.7
11098.3
1080.5
1879.73
4355.79
8705.47
14832.4
13319.6
11025.1
11702.3
11155
13047.1
11461.9
11629.7
10667.8
10328.4
11398
11180.1
10846.1
10251
10936.3
13292.7
13654.4
12473.2
11706.1
9800.42
13905.5
11810.1
11959.5
12292
10876.7
2515.28
4599.44
10325.7
8682.1
2064.19
1675.26
3721.91
901.955
11524.2
12941.6
11322.4
11184.8
11692.1
12408.6
396.712
665.263
210.409
425.645
394.949
9714.08
10349.9
11274.9
11004.2
10912.2
193.642
775.829
493.76
381.765
382.736
11036.9
10134
5367.87
10111.9
9566.04
10447.6
4860.23
11125.2
10915.4
9060.87
1166.59
9495.14
545.937
3889.37
531.301
3537.83
750.705
11012.9
11581.3
2917.29
5441.54
9744.72
2835.71
5877.69
773.879
1080.42
1109.29
709.619
2642.45
1122.22
13411.3
13092.5
13304.5
11579.6
12064.8
13071.9
11644.1
11532.8
12010.6
11415.4
11957.1
15174.3
14358.9
10824.7
8512.83
13044
13565.7
12357.5
12637.5
12580
12963.4
11677
12921.2
12341.2
1984.55
1653.62
504.642
3334.75
534.517
462.179
220.921
297.985
549.488
11911.9
13189.8
12324.9
12641
12254.4
12643.9
571.827
380.954
709.404
683.057
633.657
12442.4
10550.9
11491.6
11765.2
10624.6
515.947
456.481
664.464
530.385
445.212
10577.8
10988.2
8185.41
11916.9
10494.3
11307.2
10757.2
10964.6
10028.1
1695.13
636.473
2164.69
186.4
881.223
745.615
1422.58
607.156
10805
7566.23
882.987
2700.56
791.471
190.319
1163.74
704.656
1431.1
567.857
577.516
1525.43
853.42
11878.9
10166.5
13231
10756.5
11574.8
14712.8
10706.3
9868.69
22673.9
15549.9
13611
21644.5
5763.87
2164.64
1071.85
11258.5
9072.94
11227.1
11962.7
13617.8
8429.19
8890.14
7316.08
8028.64
213.305
124.229
286.644
404.222
559.263
36.9858
990.181
1162.45
2671.63
12428.3
11742.4
14465.3
10071.3
12219.2
12165.8
981.308
737.413
1879.92
845.916
677.35
12072.1
10286.9
10093.4
13346
10951.8
511.266
382.006
436.148
487.236
325.202
10166.3
8595.93
8725.9
9324.1
6496.4
6967.32
1161.84
577.051
123.36
703.533
718.74
660.326
81.3891
440.376
610.603
588.818
705.292
430.612
53.0467
208.89
1489.42
83.9113
332.775
1881.62
442.764
1467.06
409.204
378.564
1990.57
515.111
1663.65
48.5255
11342.9
2718.45
3868.39
1281.04
33.5741
292.456
3008.85
2314.71
210.554
511.431
681.187
1766.49
960.213
622.336
-8.92051e-15
568.708
333.86
266.328
143.365
81.5003
9.36867
71.2763
2272.52
28.5406
1663.4
1554.81
1837.5
211.956
571.081
2924.66
837.207
3123.79
3595.02
2162.69
177.808
215.059
71.5639
447.973
710.802
404.406
204.795
344.828
2452.85
5070.24
379.274
128.925
233.131
529.681
300.923
146.466
476.182
274.691
1965.55
57.5261
24.8129
7.0557
3.24405
9.13971
9.60738
4.88694
40.7516
357.683
573.839
435.775
54.2981
180.041
485.544
213.76
743.371
61.0473
320.544
487.577
1552.57
810.376
556.356
1283.19
201.929
1200.29
194.371
185.834
466.077
254.878
34.4997
31.2947
371.441
14.6169
80.4475
38.4214
14.1886
6.31453
215.19
58.3296
204.778
24.7187
5.53099
-5.47102e-14
0
87.9688
8.09908
86.3838
3.75386
166.278
53.2369
21.087
11.2621
3.31721
112.142
172.699
122.772
8.32069
16.832
121.078
45.748
169.175
43.0905
13.3402
22.4378
17.2135
17.8756
0
26.1746
624.371
112.069
3824.07
67.4862
156.818
44.2166
119.404
14405.3
15126.4
11379.9
537.902
2317.95
969.559
3749.05
3.97567
8.02507
16.8125
17.451
12.3759
3734.11
222.63
1241.83
42.8072
168.485
215.572
180.462
11001.5
9797.23
10580.4
1454.97
3891.25
1777.33
2747.29
0.315706
0
41.8094
134.794
435.823
51.1382
147.854
579.436
1180.76
151.158
451.398
230.539
72.8612
108.046
368.206
171.607
380.839
1617.9
1311.37
279.553
634.092
469.312
103.083
309.845
90.7308
379.245
101.413
120.436
215.871
235.675
29.3292
2.11069
0
4.88805
20.7437
0
4.65733
17.2947
2.56937
1.08447
0
-2.25868e-15
0
0
0
-6.49332e-15
24.6426
16.5017
3.46321
4.4112
15.4904
25.7284
6.1494
13.809
1.81823
69.8637
27.9042
0
8.49659
17.6462
21.2656
34.1361
0
22.8275
6.80159
0
0
0
0
22.3503
0
10.573
27.9079
34.1883
29.5761
7.53877
59.038
41.2928
41.133
0.975205
100.198
25.8685
0
0
2.59225
0
0
2.24051
0
8.86976
-5.2951e-15
2.22499
28.1932
6.25174
24.5862
260.122
37.0497
45.5023
22.7301
202.422
60.8913
0
0
0
0.632764
0
0
0
0
12.6148
1179.96
588.81
373.097
134.997
155.932
134.741
11.5547
102.395
273.654
129.108
66.9795
101.395
175.16
141.703
-2.50683e-16
230.611
4.05125
0
0
0
161.726
117.196
93.1552
146.032
67.1395
97.2937
133.499
114.769
100.93
110.111
130.822
151.834
182.732
7.79829
74.9069
29.099
6.87689
13.8429
401.609
16.0695
6.8335
0
0
0
0
0
0
0
13.8
0.220804
23.1288
9.08903
4.28746
44.7892
27.4586
2.06965
4.30051
-9.98057e-15
7.96606
3.8758
2.73613
0
5.93619
24.763
20.1454
1.63115
18.3219
0
0
0
0
0
57.4571
86.8758
90.435
20.8888
297.669
134.279
16.9938
60.2033
16.3402
64.7324
12.7974
65.6002
22.0787
0
0
0
0
0
0
0
35.3951
0.267942
90.5255
13.9768
9.135
21.2386
160.223
16.5953
39.7377
39.9273
241.376
25.5066
0
0
0
0
0
0
0
108.833
177.167
16.1876
45.9144
16.7971
39.9043
0.169288
14.6708
39.4088
104.879
220.603
109.467
57.202
115.097
199.56
140.733
3.76398
191.979
0
0
0
0
179.21
117.421
127.392
46.1251
22.9604
108.25
76.6704
101.835
126.947
94.6257
114.706
173.458
144.251
68.4156
107.867
201.065
16.6631
28.1346
54.5774
92.2077
52.5523
0
0
20.8797
0
0
0
0
9.63112
21.3154
26.1832
19.3959
4.37634
106.647
48.7942
20.1592
0
0
-3.00006e-15
24.7203
0
0
0
14.054
7.05911
46.7556
26.9821
399.168
76.337
23.0013
64.6883
6.31481
14.3516
17.4716
39.6799
33.8644
-9.00419e-16
47.3337
22.8396
0
0
0
0
0
0
0
105.247
20.3709
-3.14624e-14
93.1604
16.6975
43.0956
196.359
19.0246
60.2022
37.9807
131.386
13.4587
0
0
0
0
0
0
0
262.432
68.1069
17.6599
1.88938
61.3178
12.1991
17.6147
20.195
43.8845
130.477
142.068
133.251
65.8202
92.3192
179.022
106.373
198.995
60.7162
-1.89559e-14
93.1641
95.133
4.09192
39.2746
118.975
102.215
100.438
112.563
51.0593
111.796
100.354
61.28
0.213411
9.47602
229.784
18.1426
0
21.2663
3.47296
5.53656
0
0
2.26069
4.37965
0
0
36.1249
45.5008
63.3203
14.8001
0
63.7416
93.3055
17.7482
13.3448
22.3607
0
17.9518
0
10.2282
1.58934
52.1271
35.7081
15.1678
34.6384
0
25.1303
38.4838
29.0898
3.5737
45.0547
24.6923
23.544
32.9752
48.9433
68.3271
71.5962
17.123
47.1359
207.684
30.7763
91.872
63.7656
13.798
112.435
25.9921
15.5731
31.1148
-5.70375e-15
45.3432
2.55866
55.8157
0
17.7745
102.516
193.857
210.886
77.5508
147.62
212.747
182.856
222.284
0
0
55.431
92.1882
2.77509
66.4335
91.5958
57.7749
94.0536
64.8356
91.4899
115.438
112.757
0
0
0
0
0
0
0
0
0
4.151
0
0
42.4628
0
0
-1.98268e-14
0
63.6611
41.595
44.1315
-4.83082e-15
1.51138
57.1748
317.667
13.6592
11.0564
19.7091
0
-5.90987e-15
-4.6972e-15
46.6815
36.438
33.3844
26.5804
14.5602
14.1046
19.7348
0
24.3588
26.1513
65.484
27.6251
58.2829
25.9999
13.6518
13.08
23.4085
9.52011
6.01458
96.6208
116.321
62.4126
32.1329
106.011
0
0
121.404
0
-4.0924e-15
2.96065
17.8477
0
0
126.488
114.232
156.923
46.8028
116.903
148.922
147.115
151.105
0
0
55.7773
109.356
4.46982
53.7074
111.412
74.1975
86.0143
71.7979
30.1115
89.9
87.2555
0
0
0
0
0
0
0
0
0
8.7516
25.631
7.30073
0.150581
0
0
0
0
0
0.48517
59.4557
0
0
0
3.95905
17.7573
10.4067
25.0016
0
7.85536
5.1305
48.3112
18.4777
51.8923
9.21294
15.4359
20.6855
14.9286
43.9727
17.2897
23.8519
12.8099
27.2814
47.991
26.5981
0
0
40.7826
15.4628
0
54.6877
97.3625
69.7635
29.909
103.075
0
0
-1.29726e-15
0
0
0
0
0
0
107.975
120.447
176.064
69.0933
107.78
145.811
128.294
207.278
0
0
31.9013
106.425
18.151
30.562
93.4146
66.7193
77.2358
53.3217
50.1097
145.562
64.7078
0
0
0
0
21.6978
0
0
-3.22576e-15
19.5442
17.1405
79.5281
14.7987
6.87669
8.94828
15.6733
0
0
3.51537
0
0
0
0
0
0
7.16564
4.78063
29.5376
3.73815
22.481
0
38.9616
31.9317
57.9826
5.16946
109.421
44.5565
0
54.6379
4.58207
38.0937
9.45022
21.0635
23.4436
30.9029
2.40917
0
-1.57432e-15
-7.81055e-16
0
46.0949
76.3705
47.792
55.358
87.1359
0
0
0
0
0
0
0
0
0
92.567
127.573
116.614
33.7919
101.991
78.3188
132.096
119.385
0
0
34.5616
122.627
16.6273
60.5756
33.0893
60.1382
129.026
55.6634
64.8305
178.708
83.9868
0
0
0
0
7.16297
0
0
7.10703
17.8797
32.3813
0
3.62052
2.84302
19.4581
10.1175
0
0
0
0
7.80428
0
0
0
14.7456
38.9168
0
37.6604
24.592
133.397
8.52771
103.034
70.873
89.6067
0
-9.17732e-15
0
0
0
0
53.0603
20.711
21.2989
34.9942
29.9885
0
0
0
0
0
38.7551
73.1807
57.5227
12.5519
48.0521
0
0
0
0
0
0
0
0
0
76.4349
75.9594
143.203
43.5469
107.789
106.409
97.1487
134.967
0
0
42.443
10.417
17.2237
50.0442
0
102.48
59.7179
54.5192
44.7967
72.8613
113.099
0
0
0
0
9.25272
0
0
5.4894
12.2551
0
0
0.708288
0
8.14117
0
0
0
0
0
-3.42588e-15
0
0
0
1.79728
82.5889
25.2262
78.1671
43.1304
3.25781
125.26
0.110086
9.18154
2.45316
0
0
0
0
0
0
43.3852
93.3151
33.4149
23.51
33.8053
0
0
0
0
0
80.664
58.1353
53.6447
52.7839
47.2783
0
0
0
0
0
0
0
0
0
58.6262
98.4714
146.578
5.28252
68.7696
60.9383
125.001
151.195
0
0
33.606
0
0
26.8544
0
56.9169
30.076
65.078
60.6893
5.53728
102.261
0
0
0
0
0.375107
0
0
0
0
0
0
0
0
0
0
0
0
0
0
-1.33206e-15
0
0
0
2.67335
0
4.69233
0
0
0
4.52643
3.72487
11.8572
6.76785
0
0
0
0
0
0
30.2106
36.8751
29.6771
51.5308
52.1973
0
0
0
0
0
50.4545
65.7554
57.137
63.5629
62.0383
0
0
0
0
0
0
0
0
0
49.7427
43.1671
159.507
0
42.5136
49.1739
143.678
145.906
0
0
2.75488
0
0
0
0
74.5709
0
21.2362
65.1561
0
132.742
0
0
0
0
0
0
0
0
0
0
0
0
0
0
0
0
0
0
0
2.48476
0
0
0
0
0
8.23664
4.85552
0
0
7.47602
3.81487
-5.8786e-15
14.1708
0
0
0
0
0
0
28.1431
115.969
36.9417
37.0918
110.567
0
0
0
0
0
102.858
82.3691
43.0696
136.296
100.701
0
0
0
0
0
0
0
0
0
66.0236
87.0105
207.056
30.1543
75.4927
38.9091
54.8713
222.705
0
0
0
0
0
0
0
53.9946
0
0
0.0819432
0
6.04412
0
0
0
0
0
0
0
0
0
0
0
0
0
0
0
0
0
0
0
0
0
0
0
0
0
16.6284
12.7254
0
0
1.53275
1.42889
11.7278
0
0
0
0
0
0
0
77.958
2.45131
10.6734
15.6283
0
0
0
0
0
0
18.1746
43.4927
28.8246
1.99
-6.04731e-15
0
0
0
0
0
0
0
0
0
58.7787
3.53762
-4.18938e-15
-8.8495e-15
-3.70539e-15
0
0
0
0
0
0
0
0
0
0
0
0
0
0
0
0
0
0
0
0
0
0
0
0
0
0
0
0
0
0
0
0
0
0
0
0
0
0
0
0
0
0
0
0
0
0
0
0
0
0
0
0
0
0
0
0
0
0
0
0
0
0
0
0
0
0
0
0
0
0
0
0
0
0
0
0
0
0
0
0
0
0
0
0
0
0
0
0
0
0
0
0
0
0
0
0
0
0
0
0
0
0
0
0
0
0
0
0
0
0
0
0
0
0
0
0
0
0
0
0
0
0
0
0
0
0
0
0
0
0
0
0
0
0
0
0
0
0
0
0
0
0
0
0
0
0
0
0
0
0
0
0
0
0
0
0
0
0
0
0
0
0
0
0
0
0
0
0
0
0
0
0
0
0
0
0
0
0
0
0
0
0
0
0
0
0
0
0
0
0
0
0
0
0
0
0
0
0
0
0
0
0
0
0
0
0
0
0
0
0
0
0
0
0
0
0
0
0
0
0
0
0
0
0
0
0
0
0
0
0
0
0
0
0
0
0
0
0
0
0
0
0
0
0
0
0
0
0
0
0
0
0
0
0
0
0
0
0
0
0
0
0
0
0
0
0
0
0
0
0
0
0
0
0
0
0
0
0
0
0
0
0
0
0
0
0
0
0
0
0
0
0
0
0
0
0
0
0
0
0
0
0
0
0
0
0
0
0
0
0
0
0
0
0
0
0
0
0
0
0
0
0
0
0
0
0
0
0
0
0
0
0
0
0
0
0
0
0
0
0
0
0
0
0
0
0
0
0
0
0
0
0
0
0
0
0
0
0
0
0
0
0
0
0
0
0
0
0
0
0
0
0
0
0
0
0
0
0
0
0
0
0
0
0
0
0
0
0
0
0
0
0
0
0
0
0
0
0
0
0
0
0
0
0
0
0
0
0
0
0
0
0
0
0
0
0
0
0
0
0
0
0
0
0
0
0
0
0
0
0
0
0
0
0
0
0
0
0
0
0
0
0
0
0
0
0
0
0
0
0
0
0
0
0
0
0
0
0
0
0
0
0
0
0
0
0
0
0
0
0
0
0
0
0
0
0
0
0
0
0
0
0
0
0
0
0
0
0
0
0
0
0
0
0
0
0
0
0
0
0
0
0
0
0
0
0
0
0
0
0
0
0
0
0
0
0
0
0
0
0
0
0
0
0
0
0
0
0
0
0
0
0
0
0
0
0
0
0
0
0
0
0
0
0
0
0
0
0
0
0
0
0
0
0
0
0
0
0
0
0
0
0
0
0
0
0
0
0
0
0
0
0
0
0
0
0
0
0
0
0
0
0
0
0
0
0
0
0
0
0
0
0
0
0
0
0
0
0
0
0
0
0
0
0
0
0
0
0
0
0
0
0
0
0
0
0
0
0
0
0
0
0
0
0
0
0
0
0
0
0
0
0
0
0
0
0
0
0
0
0
0
0
0
0
0
0
0
0
0
0
0
0
0
0
0
0
0
0
0
0
0
0
0
0
0
0
0
0
0
0
0
0
0
0
0
0
0
0
0
0
0
0
0
0
0
0
0
0
0
0
0
0
0
0
0
0
0
0
0
0
0
0
0
0
0
0
0
0
0
0
0
0
0
0
0
0
0
0
0
0
0
0
0
0
0
0
0
0
0
0
0
0
0
0
0
0
0
0
0
0
0
0
0
0
0
0
0
0
0
0
0
0
0
0
0
0
0
0
0
0
0
0
0
0
0
0
0
0
0
0
0
0
0
0
0
0
0
0
0
0
0
0
0
0
0
0
0
0
0
0
0
0
0
0
0
0
0
0
0
0
0
0
0
0
0
0
0
0
0
0
0
0
0
0
0
0
0
0
0
0
0
0
0
0
0
0
0
0
0
0
0
0
0
0
0
0
0
0
0
0
0
0
0
0
0
0
0
0
0
0
0
0
0
0
0
0
0
0
0
0
0
0
0
0
0
0
0
0
0
0
0
0
0
0
0
0
0
0
0
0
0
0
0
0
0
0
0
0
0
0
0
0
0
0
0
0
0
0
0
0
0
0
0
0
0
0
0
0
0
0
0
0
0
0
0
0
0
0
0
0
0
0
0
0
0
0
0
0
0
0
0
0
0
0
0
0
0
0
0
0
0
0
0
0
0
0
0
0
0
0
0
0
0
0
0
0
0
0
0
0
0
0
0
0
0
0
0
0
0
0
0
0
0
0
0
0
0
0
0
0
0
0
0
0
0
0
0
0
0
0
0
0
0
0
0
0
0
0
0
0
0
0
0
0
0
0
0
0
0
0
0
0
0
0
0
0
0
0
0
0
0
0
0
0
0
0
0
0
0
0
0
0
0
0
0
0
0
0
0
0
0
0
0
0
0
0
0
0
0
0
0
0
0
0
0
0
0
0
0
0
0
0
0
0
0
0
0
0
0
0
0
0
0
0
0
0
0
0
0
0
0
0
0
0
0
0
0
0
0
0
0
0
0
0
0
0
0
0
0
0
0
0
0
0
0
0
0
0
0
0
0
0
0
0
0
0
0
0
0
0
0
0
0
0
0
0
0
0
0
0
0
0
0
0
0
0
0
0
0
0
0
0
0
0
0
0
0
0
0
0
0
0
0
0
0
0
0
0
0
0
0
0
0
0
0
0
0
0
0
0
0
0
0
0
0
0
0
0
0
0
0
0
0
0
0
0
0
0
0
0
0
0
0
0
0
0
0
0
0
0
0
0
0
0
0
0
0
0
0
0
0
0
0
0
0
0
0
0
0
0
0
0
0
0
0
0
0
0
0
0
0
0
0
0
0
0
0
0
0
0
0
0
0
0
0
0
0
0
0
0
0
0
0
0
0
0
0
0
0
0
0
0
0
0
0
0
0
0
0
0
0
0
0
0
0
0
0
0
0
0
0
0
0
0
0
0
0
0
0
0
0
0
0
0
0
0
0
0
0
0
0
0
0
0
0
0
0
0
0
0
0
0
0
0
0
0
0
0
0
0
0
0
0
0
0
0
0
0
0
0
0
0
0
0
0
0
0
0
0
0
0
0
0
0
0
0
0
0
0
0
0
0
0
0
0
0
0
0
0
0
0
0
0
0
0
0
0
0
0
0
0
0
0
0
0
0
0
0
0
0
0
0
0
0
0
0
0
0
0
0
0
0
0
0
0
0
0
0
0
0
0
0
0
0
0
0
0
0
0
0
0
0
0
0
0
0
0
0
0
0
0
0
0
0
0
0
0
0
0
0
0
0
0
0
0
0
0
0
0
0
0
0
0
0
0
0
0
0
0
0
0
0
0
0
0
0
0
0
0
0
0
0
0
0
0
0
0
0
0
0
0
0
0
0
0
0
0
0
0
0
0
0
0
0
0
0
0
0
0
0
0
0
0
0
0
0
0
0
0
0
0
0
0
0
0
0
0
0
0
0
0
0
0
0
0
0
0
0
0
0
0
0
0
0
0
0
0
0
0
0
0
0
0
0
0
0
0
0
0
0
0
0
0
0
0
0
0
0
0
0
0
0
0
0
0
0
0
0
0
0
0
0
0
0
0
0
0
0
0
0
0
0
0
0
0
0
0
0
0
0
0
0
0
0
0
0
0
0
0
0
0
0
0
0
0
0
0
0
0
0
0
0
0
0
0
0
0
0
0
0
0
0
0
0
0
0
0
0
0
0
0
0
0
0
0
0
0
0
0
0
0
0
0
0
0
0
0
0
0
0
0
0
0
0
0
0
0
0
0
0
0
0
0
0
0
0
0
0
0
0
0
0
0
0
0
0
0
0
0
0
0
0
0
0
0
0
0
0
0
0
0
0
0
0
0
0
0
0
0
0
0
0
0
0
0
0
0
0
0
0
0
0
0
0
0
0
0
0
0
0
0
0
0
0
0
0
0
0
0
0
0
0
0
0
0
0
0
0
0
0
0
0
0
0
0
0
0
0
0
0
0
0
0
0
0
0
0
0
0
0
0
0
0
0
0
0
0
0
0
0
0
0
0
0
0
0
0
0
0
0
0
0
0
0
0
0
0
0
0
0
0
0
0
0
0
0
0
0
0
0
0
0
0
0
0
0
0
0
0
0
0
0
0
0
0
0
0
0
0
0
0
0
0
0
0
0
0
0
0
0
0
0
0
0
0
0
0
0
0
0
0
0
0
0
0
0
0
0
0
0
0
0
0
0
0
0
0
0
0
0
0
0
0
0
0
0
0
0
0
0
0
0
0
0
0
0
0
0
0
0
0
0
0
0
0
0
0
0
0
0
0
0
0
0
0
0
0
0
0
0
0
0
0
0
0
0
0
0
0
0
0
0
0
0
0
0
0
0
0
0
0
0
0
0
0
0
0
0
0
0
0
0
0
0
0
0
0
0
0
0
0
0
0
0
0
0
0
0
0
0
0
0
0
0
0
0
0
0
0
0
0
0
0
0
0
0
0
0
0
0
0
0
0
0
0
0
0
0
0
0
0
0
0
0
0
0
0
0
0
0
0
0
0
0
0
0
0
0
0
0
0
0
0
0
0
0
0
0
0
0
0
0
0
0
0
0
0
0
0
0
0
0
0
0
0
0
0
0
0
0
0
0
0
0
0
0
0
0
0
0
0
0
0
0
0
0
0
0
0
0
0
0
0
0
0
0
0
0
0
0
0
0
0
0
0
0
0
0
0
0
0
0
0
0
0
0
0
0
0
0
0
0
0
0
0
0
0
0
0
0
0
0
0
0
0
0
0
0
0
0
0
0
0
0
0
0
0
0
0
0
0
0
0
0
0
0
0
0
0
0
0
0
0
0
0
0
0
0
0
0
0
0
0
0
0
0
0
0
0
0
0
0
0
0
0
0
0
0
0
0
0
0
0
0
0
0
0
0
0
0
0
0
0
0
0
0
0
0
0
0
0
0
0
0
0
0
0
0
0
0
0
0
0
0
0
0
0
0
0
0
0
0
0
0
0
0
0
0
0
0
0
0
0
0
0
0
0
0
0
0
0
0
0
0
0
0
0
0
0
0
0
0
0
0
0
0
0
0
0
0
0
0
0
0
0
0
0
0
0
0
0
0
0
0
0
0
0
0
0
0
0
0
0
0
0
0
0
0
0
0
0
0
0
0
0
0
0
0
0
0
0
0
0
0
0
0
0
0
0
0
0
0
0
0
0
0
0
0
0
0
0
0
0
0
0
0
0
0
0
0
0
0
0
0
0
0
0
0
0
0
0
0
0
0
0
0
0
0
0
0
0
0
0
0
0
0
0
0
0
0
0
0
0
0
0
0
0
0
0
0
0
0
0
0
0
0
0
0
0
0
0
0
0
0
0
0
0
0
0
0
0
0
0
0
0
0
0
0
0
0
0
0
0
0
0
0
0
0
0
0
0
0
0
0
0
0
0
0
0
0
0
0
0
0
0
0
0
0
0
0
0
0
0
0
0
0
0
0
0
0
0
0
0
0
0
0
0
0
0
0
0
0
0
0
0
0
0
0
0
0
0
0
0
0
0
0
0
0
0
0
0
0
0
0
0
0
0
0
0
0
0
0
0
0
0
0
0
0
0
0
0
0
0
0
0
0
0
0
0
0
0
0
0
0
0
0
0
0
0
0
0
0
0
0
0
0
0
0
0
0
0
0
0
0
0
0
0
0
0
0
0
0
0
0
0
0
0
0
0
0
0
0
0
0
0
0
0
0
0
0
0
0
0
0
0
0
0
0
0
0
0
0
0
0
0
0
0
0
0
0
0
0
0
0
0
0
0
0
0
0
0
0
0
0
0
0
0
0
0
0
0
0
0
0
0
0
0
0
0
0
0
0
0
0
0
0
0
0
0
0
0
0
0
0
0
0
0
0
0
0
0
0
0
0
0
0
0
0
0
0
0
0
0
0
0
0
0
0
0
0
0
0
0
0
0
0
0
0
0
0
0
0
0
0
0
0
0
0
0
0
0
0
0
0
0
0
0
0
0
0
0
0
0
0
0
0
0
0
0
0
0
0
0
0
0
0
0
0
0
0
0
0
0
0
0
0
0
0
0
0
0
0
0
0
0
0
0
0
0
0
0
0
0
0
0
0
0
0
0
0
0
0
0
0
0
0
0
0
0
0
0
0
0
0
0
0
0
0
0
0
0
0
0
0
0
0
0
0
0
0
0
0
0
0
0
0
0
0
0
0
0
0
0
0
0
0
0
0
0
0
0
0
0
0
0
0
0
0
0
0
0
0
0
0
0
0
0
0
0
0
0
0
0
0
0
0
0
0
0
0
0
0
0
0
0
0
0
0
0
0
0
0
0
0
0
0
0
0
0
0
0
0
0
0
0
0
0
0
0
0
0
0
0
0
0
0
0
0
0
0
0
0
0
0
0
0
0
0
0
0
0
0
0
0
0
0
0
0
0
0
0
0
0
0
0
0
0
0
0
0
0
0
0
0
0
0
0
0
0
0
0
0
0
0
0
0
0
0
0
0
0
0
0
0
0
0
0
0
0
0
0
0
0
0
0
0
0
0
0
0
0
0
0
0
0
0
0
0
0
0
0
0
0
0
0
0
0
0
0
0
0
0
0
0
0
0
0
0
0
0
0
0
0
0
0
0
0
0
0
0
0
0
0
0
0
0
0
0
0
0
0
0
0
0
0
0
0
0
0
0
0
0
0
0
0
0
0
0
0
0
0
0
0
0
0
0
0
0
0
0
0
0
0
0
0
0
0
0
0
0
0
0
0
0
0
0
0
0
0
0
0
0
0
0
0
0
0
0
0
0
0
0
0
0
0
0
0
0
0
0
0
0
0
0
0
0
0
0
0
0
0
0
0
0
0
0
0
0
0
0
0
0
0
0
0
0
0
0
0
0
0
0
0
0
0
0
0
0
0
0
0
0
0
0
0
0
0
0
0
0
0
0
0
0
0
0
0
0
0
0
0
0
0
0
0
0
0
0
0
0
0
0
0
0
0
0
0
0
0
0
0
0
0
0
0
0
0
0
0
0
0
0
0
0
0
0
0
0
0
0
0
0
0
0
0
0
0
0
0
0
0
0
0
0
0
0
0
0
0
0
0
0
0
0
0
0
0
0
0
0
0
0
0
0
0
0
0
0
0
0
0
0
0
0
0
0
0
0
0
0
0
0
0
0
0
0
0
0
0
0
0
0
0
0
0
0
0
0
0
0
0
0
0
0
0
0
0
0
0
0
0
0
0
0
0
0
0
0
0
0
0
0
0
0
0
0
0
0
0
0
0
0
0
0
0
0
0
0
0
0
0
0
0
0
0
0
0
0
0
0
0
0
0
0
0
0
0
0
0
0
0
0
0
0
0
0
0
0
0
0
0
0
0
0
0
0
0
0
0
0
0
0
0
0
0
0
0
0
0
0
0
0
0
0
0
0
0
0
0
0
0
0
0
0
0
0
0
0
0
0
0
0
0
0
0
0
0
0
0
0
0
0
0
0
0
0
0
0
0
0
0
0
0
0
0
0
0
0
0
0
0
0
0
0
0
0
0
0
0
0
0
0
0
0
0
0
0
0
0
0
0
0
0
0
0
0
0
0
0
0
0
0
0
0
0
0
0
0
0
0
0
0
0
0
0
0
0
0
0
0
0
0
0
0
0
0
0
0
0
0
0
0
0
0
0
0
0
0
0
0
0
0
0
0
0
0
0
0
0
0
0
0
0
0
0
0
0
0
0
0
0
0
0
0
0
0
0
0
0
0
0
0
0
0
0
0
0
0
0
0
0
0
0
0
0
0
0
0
0
0
0
0
0
0
0
0
0
0
0
0
0
0
0
0
0
0
0
0
0
0
0
0
0
0
0
0
0
0
0
0
0
0
0
0
0
0
0
0
0
0
0
0
0
0
0
0
0
0
0
0
0
0
0
0
0
0
0
0
0
0
0
0
0
0
0
0
0
0
0
0
0
0
0
0
0
0
0
0
0
0
0
0
0
0
0
0
0
0
0
0
0
0
0
0
0
0
0
0
0
0
0
0
0
0
0
0
0
0
0
0
0
0
0
0
0
0
0
0
0
0
0
0
0
0
0
0
0
0
0
0
0
0
0
0
0
0
0
0
0
0
0
0
0
0
0
0
0
0
0
0
0
0
0
0
0
0
0
0
0
0
0
0
0
0
0
0
0
0
0
0
0
0
0
0
0
0
0
0
0
0
0
0
0
0
0
0
0
0
0
0
0
0
0
0
0
0
0
0
0
0
0
0
0
0
0
0
0
0
0
0
0
0
0
0
0
0
0
0
0
0
0
0
0
0
0
0
0
0
0
0
0
0
0
0
0
0
0
0
0
0
0
0
0
0
0
0
0
0
0
0
0
0
0
0
0
0
0
0
0
0
0
0
0
0
0
0
0
0
0
0
0
0
0
0
0
0
0
0
0
0
0
0
0
0
0
0
0
0
0
0
0
0
0
0
0
0
0
0
0
0
0
0
0
0
0
0
0
0
0
0
0
0
0
0
0
0
0
0
0
0
0
0
0
0
0
0
0
0
0
0
0
0
0
0
0
0
0
0
0
0
0
0
0
0
0
0
0
0
0
0
0
0
0
0
0
0
0
0
0
0
0
0
0
0
0
0
0
0
0
0
0
0
0
0
0
0
0
0
0
0
0
0
0
0
0
0
0
0
0
0
0
0
0
0
0
0
0
0
0
0
0
0
0
0
0
0
0
0
0
0
0
0
0
0
0
0
0
0
0
0
0
0
0
0
0
0
0
0
0
0
0
0
0
0
0
0
0
0
0
0
0
0
0
0
0
0
0
0
0
0
0
0
0
0
0
0
0
0
0
0
0
0
0
0
0
0
0
0
0
0
0
0
0
0
0
0
0
0
0
0
0
0
0
0
0
0
0
0
0
0
0
0
0
0
0
0
0
0
0
0
0
0
0
0
0
0
0
0
0
0
0
0
0
0
0
0
0
0
0
0
0
0
0
0
0
0
0
0
0
0
0
0
0
0
0
0
0
0
0
0
0
0
0
0
0
0
0
0
0
0
0
0
0
0
0
0
0
0
0
0
0
0
0
0
0
0
0
0
0
0
0
0
0
0
0
0
0
0
0
0
0
0
0
0
0
0
0
0
0
0
0
0
0
0
0
0
0
0
0
0
0
0
0
0
0
0
0
0
0
0
0
0
0
0
0
0
0
0
0
0
0
0
0
0
0
0
0
0
0
0
0
0
0
0
0
0
0
0
0
0
0
0
0
0
0
0
0
0
0
0
0
0
0
0
0
0
0
0
0
0
0
0
0
0
0
0
0
0
0
0
0
0
0
0
0
0
0
0
0
0
0
0
0
0
0
0
0
0
0
0
0
0
0
0
0
0
0
0
0
0
0
0
0
0
0
0
0
0
0
0
0
0
0
0
0
0
0
0
0
0
0
0
0
0
0
0
0
0
0
0
0
0
0
0
0
0
0
0
0
0
0
0
0
0
0
0
0
0
0
0
0
0
0
0
0
0
0
0
0
0
0
0
0
0
0
0
0
0
0
0
0
0
0
0
0
0
0
0
0
0
0
0
0
0
0
0
0
0
0
0
0
0
0
0
0
0
0
0
0
0
0
0
0
0
0
0
0
0
0
0
0
0
0
0
0
0
0
0
0
0
0
0
0
0
0
0
0
0
0
0
0
0
0
0
0
0
0
0
0
0
0
0
0
0
0
0
0
0
0
0
0
0
0
0
0
0
0
0
0
0
0
0
0
0
0
0
0
0
0
0
0
0
0
0
0
0
0
0
0
0
0
0
0
0
0
0
0
0
0
0
0
0
0
0
0
0
0
0
0
0
0
0
0
0
0
0
0
0
0
0
0
0
0
0
0
0
0
0
0
0
0
0
0
0
0
0
0
0
0
0
0
0
0
0
0
0
0
0
0
0
0
0
0
0
0
0
0
0
0
0
0
0
0
0
0
0
0
0
0
0
0
0
0
0
0
0
0
0
0
0
0
0
0
0
0
0
0
0
0
0
0
0
0
0
0
0
0
0
0
0
0
0
0
0
0
0
0
0
0
0
0
0
0
0
0
0
0
0
0
0
0
0
0
0
0
0
0
0
0
0
0
0
0
0
0
0
0
0
0
0
0
0
0
0
0
0
0
0
0
0
0
0
0
0
0
0
0
0
0
0
0
0
0
0
0
0
0
0
0
0
0
0
0
0
0
0
0
0
0
0
0
0
0
0
0
0
0
0
0
0
0
0
0
0
0
0
0
0
0
0
0
0
0
0
0
0
0
0
0
0
0
0
0
0
0
0
0
0
0
0
0
0
0
0
0
0
0
0
0
0
0
0
0
0
0
0
0
0
0
0
0
0
0
0
0
0
0
0
0
0
0
0
0
0
0
0
0
0
0
0
0
0
0
0
0
0
0
0
0
0
0
0
0
0
0
0
0
0
0
0
0
0
0
0
0
0
0
0
0
0
0
0
0
0
0
0
0
0
0
0
0
0
0
0
0
0
0
0
0
0
0
0
0
0
0
0
0
0
0
0
0
0
0
0
0
0
0
0
0
0
0
0
0
0
0
0
0
0
0
0
0
0
0
0
0
0
0
0
0
0
0
0
0
0
0
0
0
0
0
0
0
0
0
0
0
0
0
0
0
0
0
0
0
0
0
0
0
0
0
0
0
0
0
0
0
0
0
0
0
0
0
0
0
0
0
0
0
0
0
0
0
0
0
0
0
0
0
0
0
0
0
0
0
0
0
0
0
0
0
0
0
0
0
0
0
0
0
0
0
0
0
0
0
0
0
0
0
0
0
0
0
0
0
0
0
0
0
0
0
0
0
0
0
0
0
0
0
0
0
0
0
0
0
0
0
0
0
0
0
0
0
0
0
0
0
0
0
0
0
0
0
0
0
0
0
0
0
0
0
0
0
0
0
0
0
0
0
0
0
0
0
0
0
0
0
0
0
0
0
0
0
0
0
0
0
0
0
0
0
0
0
0
0
0
0
0
0
0
0
0
0
0
0
0
0
0
0
0
0
0
0
0
0
0
0
0
0
0
0
0
0
0
0
0
0
0
0
0
0
0
0
0
0
0
0
0
0
0
0
0
0
0
773.949
1155.82
4602.72
6460.32
4375.83
4412.78
7103.45
3568.94
8782.41
10352.8
5564.79
6251.29
7248.91
4349.41
782.681
454.361
1553.85
5247.3
3720.14
1414.72
4268.92
9160.3
6865.36
11205.5
5824.91
6525.98
5914.72
2617.97
9196.7
11144.3
6752.63
1274.94
164.436
354.144
56.9648
10963.7
7086.64
10041.2
478.023
3108.81
198.148
966.356
3790.23
1448.45
4675.91
3141.08
5227.21
4512.31
6074.77
10716.4
10120.8
9230.39
5270.04
678.153
3859.68
466.916
6371.9
7531.81
8020.05
291.901
53.0041
64.2978
48.4103
11243.3
10821.3
12249.5
181.818
1158.83
1216.8
6326.29
9187.09
8643.12
10437.1
4387.05
424.924
7082.61
783.857
10398.5
10119.9
11724.4
102.467
213.217
144.497
740.216
5988.8
3871.66
4711.51
11363.6
8159.86
3909.14
2868.27
7307.18
2997.79
1204.16
10616.3
10257.4
1284.73
850.533
2019.91
1959.85
1640.9
10709.1
4038.75
2490.13
1175.47
3067.6
2888.06
3786.27
860.592
1397.41
2735.28
2802.17
11500.1
9740.03
3358
11745.2
12582.8
11483.2
6978.5
12230.3
1308.17
1187.31
15007
14728.1
2456.75
1262.16
11800.5
6809.79
5098.14
13814.2
13033.6
12929.3
12459.8
2544.51
6704.03
3470.38
11862.2
6036
11377.9
5450.73
11634.4
12234.4
10189.5
12167.2
8193.12
5869.65
2247.68
24746.6
3747.17
919.615
4780.78
2696.45
928.862
295.141
13925.4
13953.9
10172.4
8477.44
2473.12
8227.3
1089.88
5270.82
11438.3
4385.43
11358.8
953.142
9349.98
550.705
427.19
422.884
53.9196
52.9572
0.147508
106.183
5.63789
172.865
29.4583
15.2525
2.67405
35.2343
7.04558
8.78659
375.726
700.664
41.9137
1176.9
279.674
728.203
22.3459
49.6357
839.478
56.6111
17.3041
3.56414
41.5638
14.1476
22.3674
138.341
-1.93154e-15
102.389
88.9341
327.52
40.5528
343.421
-1.84818e-16
43.5558
197.768
100.276
18.1707
133.226
104.338
103.816
14.2133
48.1234
42.3818
79.783
46.7223
0.589323
17.9122
12.73
4.85413
-2.84835e-16
9.60939
29.6341
17.3574
165.774
94.9709
17.7477
0
66.7087
35.9568
-6.9328e-16
157.024
59.6241
0
3.54524
113.574
56.3003
11.7605
190.974
70.2355
36.1267
18.5199
277.501
361.6
53.1939
469.77
475.909
578.972
530.322
296.238
887.563
8.36292
30.7667
25.6591
0.804629
-3.8089e-15
15.2458
16.0964
0
75.4603
32.9112
0
0
15.0066
6.63763
3.36371
29.5187
86.0574
13.4007
0
22.9242
0
83.4661
43.0638
35.6227
88.8154
-3.29997e-15
29.4534
6.21891
0
13.8661
17.549
0
0.71882
1.20252
9.69183
0
3.86184
0
0
0
1.00678
0
0
30.2434
0
7.68681
0
10.3933
0
0
28.8547
12.786
30.4605
0
7.11388
2.79332
14.7012
0
9.4898
378.279
41.4951
342.686
42.4558
0
0.720267
0
0
0
0
0
0
6.71298
0
10.7316
0
23.5023
0
0
24.8653
6.87876
0