/*--------------------------------*- C++ -*----------------------------------*\
| =========                 |                                                 |
| \\      /  F ield         | OpenFOAM: The Open Source CFD Toolbox           |
|  \\    /   O peration     | Version:  5.x                                   |
|   \\  /    A nd           | Web:      www.OpenFOAM.org                      |
|    \\/     M anipulation  |                                                 |
\*---------------------------------------------------------------------------*/
FoamFile
{
    version     2.0;
    format      ascii;
    class       volVectorField;
    location    "0.35";
    object      U;
}
// * * * * * * * * * * * * * * * * * * * * * * * * * * * * * * * * * * * * * //

dimensions      [0 1 -1 0 0 0 0];

internalField   nonuniform List<vector> 
10571
(
(0.0364025 0.267285 0.699111)
(0.0910234 0.152632 0.684837)
(0.549948 0.796014 1.53458)
(0.510644 1.23717 2.8044)
(-0.114714 0.224449 1.44611)
(0.541946 0.819636 1.5205)
(-0.328155 0.319422 1.98691)
(-0.0133347 0.0799786 1.01072)
(-0.56435 0.0412966 1.493)
(-0.374072 -0.233091 1.23358)
(0.345835 0.0872001 0.760601)
(1.46953 -0.626509 3.93136)
(0.0593335 -0.0598729 1.16739)
(-0.458522 -0.33446 1.14708)
(-0.573288 -0.648341 1.41602)
(-0.129838 -0.539628 1.12985)
(0.0693871 -0.327762 1.238)
(-0.0340038 -0.30969 1.12366)
(-0.605263 -0.191033 1.37039)
(-0.897814 -0.413244 0.916962)
(0.010978 -0.332501 0.920041)
(-0.0736019 -0.191381 1.28495)
(-0.323163 -0.209111 1.11078)
(-0.519475 0.0353548 0.620068)
(-0.0413138 0.01386 0.523914)
(0.00677705 0.0676242 0.326547)
(-0.0169783 0.2101 0.599405)
(0.158685 0.478855 1.30296)
(-0.0884712 0.152625 0.708522)
(0.144462 0.181194 0.542896)
(1.85662 1.45471 2.68877)
(1.80439 1.62065 2.75517)
(-0.214721 0.835408 1.81935)
(-0.183945 0.0438958 1.17807)
(0.0346353 0.0243746 0.341338)
(1.07679 0.349709 3.33668)
(2.81535 0.852954 2.6542)
(0.692224 0.271518 1.42934)
(0.208877 -0.498304 0.451639)
(-0.0369424 -0.342163 0.885649)
(0.0417828 -0.0493692 0.661912)
(1.64117 -0.694486 1.986)
(-0.167103 -0.253754 1.5587)
(-0.737212 -0.158702 -0.378368)
(0.148101 -0.235336 0.11391)
(-0.0434102 -0.177592 0.577558)
(0.169678 -0.580021 0.547205)
(0.158789 -0.186866 -0.367465)
(0.0109095 0.0301623 0.346915)
(0.0352788 0.0116417 0.119129)
(0.0948152 0.172496 0.21687)
(0.0510788 0.183367 0.294007)
(-0.0659684 0.118683 0.2491)
(0.0588515 0.0829037 0.22312)
(0.971791 0.718535 1.1136)
(1.57386 1.37749 2.86051)
(-0.147938 0.676091 2.41049)
(-0.371683 -0.433112 0.486918)
(-0.000550988 0.0381587 0.265999)
(0.398957 0.482161 1.25825)
(2.95522 0.614743 2.52499)
(1.24317 0.534908 2.73858)
(0.239349 -0.135783 1.62048)
(-0.331859 0.0820438 0.0748751)
(-0.00808644 0.0163706 0.445446)
(0.680886 -0.302173 1.33961)
(-0.158507 -0.0230625 2.51725)
(-0.376163 -0.292096 0.0426904)
(-0.261875 0.239131 -0.0380504)
(-0.05891 -0.102108 0.0778177)
(-0.210689 -0.321588 0.331374)
(0.110861 -0.0286484 -0.60149)
(0.0197922 -0.0152487 0.258786)
(0.0627661 0.00414965 -0.0132611)
(0.0362941 0.23706 0.097348)
(0.00999268 0.138396 0.0639215)
(0.0876015 0.396073 0.128364)
(0.146992 0.0932366 0.0874196)
(0.0691442 0.339899 1.24755)
(0.95366 0.785649 3.16679)
(-0.392812 0.543217 3.21495)
(-0.185888 0.134951 -0.551397)
(-0.0217838 0.0189024 0.444062)
(0.0148167 0.00376163 0.697811)
(2.00589 0.265066 2.38417)
(1.05509 0.418494 3.66991)
(0.409363 0.105009 2.50905)
(-0.304338 0.14522 0.0200252)
(-0.0497744 -0.0682617 0.392878)
(0.108529 -0.450307 1.98253)
(-0.486781 0.156006 3.18037)
(-0.414882 -0.19101 0.370573)
(-0.280749 0.223576 -0.391126)
(-0.894292 -0.47859 0.576517)
(-0.132962 -0.11437 -0.360717)
(0.0671972 -0.0235046 -0.669513)
(0.00859961 -0.144864 0.428574)
(0.0555192 0.123134 0.143809)
(0.00864225 0.207477 -0.0227068)
(-0.0430875 0.623873 -0.106419)
(-0.451697 0.730039 0.239757)
(0.202539 -0.0364867 -0.414821)
(-0.186427 0.455604 0.907781)
(0.600731 0.49227 3.11549)
(-0.380752 0.370875 3.51464)
(0.045939 0.13913 -0.893884)
(-0.0580738 -0.0904035 0.492038)
(-0.0161293 0.051367 0.441149)
(0.886281 0.297182 1.78979)
(0.82298 0.348439 3.81808)
(0.389561 0.238705 2.86442)
(0.00317428 -0.202561 0.360921)
(-0.18123 -0.385382 0.462287)
(-0.347023 -0.397714 2.14685)
(-0.534652 0.172779 3.14734)
(-0.255405 0.0979738 0.647414)
(-0.110456 0.126731 -0.839394)
(-0.0151834 -0.276079 -0.421971)
(-0.10941 -0.0467298 -0.370435)
(0.0186224 -0.00643188 -0.638071)
(-0.206551 0.0475632 0.434734)
(0.02298 0.0839764 -0.288853)
(0.138329 -0.0304834 -0.367221)
(-0.148061 0.215913 -0.0898946)
(0.103169 -0.000349991 -0.589248)
(0.183458 0.245676 -0.73511)
(-0.351341 0.45244 1.0787)
(0.450061 0.362699 3.04038)
(-0.291884 0.164217 3.58088)
(0.063295 0.00689281 -0.532165)
(0.000982671 0.00129103 -0.00111891)
(-0.0986648 0.521433 0.917528)
(-0.0714234 0.0502934 0.585557)
(0.299772 0.124128 1.83635)
(0.567689 0.295047 3.91705)
(0.365279 0.264709 3.07338)
(0.222269 -0.493569 0.91282)
(0.00067539 -0.00327388 -0.000747684)
(-0.345059 -0.522506 0.476097)
(-0.388837 -0.274879 2.23365)
(-0.526065 0.16247 3.05713)
(-0.0742103 0.262618 0.962027)
(0.0150438 0.0567956 -1.04914)
(0.161719 0.0748334 -1.14128)
(-0.104458 0.0501998 -0.175316)
(-0.0418377 0.00237073 -0.742691)
(-0.0188838 -0.000566412 -0.136919)
(0.0271464 -0.00941452 -0.494916)
(0.086306 -0.089591 -0.336429)
(-0.0748502 -0.0958068 -0.318977)
(0.033104 0.106598 -0.681889)
(0.153449 0.0543211 -0.588731)
(-0.347065 0.345356 1.12008)
(0.438839 0.252373 2.99564)
(-0.199882 0.0360258 3.32221)
(-0.0416433 -0.403111 -0.52739)
(0.336195 -0.246122 0.04327)
(-0.100145 0.220731 1.26689)
(-0.330348 -0.672234 0.779516)
(0.197746 -0.243804 2.0831)
(0.44865 0.260342 3.8108)
(0.377852 0.246097 3.01181)
(0.416266 -0.580578 1.27056)
(0.344277 -0.201433 0.0531543)
(-0.393658 -0.101152 0.0513305)
(-0.384473 -0.212394 2.0937)
(-0.453849 0.135485 2.97583)
(0.0224394 0.30646 1.0724)
(0.137462 -0.0438055 -1.01867)
(0.820674 0.0672655 0.17062)
(0.0077552 0.250978 -0.772601)
(-0.196678 0.119384 0.0259057)
(-0.0236346 0.0247996 -0.88302)
(0.186327 0.00585229 -0.179391)
(0.0293828 -0.0589826 -0.511939)
(0.150886 0.0163819 -0.240713)
(-0.136491 -0.129354 -0.248032)
(-0.0841047 0.12623 -0.705219)
(0.0611741 -0.152462 -0.340333)
(-0.304671 0.152613 1.10526)
(0.380847 0.192271 2.84159)
(-0.308808 -0.0991973 3.30202)
(0.323517 -0.66009 -0.0801515)
(0.036316 -0.311079 0.190497)
(-0.0143426 -0.182255 1.54543)
(-0.0309377 -0.181082 0.081735)
(-0.107304 -0.389189 1.96628)
(0.338119 0.218589 3.72427)
(0.304596 0.180776 2.84471)
(0.632175 -0.400699 1.10606)
(-0.000515072 -0.141921 0.0556532)
(0.14272 -0.131312 -0.174943)
(-0.452805 -0.212493 1.93046)
(-0.477314 0.0711178 2.78243)
(0.0433245 0.35121 1.10943)
(0.198987 0.0821818 -1.00556)
(0.373919 -0.022107 0.227486)
(-0.211807 0.277009 -0.375565)
(-0.202725 0.148969 0.143781)
(-0.0508809 0.0577445 -0.828386)
(0.20227 -0.00345905 -0.20607)
(0.0370752 -0.0147925 -0.57624)
(0.17252 -0.0094484 -0.168275)
(-0.149041 -0.0326593 -0.222332)
(-0.213296 -0.0413897 -0.53365)
(0.120273 -0.0927647 -0.157606)
(-0.304163 0.0365298 1.2387)
(0.173841 0.146102 2.68569)
(-0.458856 -0.336213 3.00134)
(-0.187186 -0.677568 0.0577278)
(-0.262908 0.0672417 0.281765)
(0.0399287 -0.200637 0.881427)
(0.186528 -0.108176 -0.186464)
(-0.147348 -0.461275 2.06553)
(0.10428 0.207154 3.73389)
(0.162118 0.234175 2.4976)
(0.705944 -0.263554 0.833864)
(-0.40206 -0.0879891 0.0826566)
(0.0739977 -0.201321 -0.193459)
(-0.396185 -0.212509 1.79239)
(-0.520279 0.0492231 2.56051)
(0.00412138 0.457344 1.11566)
(0.0677462 0.0484609 -0.909087)
(-0.23775 0.146862 -0.216295)
(-0.183283 0.186344 0.226305)
(-0.0763492 0.0518682 -0.783664)
(0.195549 -0.00155689 -0.153074)
(-0.0231048 0.000709628 -0.716714)
(0.167153 -0.123385 -0.0974752)
(-0.137777 -0.00280035 -0.107597)
(-0.242089 -0.123228 -0.313934)
(0.132901 -0.0160563 0.0195076)
(-0.311946 0.00479957 1.48068)
(-0.0801118 0.0609273 2.58317)
(-0.517825 -0.572579 2.63825)
(-0.243736 -0.555491 0.0539625)
(-0.04164 -0.312944 1.11634)
(0.187661 -0.0752122 -0.113092)
(-0.183496 -0.421809 2.13663)
(-0.169121 0.269748 3.69518)
(0.101495 0.281474 1.9698)
(-0.00921817 -0.357239 0.435311)
(-0.129937 -0.229535 -0.0169654)
(-0.299608 -0.185721 1.63733)
(-0.434037 0.11135 2.45492)
(-0.00404729 0.466106 1.06734)
(0.0674971 -0.103118 -0.79017)
(-0.256706 0.0262394 -0.132661)
(-0.168309 0.205598 0.238764)
(-0.083851 0.0880314 -0.665797)
(0.158679 0.00141794 -0.0381514)
(-0.075489 -0.117093 -0.509007)
(0.0521399 -0.149065 -0.340704)
(-0.174548 -0.0421747 0.0544932)
(-0.223484 -0.109542 -0.100122)
(0.045722 0.0419823 0.167029)
(-0.258512 -0.00542338 1.62568)
(-0.14881 0.0561034 2.50323)
(-0.51939 -0.580617 2.41953)
(-0.0540667 -0.265383 0.023951)
(-0.0195261 -0.283706 1.13624)
(0.0541515 -0.0635748 -0.109418)
(-0.237946 -0.340987 2.3209)
(-0.292412 0.302125 3.46322)
(0.0737773 0.1474 1.58012)
(0.00719625 -0.267227 0.15297)
(-0.129613 -0.145206 0.086446)
(-0.244265 -0.187828 1.54277)
(-0.230941 0.143831 2.26243)
(0.0532756 0.275672 1.04667)
(0.0655696 -0.10154 -0.782782)
(-0.259423 -0.0691742 -0.0911879)
(-0.187598 0.233184 0.287595)
(-0.0397274 0.0423966 -0.581416)
(0.137439 0.00388069 -0.00140727)
(-0.0548655 -0.11868 -0.247765)
(0.0118163 -0.0430509 -0.288052)
(-0.204221 -0.0271834 0.14615)
(-0.224549 -0.0768605 0.0580178)
(-0.0394609 0.0369579 0.275837)
(-0.193545 -0.0756561 1.76775)
(-0.12668 0.0880566 2.52244)
(-0.466108 -0.444855 2.33331)
(-0.0230807 -0.0667468 0.00386358)
(-0.0217655 -0.254234 1.11122)
(-0.131281 -0.0571026 -0.0371088)
(-0.310106 -0.230176 2.48578)
(-0.362737 0.239065 3.42591)
(0.0667461 -0.0265634 1.27524)
(-0.0252939 -0.125032 0.0142698)
(-0.045657 -0.0415072 0.131378)
(-0.174425 -0.11631 1.4618)
(-0.0288743 0.0910393 2.1596)
(0.172853 0.0527731 1.09302)
(0.0577678 -0.116736 -0.721397)
(-0.215962 -0.106766 -0.0967234)
(-0.180671 0.210476 0.276839)
(0.0175301 0.0178839 -0.529446)
(0.126074 0.0118282 0.00300019)
(-0.0496288 -0.0686161 -0.125739)
(-0.0397039 -0.039026 -0.168802)
(-0.168292 0.00289068 0.17708)
(-0.249175 -0.0377298 0.19532)
(-0.0274387 0.0551009 0.356552)
(-0.108415 -0.167827 1.8249)
(-0.0853832 0.0772143 2.53644)
(-0.271872 -0.146577 2.24869)
(0.00289373 -0.00612599 -0.014398)
(-0.021489 -0.207977 1.08918)
(-0.17887 0.0178134 -0.0348144)
(-0.327778 -0.12806 2.56832)
(-0.34495 0.1182 3.31749)
(0.0878095 -0.0749059 1.11299)
(-0.0339255 -0.0474405 -0.0445679)
(-0.0348744 -0.0271162 0.172048)
(-0.0673873 -0.0229388 1.37606)
(0.10829 0.0207489 2.01402)
(0.258946 -0.0994106 1.12405)
(0.0500394 -0.122924 -0.731553)
(-0.168029 -0.105973 -0.105442)
(-0.181515 0.174612 0.304168)
(0.0443928 -0.0131815 -0.497677)
(0.104342 0.00327144 0.00679363)
(-0.0517815 -0.0472779 -0.0151187)
(-0.096561 -0.046231 0.0126044)
(-0.130919 0.028472 0.168989)
(-0.264599 -0.0300868 0.307829)
(-0.0353965 0.125854 0.409865)
(-0.0290055 -0.198401 1.8229)
(-0.0492569 -0.0431767 2.59018)
(-0.0635151 0.0867322 2.20089)
(0.0200562 -0.0430711 0.00933472)
(-0.0300319 -0.2261 1.20941)
(-0.137918 0.066562 0.0280911)
(-0.294772 -0.0533958 2.57497)
(-0.244825 0.00363666 3.18958)
(0.107151 -0.0639138 1.11108)
(-0.0322696 0.00526942 -0.0489624)
(-0.0583582 -0.0522257 0.168699)
(0.0580582 0.0460755 1.34173)
(0.181672 -0.00582926 1.83886)
(0.261611 -0.16027 1.11219)
(0.035817 -0.102664 -0.73763)
(-0.143759 -0.0535236 -0.0950688)
(-0.158822 0.155206 0.300119)
(0.0580845 -0.0330492 -0.513952)
(0.0796104 0.00594224 0.089931)
(-0.0505739 -0.0291776 0.0736289)
(-0.137194 -0.0719616 0.146111)
(-0.108946 0.00488007 0.140927)
(-0.202108 -0.0636201 0.358868)
(-0.02981 0.175274 0.446169)
(-0.000511228 -0.163528 1.76044)
(0.00826437 -0.156905 2.57418)
(0.0691806 0.189576 2.10914)
(0.0050001 -0.107548 0.0421915)
(-0.0275515 -0.224607 1.30441)
(-0.096471 0.129496 0.12119)
(-0.248691 0.0083353 2.51677)
(-0.0778493 -0.0246779 3.05477)
(0.145573 -0.0148875 1.2047)
(-0.0385675 0.0393074 -0.0478144)
(-0.0607219 -0.0701471 0.134013)
(0.149334 0.090163 1.27106)
(0.220275 0.0409522 1.81999)
(0.239173 -0.145544 1.1306)
(0.00641833 -0.0376897 -0.73905)
(-0.117206 0.0354451 -0.042468)
(-0.0999976 0.149273 0.254558)
(0.030824 -0.0551583 -0.573412)
(0.0823058 0.00787521 0.194111)
(-0.0432016 -0.0137471 0.156291)
(-0.176803 -0.104093 0.26594)
(-0.0461209 -0.0737046 0.0994297)
(-0.0602028 -0.0721233 0.327959)
(-0.0273798 0.195977 0.481731)
(-0.0171623 -0.126996 1.79787)
(0.0841206 -0.207989 2.56196)
(0.148578 0.188098 2.05427)
(0.00113236 -0.120698 0.039384)
(-0.0279884 -0.211107 1.38201)
(-0.0699747 0.211917 0.22162)
(-0.122441 0.0989215 2.48254)
(0.106201 0.0146693 2.8496)
(0.203617 0.0420427 1.34146)
(-0.0182791 0.0266364 0.000861655)
(-0.0588705 -0.0728146 0.113323)
(0.154968 0.126437 1.1548)
(0.230915 0.124208 1.78085)
(0.220902 -0.0548115 1.21961)
(-0.0146905 0.0217343 -0.704693)
(-0.0734838 0.0997016 0.0957901)
(-0.0348204 0.162662 0.206655)
(0.0449096 -0.0587121 -0.62685)
(0.06512 0.00830315 0.254416)
(-0.0347737 0.000539092 0.237503)
(-0.166838 -0.0812268 0.339693)
(-0.0179891 -0.0492236 0.105621)
(-0.0221785 -0.0493497 0.353476)
(-0.0158983 0.192359 0.529919)
(-0.0350171 -0.0687705 1.26085)
(0.0833856 -0.190192 2.49198)
(0.199449 0.14445 2.11425)
(0.0531413 -0.0632932 0.0888522)
(-0.0258051 -0.195997 1.45765)
(-0.051741 0.268037 0.293817)
(-0.0559328 0.127046 2.18417)
(0.216292 0.11321 2.72121)
(0.282988 0.0759015 1.63792)
(0.0396225 -0.0134811 0.0452654)
(-0.0498142 -0.0522505 0.124112)
(0.135919 0.126373 1.04919)
(0.207887 0.159008 1.61293)
(0.22319 0.0428 1.32975)
(-0.0059429 0.0239185 -0.645964)
(-0.0352693 0.0813023 0.21974)
(0.00645336 0.169072 0.299409)
(0.0594969 0.025486 -0.522518)
(0.0412218 0.0082614 0.273195)
(-0.0247623 0.00977698 0.298146)
(-0.12418 -0.0232112 0.367968)
(-0.055834 0.0455745 0.139055)
(0.00119923 -0.00842967 0.362943)
(0.00459259 0.174017 0.572214)
(-0.0224798 -0.0137218 1.41577)
(0.0484872 -0.124075 2.15612)
(0.208297 0.0806791 1.87591)
(0.121244 0.00528589 0.220732)
(-0.0191381 -0.169792 1.52145)
(-0.0251137 0.282209 0.332491)
(0.0458969 0.107712 2.11496)
(0.222707 0.160533 2.37675)
(0.27812 0.0846211 1.47663)
(0.112067 -0.0151044 0.156371)
(-0.0274461 -0.0236445 0.1466)
(0.151908 0.112169 1.09236)
(0.167657 0.155236 1.61292)
(0.220318 0.128401 1.28595)
(0.0191467 0.0437088 -0.445471)
(-0.0168663 0.0616674 0.305613)
(0.0442275 0.167233 0.408257)
(0.0758655 -0.00272309 -0.19613)
(0.0671355 0.00850943 0.233789)
(-0.010776 0.0085806 0.320048)
(-0.0778532 0.0114947 0.349395)
(-0.101323 0.0695769 0.209974)
(-0.00318287 0.0115417 0.365706)
(0.0122862 0.152693 0.57737)
(-0.000162635 0.0114599 1.34277)
(0.0623328 -0.0448275 2.19346)
(0.177679 0.0384174 1.89151)
(0.120782 0.000268795 0.405512)
(-0.00743133 -0.129583 1.54664)
(0.00120986 0.265977 0.336517)
(0.106272 0.115061 1.9578)
(0.253117 0.144044 2.3242)
(0.251433 0.0666184 1.56533)
(0.111583 -0.00583324 0.323961)
(-0.0101532 -0.0212651 0.163433)
(0.160954 0.106303 1.07945)
(0.161259 0.140545 1.62758)
(0.209313 0.122894 1.35922)
(-0.0132676 0.0231856 -0.189125)
(-0.0158263 0.0491514 0.365027)
(0.0468303 0.167673 0.514705)
(0.0675394 -0.0187312 0.01057)
(0.153779 0.00678638 0.225775)
(-0.00880398 0.0126609 0.306588)
(-0.0253897 0.047983 0.326894)
(-0.117986 0.06041 0.25908)
(-0.02704 0.00637533 0.346535)
(0.0317326 0.140776 0.574719)
(0.0305644 0.0331286 1.28581)
(0.084712 0.00977017 2.10116)
(0.159239 0.0148423 1.84735)
(0.137085 0.0123384 0.579368)
(-0.0130544 -0.111054 1.5148)
(0.0298054 0.229442 0.327018)
(0.149882 0.12524 1.83053)
(0.251797 0.14337 2.25084)
(0.232497 0.0602822 1.60602)
(0.121558 -0.0272415 0.478198)
(0.00481463 -0.0394026 0.190104)
(0.171299 0.094177 1.06333)
(0.150186 0.0973896 1.64922)
(0.168563 0.105881 1.41108)
(-0.00160104 0.0173467 -0.0271466)
(-0.0285058 0.0259304 0.391817)
(0.0416045 0.150598 0.5944)
(0.035565 0.00583768 0.180151)
(0.197444 0.00958061 0.261295)
(-0.00597845 0.0265065 0.252375)
(0.073949 0.0503461 0.274342)
(-0.0983635 0.0577141 0.284059)
(-0.0408389 0.019183 0.339214)
(0.0652116 0.125441 0.565351)
(0.0552025 0.0572762 1.24384)
(0.111363 0.046031 2.04306)
(0.14368 0.0114846 1.85583)
(0.0698971 0.0361886 0.679925)
(-0.0203632 -0.105225 1.46766)
(0.0594963 0.201748 0.330404)
(0.15518 0.135118 1.72501)
(0.246087 0.121186 2.22726)
(0.19084 0.0359785 1.67716)
(0.087468 -0.0124625 0.600699)
(-0.00327783 -0.0619497 0.21902)
(0.176891 0.0929544 1.04645)
(0.146487 0.0559771 1.64694)
(0.144508 0.0821032 1.4573)
(0.00560236 0.0136499 0.0977157)
(-0.0505668 0.0153378 0.399716)
(0.0252534 0.150121 0.680558)
(0.02994 0.0347823 0.30129)
(0.195634 0.0132165 0.275224)
(-0.0207717 0.0295334 0.177375)
(0.126321 0.033405 0.19428)
(-0.0345087 0.0401729 0.271523)
(-0.0123945 0.0638953 0.373822)
(0.0470123 0.114709 0.539108)
(0.0603 0.0662169 1.21343)
(0.117779 0.0376405 2.02055)
(0.115765 0.000253059 1.86271)
(0.0697295 -0.000512268 0.758413)
(-0.0155008 -0.0862459 1.44242)
(0.084516 0.172028 0.346086)
(0.146165 0.135726 1.61765)
(0.240797 0.0997911 2.21309)
(0.168589 0.0294561 1.71698)
(0.0936879 0.00908338 0.711639)
(-0.0330317 -0.0674121 0.24271)
(0.180375 0.0994115 1.03043)
(0.145823 0.0472253 1.65215)
(0.138655 0.05029 1.49446)
(0.0189657 0.0170443 0.211598)
(-0.0685848 -0.00182732 0.410613)
(0.0104411 0.14376 0.74259)
(-0.0108637 0.0441202 0.442643)
(0.204629 0.0255154 0.180669)
(0.0216486 -0.0274644 0.0936295)
(0.109462 -0.0197071 0.0775607)
(0.106152 0.0389126 0.271389)
(-0.00551371 0.0551388 0.479472)
(-0.00305407 0.0507123 0.51862)
(0.0539153 0.072869 1.17911)
(0.108261 0.0164053 1.98796)
(0.110754 -0.014966 1.87176)
(0.0337989 -0.0267155 0.814367)
(-0.00767756 -0.0776047 1.41946)
(0.0993387 0.0961184 0.368888)
(0.128236 0.137092 1.53703)
(0.224066 0.104098 2.20015)
(0.173431 0.0447158 1.74161)
(0.0862239 0.00669468 0.82895)
(-0.0428337 -0.0794275 0.228431)
(0.169206 0.112867 1.02457)
(0.142965 0.0504465 1.66134)
(0.128127 0.0539991 1.52065)
(0.023587 0.00993896 0.304571)
(-0.0926447 -0.00871411 0.429734)
(-0.000575179 0.146322 0.81356)
(-0.0195136 0.0553579 0.569063)
(0.0250094 0.00480248 0.120893)
(0.0321457 0.037301 0.00409676)
(0.100428 -0.0863187 -0.00460465)
(0.147273 0.0179157 0.327327)
(-0.101338 -0.0408555 0.569558)
(-0.0619304 0.0379327 0.44707)
(0.0420874 0.0818797 1.15703)
(0.105434 0.0120132 1.96382)
(0.103659 -0.0186871 1.88958)
(0.0226991 -0.0711064 0.842306)
(-0.00185261 -0.0695262 1.41241)
(0.148006 0.0113528 0.401358)
(0.102803 0.140964 1.45523)
(0.209718 0.0998125 2.17627)
(0.166445 0.0500025 1.78269)
(0.0970077 -0.00071914 0.924789)
(-0.0748428 -0.0997952 0.209532)
(0.148106 0.135562 1.01271)
(0.131707 0.057049 1.67182)
(0.110651 0.0744497 1.55698)
(0.0199639 0.00752386 0.408411)
(-0.114111 -0.00558033 0.458846)
(-0.0240117 0.138943 0.884145)
(-0.0353805 0.0744765 0.701138)
(-0.0485526 -0.0118854 0.14253)
(0.0343279 -0.0466202 -0.0610091)
(0.093303 -0.122359 -0.0521562)
(0.169598 0.00588799 0.356725)
(-0.125292 -0.0978231 0.60944)
(-0.0544918 0.0182506 0.431852)
(0.0269435 0.0754052 1.12573)
(0.0958065 0.0156867 1.9506)
(0.0775337 -0.0113041 1.90323)
(-0.0104763 -0.118193 0.842894)
(0.0145109 -0.0461268 1.38185)
(0.191325 -0.0215799 0.375885)
(0.0935977 0.137404 1.35576)
(0.209331 0.0863014 2.14116)
(0.155394 0.0485985 1.80889)
(0.116615 -0.00448555 1.0219)
(-0.0863333 -0.113871 0.184631)
(0.126338 0.144311 0.985294)
(0.128109 0.0717172 1.67872)
(0.103173 0.0739699 1.58851)
(0.0259695 0.000825589 0.49777)
(-0.134941 0.005353 0.510083)
(-0.0443759 0.131487 0.934937)
(-0.0553476 0.078495 0.811784)
(-0.0461847 -0.0207548 0.190549)
(0.084038 -0.101124 -0.0336941)
(0.138134 -0.10747 -0.0300952)
(0.175227 -0.00562219 0.365824)
(-0.123438 -0.098679 0.65814)
(0.0796836 -0.0717639 0.502418)
(0.0314842 0.0744764 1.06765)
(0.0833568 0.00765681 1.93066)
(0.0681394 -0.0103292 1.90782)
(-0.0213896 -0.130826 0.836912)
(0.0411055 -0.170981 1.1119)
(0.166525 -0.0128356 0.336697)
(0.0832302 0.150236 1.276)
(0.201236 0.0902648 2.11428)
(0.149396 0.0495805 1.82555)
(0.115546 -0.0371482 1.10227)
(-0.0405257 -0.108331 0.178684)
(0.108099 0.129255 0.968299)
(0.127517 0.0866539 1.69384)
(0.0920935 0.0724924 1.61771)
(0.0294487 -0.00862953 0.566853)
(-0.147412 0.011924 0.572098)
(-0.0503491 0.129419 0.985132)
(-0.0683159 0.073689 0.900619)
(-0.045553 -0.0259038 0.251724)
(0.111091 -0.113735 -0.000266971)
(0.172562 -0.0592822 0.0196921)
(0.161854 -0.0113892 0.382132)
(-0.132558 -0.106861 0.705795)
(0.21915 -0.0314013 0.50804)
(0.066154 0.0923208 1.01008)
(0.090463 0.00699819 1.89708)
(0.0679556 -0.0173708 1.91146)
(-0.019705 -0.13702 0.835694)
(-0.0114514 0.0718529 0.571898)
(0.0804582 -0.0319091 0.323311)
(0.0944831 0.170588 1.20999)
(0.18546 0.109921 2.07847)
(0.143355 0.0471361 1.84283)
(0.106127 -0.07635 1.16065)
(-0.00909864 -0.112292 0.228156)
(0.0928417 0.0996357 0.956319)
(0.117018 0.093623 1.71343)
(0.0818767 0.0778972 1.64346)
(0.0277138 -0.0172832 0.625212)
(-0.16222 0.0225176 0.627064)
(-0.0623357 0.127672 1.05602)
(-0.0694536 0.070913 0.971116)
(-0.0518186 -0.0288527 0.312758)
(0.0876608 -0.0701079 0.00981941)
(0.174039 -0.0278197 0.0738166)
(0.14736 -0.0133616 0.413185)
(-0.129697 -0.121816 0.754744)
(0.219827 0.0480811 0.365225)
(0.0943545 0.0877108 0.978283)
(0.0863051 0.0259197 1.87392)
(0.0593006 -0.0236837 1.91261)
(-0.0237519 -0.161065 0.829482)
(-0.0016989 0.208997 0.413002)
(0.0762242 -0.0239984 0.35459)
(0.107076 0.182258 1.15819)
(0.168999 0.11696 2.04478)
(0.136702 0.038395 1.85657)
(0.106145 -0.0945937 1.20441)
(-0.0290541 -0.133735 0.295866)
(0.0762394 0.0874289 0.940308)
(0.097042 0.0901491 1.73066)
(0.073175 0.0738243 1.66622)
(0.0323114 -0.0301785 0.673203)
(-0.184106 0.0307985 0.673219)
(-0.0786821 0.124729 1.12262)
(-0.0691462 0.0719964 1.02791)
(-0.0621508 -0.0309983 0.368211)
(0.0489598 -0.0331115 0.00913819)
(0.149457 -0.020156 0.12501)
(0.13037 -0.0234831 0.451741)
(-0.122562 -0.128088 0.814328)
(0.123308 -0.0211264 0.241442)
(0.102358 0.0412462 0.927519)
(0.0612582 0.0346979 1.8561)
(0.0409056 -0.0311125 1.90406)
(-0.0248662 -0.179457 0.834935)
(-0.0239334 0.110354 0.223935)
(0.097288 -0.0155318 0.418018)
(0.0770251 0.185449 1.07527)
(0.156988 0.109892 2.03181)
(0.126806 0.0300841 1.86675)
(0.107769 -0.0989297 1.23566)
(-0.0698867 -0.157025 0.328633)
(0.0583982 0.108932 0.917938)
(0.0812356 0.0809245 1.74234)
(0.0724857 0.0647251 1.67986)
(0.0403809 -0.0497066 0.70228)
(-0.201334 0.0276175 0.714902)
(-0.0786686 0.114087 1.15684)
(-0.0654221 0.068783 1.07376)
(-0.0719264 -0.0346884 0.423055)
(0.0119416 0.00300362 0.0441588)
(0.104171 0.00308136 0.174845)
(0.125098 -0.0361334 0.487451)
(-0.124859 -0.135258 0.872243)
(0.111898 -0.0875871 0.175708)
(0.109907 -0.0150325 0.86735)
(0.0488633 0.0198456 1.83273)
(0.0357812 -0.0513081 1.8876)
(-0.0191477 -0.177671 0.85709)
(-0.0157793 0.000830069 0.188515)
(0.102075 -0.0833547 0.40877)
(0.0607187 0.161493 0.964127)
(0.148822 0.114053 2.02022)
(0.114417 0.0242604 1.87097)
(0.0974064 -0.110244 1.25549)
(-0.00152866 -0.0998517 0.336909)
(0.0420373 0.141497 0.899873)
(0.0783583 0.073885 1.74897)
(0.069497 0.0531117 1.6863)
(0.0542709 -0.0718709 0.720689)
(-0.200055 0.0261157 0.767018)
(-0.0686027 0.106711 1.17483)
(-0.0579115 0.0631606 1.12097)
(-0.0861593 -0.0366404 0.469306)
(-0.0139779 0.040549 0.104688)
(0.0730738 0.0446601 0.214358)
(0.120017 -0.0393963 0.527634)
(-0.135462 -0.153864 0.921987)
(0.0925966 -0.0406829 0.160648)
(0.130436 -0.0360303 0.840813)
(0.04916 -0.00392442 1.80801)
(0.0363323 -0.0853554 1.86733)
(-0.0122599 -0.159874 0.894572)
(-0.00810391 -0.0932511 0.273016)
(0.137563 -0.157396 0.312082)
(0.080463 0.141523 0.904031)
(0.140977 0.117695 1.99674)
(0.108733 0.0129676 1.86807)
(0.0833597 -0.121972 1.27167)
(0.13496 0.0384973 0.405601)
(0.0365499 0.148565 0.908138)
(0.0774557 0.0691356 1.75178)
(0.0620027 0.0438495 1.6887)
(0.0653529 -0.0865828 0.73968)
(-0.182161 0.0357371 0.834238)
(-0.0739251 0.0997956 1.20267)
(-0.0564962 0.0608816 1.17283)
(-0.123177 -0.0424768 0.520215)
(-0.0266152 0.0526972 0.164237)
(0.0627859 0.0464816 0.253214)
(0.0948386 -0.0388665 0.548523)
(-0.150569 -0.177575 0.972015)
(0.0370249 -0.00423413 0.107426)
(0.138442 -0.0472387 0.8157)
(0.0434998 -0.0257798 1.78888)
(0.0332761 -0.106574 1.84768)
(-0.00439383 -0.145603 0.932017)
(-0.0314141 0.0287601 0.513708)
(0.114031 -0.0646324 0.269705)
(0.0951932 0.1305 0.850295)
(0.131796 0.104211 1.97236)
(0.105857 -0.00887953 1.85932)
(0.0774651 -0.118319 1.29835)
(0.069113 -0.00703934 0.488707)
(0.0329436 0.139594 0.918597)
(0.0699582 0.0631776 1.75427)
(0.0560434 0.0385853 1.68982)
(0.0614541 -0.0694723 0.751057)
(-0.168946 0.0407762 0.90436)
(-0.095572 0.0882828 1.24637)
(-0.064984 0.0629371 1.21781)
(-0.172589 -0.0456799 0.583502)
(-0.0389706 0.0572337 0.215113)
(0.0258072 0.0260675 0.306379)
(0.0254499 -0.0333106 0.570706)
(-0.164573 -0.191934 1.01347)
(0.0689313 -0.0317743 0.0672528)
(0.125151 -0.0453358 0.799659)
(0.0320947 -0.0373458 1.77304)
(0.0299258 -0.104725 1.82639)
(-0.00347001 -0.144315 0.953783)
(-0.00243667 0.0840118 0.614325)
(0.128306 -0.0197068 0.22481)
(0.0963344 0.106771 0.794888)
(0.129553 0.0855896 1.95093)
(0.104175 -0.0242395 1.84571)
(0.0813177 -0.0994654 1.33395)
(-0.00887174 -0.0847696 0.579652)
(0.0281068 0.11837 0.91172)
(0.0604714 0.0550664 1.75392)
(0.0526208 0.0334034 1.68673)
(0.040731 -0.0165756 0.769882)
(-0.163942 0.0367838 0.965237)
(-0.106799 0.0891954 1.28957)
(-0.0759999 0.061492 1.23745)
(-0.206495 -0.044121 0.651184)
(-0.066965 0.0748661 0.272434)
(-0.030782 0.026022 0.368869)
(0.0060643 -0.0303138 0.605084)
(-0.167613 -0.193746 1.04542)
(0.0928103 -0.0421 0.047206)
(0.111299 -0.0193164 0.782551)
(0.0173343 -0.0465615 1.74779)
(0.0268758 -0.104163 1.80072)
(-0.00937616 -0.147799 0.963058)
(0.0489129 0.0933567 0.394616)
(0.121513 -0.0263149 0.212959)
(0.0873617 0.100313 0.763528)
(0.124601 0.0788101 1.92769)
(0.0991516 -0.0233433 1.83258)
(0.0839609 -0.0756138 1.36401)
(-0.066587 -0.14114 0.681769)
(0.00826366 0.0776226 0.883771)
(0.0465344 0.0504705 1.74837)
(0.0507378 0.0287327 1.67226)
(0.0218056 0.0251613 0.810059)
(-0.185086 0.0199725 1.01102)
(-0.1067 0.0952463 1.31788)
(-0.0811593 0.0599275 1.23568)
(-0.227245 -0.0420103 0.708999)
(-0.104224 0.112406 0.318708)
(-0.0831394 0.0783459 0.41355)
(0.00049426 -0.0337536 0.659795)
(-0.160725 -0.190095 1.07568)
(0.0660219 -0.00818638 0.0435127)
(0.0882253 0.0109616 0.748242)
(-0.00162101 -0.0640857 1.72437)
(0.0149041 -0.116364 1.76956)
(-0.0157164 -0.142997 0.971159)
(0.0116833 0.047951 0.17597)
(0.0916739 -0.0745971 0.221069)
(0.0631199 0.118346 0.749999)
(0.100867 0.084547 1.9001)
(0.0818485 -0.0161102 1.81344)
(0.0748995 -0.0618065 1.37399)
(-0.109936 -0.178455 0.744676)
(-0.0160106 0.0491656 0.860148)
(0.0264948 0.0548259 1.73707)
(0.0453052 0.0275955 1.65119)
(0.00719843 0.0430775 0.856331)
(-0.21633 -0.0103548 1.03598)
(-0.114041 0.0962784 1.31973)
(-0.0804625 0.0559254 1.23181)
(-0.245214 -0.0432779 0.757584)
(-0.130071 0.144415 0.323222)
(-0.127228 0.131085 0.419444)
(-0.0241822 -0.0486666 0.714181)
(-0.153908 -0.186434 1.10393)
(0.0397144 0.040662 0.0795164)
(0.063932 0.0189359 0.737818)
(-0.0106629 -0.0739939 1.70075)
(-0.00109545 -0.126317 1.73643)
(-0.0197899 -0.122611 0.980298)
(-0.00358275 0.0119517 0.136781)
(0.0752432 -0.1225 0.23125)
(0.0371071 0.1306 0.743047)
(0.0773216 0.0841796 1.85586)
(0.0664038 -0.0201185 1.7808)
(0.0616345 -0.0621813 1.36443)
(-0.122405 -0.181802 0.764964)
(-0.0337777 0.0362448 0.8589)
(0.00725605 0.0531063 1.71607)
(0.0416413 0.0347869 1.62824)
(-0.00227229 0.0498426 0.89195)
(-0.225692 -0.0361412 1.04089)
(-0.126404 0.0918944 1.30956)
(-0.0773292 0.0514216 1.22081)
(-0.252154 -0.0472217 0.79386)
(-0.145607 0.15759 0.305604)
(-0.162272 0.149836 0.396314)
(-0.0428966 -0.0764017 0.754849)
(-0.149703 -0.180883 1.1201)
(0.0191864 0.0858994 0.135146)
(0.0560304 0.0150201 0.747615)
(-0.0154991 -0.0628389 1.66782)
(-0.00212294 -0.122711 1.70901)
(-0.0162328 -0.101487 0.990389)
(-0.0102646 -0.016476 0.161157)
(0.0628773 -0.137071 0.243137)
(0.0225996 0.125818 0.741421)
(0.0706971 0.0698059 1.8074)
(0.0583772 -0.0352961 1.74359)
(0.0456226 -0.0648977 1.34512)
(-0.114853 -0.166994 0.764442)
(-0.0468048 0.0243777 0.87047)
(-0.00572307 0.0339633 1.69238)
(0.0427864 0.0382246 1.59888)
(-0.007101 0.0538631 0.916648)
(-0.220632 -0.044219 1.04017)
(-0.147475 0.0764643 1.29017)
(-0.0829546 0.0490669 1.19757)
(-0.256836 -0.0472044 0.82497)
(-0.141635 0.146932 0.289253)
(-0.1678 0.133059 0.37823)
(-0.0536599 -0.0926197 0.77737)
(-0.146451 -0.176715 1.12657)
(0.00032836 0.108126 0.186892)
(0.0493514 0.0170935 0.776667)
(-0.0341728 -0.0548015 1.63908)
(0.00693923 -0.115162 1.68489)
(-0.0128468 -0.094403 1.00131)
(-0.0151529 -0.0228198 0.212613)
(0.0499146 -0.115649 0.258959)
(0.0167412 0.106017 0.744499)
(0.0647821 0.0588593 1.77701)
(0.0486409 -0.0360682 1.70958)
(0.0447378 -0.062877 1.3293)
(-0.110579 -0.158929 0.761649)
(-0.0615014 0.00395484 0.887512)
(-0.0146659 0.0217816 1.66331)
(0.0475343 0.0317908 1.56251)
(-0.00928386 0.0584502 0.935864)
(-0.20982 -0.042209 1.04074)
(-0.160382 0.0633036 1.26799)
(-0.101683 0.0520798 1.15056)
(-0.257387 -0.0397976 0.850195)
(-0.129762 0.118957 0.303054)
(-0.161554 0.100686 0.386887)
(-0.0615445 -0.0846595 0.77938)
(-0.140548 -0.175352 1.13069)
(-0.0136324 0.119134 0.232548)
(0.0190025 0.0417596 0.831624)
(-0.0615554 -0.0683892 1.61349)
(0.00219743 -0.117574 1.65004)
(-0.0132494 -0.096878 1.01298)
(-0.016968 -0.0141508 0.2741)
(0.0320218 -0.0848493 0.282851)
(0.00668007 0.0702137 0.767435)
(0.0490652 0.0677096 1.74747)
(0.0410832 -0.0157864 1.67013)
(0.0510229 -0.0591031 1.3121)
(-0.113752 -0.160378 0.761042)
(-0.0793364 -0.0192885 0.900145)
(-0.0269416 0.0372694 1.62777)
(0.0470001 0.0291161 1.51605)
(-0.00993187 0.059109 0.957081)
(-0.198221 -0.0385865 1.0415)
(-0.161195 0.0610836 1.24774)
(-0.10847 0.0537045 1.09416)
(-0.250861 -0.0300806 0.866377)
(-0.120572 0.0980319 0.343247)
(-0.148895 0.076196 0.399322)
(-0.0800588 -0.0899904 0.768896)
(-0.132778 -0.173074 1.13786)