/*--------------------------------*- C++ -*----------------------------------*\
| =========                 |                                                 |
| \\      /  F ield         | OpenFOAM: The Open Source CFD Toolbox           |
|  \\    /   O peration     | Version:  5.x                                   |
|   \\  /    A nd           | Web:      www.OpenFOAM.org                      |
|    \\/     M anipulation  |                                                 |
\*---------------------------------------------------------------------------*/
FoamFile
{
    version     2.0;
    format      ascii;
    class       volVectorField;
    location    "0.35";
    object      Us;
}
// * * * * * * * * * * * * * * * * * * * * * * * * * * * * * * * * * * * * * //

dimensions      [0 1 -1 0 0 0 0];

internalField   nonuniform List<vector> 
10571
(
(-0.0802612 -0.0138646 0.0313939)
(-0.0257583 0.0267472 0.0103532)
(-0.100404 0.00817914 0.0675994)
(-0.353636 -0.384855 0.130758)
(-0.213154 -0.278353 0.11658)
(-0.0628771 0.0581314 0.094235)
(-0.474769 -0.332647 0.109787)
(-0.417867 -0.410948 0.0412995)
(-0.333172 -0.482562 -0.0222357)
(-0.129301 -0.349735 0.0356248)
(-0.0046816 -0.0320634 0.0338289)
(-0.529516 -0.241677 0.132702)
(-0.521342 -0.256759 0.068952)
(-0.557661 -0.377792 -0.0359889)
(-0.395748 -0.485113 -0.195584)
(-0.00489425 -0.423236 -0.119301)
(-0.15914 -0.164634 0.0806196)
(-0.549312 -0.155034 0.048878)
(-0.627192 -0.171205 -0.0904503)
(-0.467972 -0.195495 -0.387951)
(0.0573836 -0.174748 -0.158624)
(-0.355521 -0.0607464 0.125735)
(-0.491471 0.0200576 -0.0104733)
(-0.275799 0.0651738 -0.284803)
(-0.0759412 -0.0125801 0.0873756)
(-0.00948328 0.0276147 -0.0215143)
(-0.0429601 0.0593686 0.0561093)
(-0.238401 -0.124267 0.173756)
(-0.201006 -0.120145 0.171507)
(-0.00736429 0.0812477 0.0433154)
(-0.14066 -0.121328 0.22407)
(0.018529 -0.0175351 -0.0589701)
(-0.210526 0.134638 -0.462351)
(-0.0968065 0.0363885 -0.344148)
(-0.00207426 -0.0240153 0.0431062)
(-0.306307 -0.171005 0.254892)
(-0.0761805 -0.0928967 0.109339)
(0.117415 0.068189 -0.457186)
(-0.185231 -0.0014311 -1.16868)
(-0.143444 0.0591902 -1.10263)
(-0.1638 -0.131532 0.176061)
(-0.145141 -0.179043 0.0348879)
(0.221482 -0.150263 -0.776641)
(-0.209801 -0.115232 -1.13303)
(0.0453535 -0.130479 -0.822479)
(-0.204681 -0.114425 0.143524)
(0.210589 -0.0958368 -1.07023)
(0.0448008 -0.0500451 -1.2534)
(-0.0217579 0.00167997 0.106923)
(0.0245546 0.00835841 -0.120487)
(0.0379132 0.118649 -0.0189204)
(-0.0596073 0.055232 0.141415)
(-0.101662 0.0123518 0.1103)
(0.0317164 0.126554 -0.00161208)
(-0.00431655 0.0523046 0.168891)
(0.0670554 0.0442353 -0.0107006)
(-0.086484 0.108698 -0.360197)
(-0.0499569 0.0938018 -1.28086)
(-0.0015993 0.00429909 0.0801474)
(-0.0707147 -0.0482302 0.256968)
(0.0425545 -0.0568491 0.023851)
(0.136988 0.103959 -0.369914)
(-0.109832 0.0099283 -1.17482)
(-0.178573 0.0748086 -1.18921)
(-0.100787 -0.119326 0.216556)
(-0.0491312 -0.192096 0.0360129)
(0.0655448 -0.0842064 -0.947779)
(-0.0249902 -0.0417132 -1.38128)
(-0.0770168 0.0549298 -1.32229)
(-0.0867884 -0.102916 -0.0227824)
(0.105796 -0.028748 -1.3789)
(0.103286 -0.0606341 -1.38269)
(0.00912804 -0.0200143 0.0732835)
(0.0577648 -0.00496906 -0.212043)
(0.0129109 0.165528 -0.0810719)
(-0.00449548 0.10687 0.0195338)
(0.10172 0.029701 -0.415599)
(0.0934186 0.0920597 -0.0541453)
(0.00787405 0.150155 0.189368)
(0.0426265 0.069429 -0.134078)
(-0.0526968 0.060393 -0.459455)
(0.00763034 0.105401 -1.34171)
(-0.00968519 0.00947084 0.206519)
(-0.0452197 -0.0142757 0.331807)
(0.0617037 -0.0269892 -0.0443443)
(0.0794553 0.0809179 -0.707755)
(-0.045355 -0.0137383 -1.17957)
(-0.17944 0.0960767 -1.1867)
(-0.106234 -0.119993 0.237804)
(-0.0225626 -0.197073 0.0476072)
(-0.0331028 -0.0523849 -1.06023)
(-0.02405 -0.0366215 -1.33795)
(-0.0826746 0.038402 -1.31)
(0.0967284 -0.0126797 -0.951156)
(0.113065 -0.0195839 -1.37722)
(0.0865604 -0.0523762 -1.35627)
(0.0512711 -0.0848593 0.319522)
(-0.012224 0.0827269 -0.57389)
(-0.0522788 0.200388 -0.631214)
(0.107399 0.296376 -0.333892)
(0.0339881 0.046619 -1.27347)
(0.156775 -0.0248987 -0.887135)
(0.0731523 0.0673065 -0.84673)
(0.0458878 0.0925702 -0.623756)
(0.0374552 0.0742201 -1.06919)
(0.00356105 0.0968788 -1.29596)
(-0.0499853 -0.111588 0.474831)
(-0.0516341 -0.0784768 0.429783)
(0.0670356 -0.0117983 -0.592429)
(0.0969169 0.06535 -0.702888)
(-0.0202008 -0.0063102 -1.13761)
(-0.196659 0.06703 -1.04826)
(-0.113683 -0.0919243 0.231636)
(0.0671333 -0.0451777 -0.649247)
(-0.00804842 -0.0351173 -1.03952)
(-0.0128209 -0.0463556 -1.30284)
(-0.0430881 0.0117834 -1.32489)
(0.145458 0.0365012 -1.31996)
(0.115487 -0.0185942 -1.34776)
(0.0682729 -0.0380951 -1.32198)
(-0.00255705 0.00673898 -1.06982)
(0.00899128 0.00605639 -1.33886)
(-0.0442597 0.00409036 -1.24248)
(-0.00151202 0.0343708 -1.27747)
(0.0338143 0.0309223 -1.26283)
(0.0336773 -0.0622667 -1.334)
(0.080121 0.00365998 -1.0383)
(0.0603151 0.118041 -0.771956)
(0.0328872 0.0996163 -0.991121)
(0.00933512 0.108817 -1.20089)
(0.000271378 0.00137816 -0.00160618)
(-0.0236081 -0.0631409 -0.403493)
(0.0373284 0.0333397 -0.898228)
(0.0694613 0.0318288 -0.715294)
(0.0733383 0.0814515 -0.705823)
(0.00179675 -0.00837723 -1.05938)
(-0.0458732 0.0239363 -1.20282)
(-0.00242025 -0.00108704 -0.00187626)
(0.0240274 0.0419061 -0.852918)
(0.107165 0.0611378 -1.1081)
(-0.0181181 -0.0312779 -1.05091)
(0.00402006 -0.0204693 -1.17961)
(-0.0162535 0.000604063 -1.30995)
(0.11577 0.0525994 -1.28247)
(0.0886397 -0.0150468 -1.30016)
(0.0410579 -0.024345 -1.28035)
(-0.0734515 0.0214957 -1.14077)
(0.0315381 0.020283 -1.27106)
(-0.00118271 -0.0173421 -1.09334)
(-0.0316046 0.0276388 -1.17778)
(-0.0410716 0.0813143 -1.29576)
(0.0472137 -0.0749056 -1.26945)
(0.0707362 -5.18358e-05 -0.977635)
(0.0241384 0.119695 -0.802085)
(0.0388571 0.0905041 -0.939272)
(0.0428609 0.0543072 -1.1576)
(0.156853 0.0153885 -0.111792)
(5.16003e-18 -5.02796e-17 6.49662e-16)
(0.00556867 -0.047005 -1.01593)
(0.109022 0.0019727 -0.972054)
(0.0881446 0.096031 -0.651554)
(0.0131241 -0.00731796 -1.00952)
(0.00338963 -0.00581335 -1.20181)
(0.0105628 -0.151191 0.0754903)
(0.00872452 0.0290911 -1.11973)
(0.121728 0.0537786 -1.02151)
(-0.00524242 -0.0317788 -0.996059)
(-0.00780146 -0.0340041 -1.19104)
(-0.00727658 -0.0180952 -1.28539)
(0 0 0)
(0.0783792 0.0319089 -1.22293)
(0.0644447 -0.014413 -1.24812)
(0.0139954 -0.0227661 -1.2569)
(0 0 0)
(0.0285489 0.0131253 -1.27065)
(-7.60556e-17 -8.87318e-17 1.07735e-15)
(0 0 0)
(0 0 0)
(0.0552917 -0.0784888 -1.20555)
(0.0806003 -0.045406 -0.924265)
(0.00172108 0.10456 -0.834524)
(0.029881 0.0928046 -0.835033)
(0.00219834 0.0176212 -1.14841)
(0 0 0)
(-0.0149124 -0.00801736 -0.763496)
(0.0489171 -0.00933189 -1.17228)
(0.111374 -0.027551 -0.878194)
(0.0820338 0.104234 -0.630699)
(0.0250822 0.0440909 -0.884227)
(0.00693092 0.0489128 -1.12055)
(0 0 0)
(0.0519817 0.0393718 -1.16011)
(0.141582 0.0467326 -0.940222)
(0.0607039 -0.0186534 -0.947428)
(0.0126649 -0.0388984 -1.1115)
(-0.000828112 -0.0188205 -1.25391)
(0 0 0)
(0.046052 0.0350441 -1.17077)
(0.0737861 -0.00430759 -1.19813)
(0.0155838 -0.00656635 -1.22563)
(0 0 0)
(0.0122232 0.0297102 -1.21139)
(0 0 0)
(0 0 0)
(8.67961e-17 5.73293e-17 1.06136e-15)
(0.0619253 -0.0767127 -1.13607)
(0.0951738 -0.0403198 -0.848141)
(0.00619286 0.100035 -0.769745)
(0.0159023 0.0683305 -0.829544)
(-0.0154948 0.00293514 -1.16664)
(0 0 0)
(-0.0306399 -0.0672756 -0.861067)
(0.0447207 -0.0129348 -1.1382)
(0.130266 -0.0166167 -0.78699)
(0.0851965 0.0952442 -0.610019)
(0.0212492 0.0547342 -0.85034)
(0.0112048 0.0402461 -1.03914)
(0 0 0)
(0.0422973 0.0321427 -1.06204)
(0.128918 0.0398061 -0.912817)
(0.0890881 0.0058306 -0.884365)
(0.0497136 -0.0342957 -1.00808)
(0.00500589 -0.028665 -1.22692)
(0.0256275 0.029031 -1.11845)
(0.0817138 -0.00928676 -1.13117)
(0.00552656 -0.0167186 -1.16842)
(0.0618768 -0.0680004 -1.20931)
(-0.0171959 -0.0135045 -1.15641)
(0.0166788 -0.0780556 -1.1248)
(0 0 0)
(0 0 0)
(0.0609016 -0.0818885 -1.07964)
(0.118503 -0.0487947 -0.788318)
(0.0487768 0.0688202 -0.695487)
(-0.00641071 0.0597109 -0.840665)
(-0.00694205 0.00111529 -1.08205)
(0.0106613 -0.0557987 -0.845487)
(-0.000432733 0.0172626 -1.20911)
(0.135978 -0.0050593 -0.735294)
(0.109249 0.0498384 -0.626424)
(0.00993424 0.0286264 -0.883282)
(0.000323195 0.0423898 -1.06694)
(-0.0157025 0.0457149 -1.15826)
(0.109526 0.0340322 -0.886762)
(0.0833031 -0.00679686 -0.875329)
(0.0118766 -0.0442263 -0.994642)
(0.00235892 -0.0204168 -1.18675)
(0.0023646 -0.0716981 -1.07677)
(0.0635945 -0.0127706 -1.10259)
(0.0106335 0.00185019 -1.12707)
(0 0 0)
(-0.0415599 -0.0616366 -1.11535)
(0.00868809 -0.0543622 -1.13264)
(0 0 0)
(0 0 0)
(-0.0385112 -0.0122691 -1.11033)
(0.0779804 -0.0176454 -0.746103)
(0.0692421 0.0592385 -0.650096)
(-0.0194043 0.0595558 -0.817264)
(-0.00418639 0.00923919 -1.08509)
(0 0 0)
(-0.0357813 0.0164856 -1.17839)
(0.107704 0.00276434 -0.737009)
(0.127077 0.0157587 -0.630071)
(0.00461525 0.017572 -0.865062)
(0.00118186 0.0386624 -1.06278)
(-0.0164478 0.0388261 -1.1346)
(0.103177 0.0357033 -0.827548)
(0.0842251 -0.00202868 -0.845044)
(1.27733e-06 -0.0258966 -0.982843)
(0.00515459 -0.0292699 -1.1525)
(0.0522917 0.0786426 -1.00331)
(0.0486084 -0.046913 -1.04263)
(-0.0383588 0.000218579 -1.09877)
(0 0 0)
(0 0 0)
(0.0116779 -0.051203 -1.10097)
(0 0 0)
(0.0183225 -0.0450183 -1.09937)
(1.0362e-17 2.35624e-17 9.21576e-16)
(0.106581 -0.0445568 -0.705232)
(0.0976942 0.0283421 -0.623502)
(-0.0469304 0.0436091 -0.863899)
(-0.0273853 0.0180978 -1.0819)
(-3.93405e-19 4.92172e-17 5.66434e-16)
(-0.0213447 0.0251098 -1.12285)
(0.0531854 0.0278449 -0.757589)
(0.135767 0.0359549 -0.592327)
(-0.0199395 0.0118407 -0.86754)
(-0.0146414 0.0355039 -1.04249)
(0 0 0)
(0.0684754 0.0245892 -0.864808)
(0.0557112 -0.0236964 -0.83368)
(0.00548692 -0.010535 -0.908954)
(0.00129209 -0.0214492 -1.10357)
(0.00115115 -0.0418598 -0.952057)
(0.0209066 -0.0533814 -1.00713)
(0.0147325 -0.00213291 -1.04663)
(0.0278448 0.0690208 -1.03813)
(0 0 0)
(0.0145215 -0.0564393 -1.05741)
(0 0 0)
(0 0 0)
(-0.0330229 -0.00446799 -1.04818)
(0.0945681 -0.0353674 -0.677036)
(0.0728204 0.0488385 -0.582229)
(-0.0515962 0.0430311 -0.830115)
(-0.00743209 0.0363974 -1.04988)
(0.00504601 -0.0375154 -0.805599)
(-0.0276684 0.0279982 -1.08171)
(0.0939348 0.0128679 -0.686444)
(0.111216 0.0141506 -0.588195)
(-0.0339689 -4.54788e-05 -0.846423)
(-0.0263181 0.0185148 -1.01079)
(0 0 0)
(0.0561249 0.0678746 -0.847872)
(0.0305166 -0.0502826 -0.810646)
(0.027083 -0.0231676 -0.859749)
(-0.00362377 -0.0210694 -1.06041)
(0.0395965 0.0800633 -0.916034)
(0.0357647 -0.0559785 -0.942348)
(-0.00239153 -0.0162125 -1.0221)
(-3.10332e-17 6.52913e-17 9.21488e-16)
(0 0 0)
(3.72111e-18 5.04693e-17 8.91661e-16)
(0 0 0)
(0 0 0)
(-0.0228588 -0.0326512 -0.98877)
(0.0823475 -0.00128453 -0.642219)
(0.123225 -0.0140802 -0.549207)
(-0.054476 0.0369453 -0.806566)
(-0.0324898 0.0196866 -0.945207)
(0 0 0)
(0 0 0)
(0.107309 0.0194916 -0.645382)
(0.098488 0.0491107 -0.544102)
(-0.0366864 -0.00831896 -0.832021)
(-0.0393802 0.016996 -0.960939)
(0 0 0)
(0.0540988 0.0730287 -0.792825)
(0.0343447 -0.0286208 -0.773019)
(-0.0533869 -0.00163205 -0.863848)
(-0.0152396 -0.0212509 -1.0054)
(0.036216 0.0876544 -0.889361)
(0.0271777 0.017773 -0.913238)
(0.00758575 -0.0254601 -0.967363)
(0 0 0)
(0 0 0)
(0.00313763 -0.0601786 -0.919816)
(0.0208709 -0.047157 -0.983248)
(0.0600795 -0.0496667 -0.943869)
(0 0 0)
(0.0378097 -0.00530656 -0.66423)
(0.0790185 0.0315506 -0.548136)
(-0.0812758 0.0302877 -0.798514)
(-0.0416079 0.00209649 -0.905093)
(0 0 0)
(0 0 0)
(0.0493836 0.0555179 -0.680783)
(0.140317 0.0237233 -0.561641)
(-0.0218457 0.0121181 -0.758428)
(-0.0449577 0.0275754 -0.930918)
(0 0 0)
(0.041233 0.0876141 -0.793743)
(0.0147415 -0.0179 -0.731478)
(-0.0635071 0.00096271 -0.81005)
(-0.0105814 -0.0236103 -0.934228)
(0.0343437 0.0955556 -0.830838)
(0.0314335 0.0619069 -0.851259)
(0.0212155 -0.0391958 -0.884095)
(0 0 0)
(0 0 0)
(0 0 0)
(0.0173977 -0.0360513 -0.860026)
(-5.22811e-17 3.00433e-17 7.48887e-16)
(0 0 0)
(0.00328677 0.00111539 -0.689958)
(0.115564 -0.00671911 -0.499031)
(-0.0588136 0.0542771 -0.710125)
(-0.05086 0.043168 -0.827174)
(0 0 0)
(0 0 0)
(0.0277712 0.0523608 -0.670689)
(0.141559 0.0364666 -0.520717)
(-0.0132963 0.0168572 -0.679952)
(-0.0538684 0.0551356 -0.876212)
(0 0 0)
(0.0390001 0.0946472 -0.780487)
(0.0669032 0.0951484 -0.746719)
(0.00227301 -0.0994972 -0.781204)
(-0.00111886 -0.0233637 -0.847766)
(0 0 0)
(0.067489 0.113619 -0.793627)
(-0.018427 -0.0336388 -0.793863)
(0 0 0)
(0 0 0)
(0 0 0)
(-1.45509e-17 3.73692e-17 7.5462e-16)
(0 0 0)
(0 0 0)
(0.00538831 0.00285283 -0.703692)
(0.0366952 0.0118602 -0.609214)
(0.0426183 0.0508503 -0.562647)
(-0.062006 0.0427206 -0.75735)
(0 0 0)
(0 0 0)
(0.0283499 0.0606695 -0.687631)
(0.0596189 0.060974 -0.610481)
(-0.180143 -0.08198 -0.699513)
(-0.0637531 0.00516415 -0.765698)
(0 0 0)
(0.0395614 0.0892346 -0.727214)
(0.081844 0.102467 -0.682213)
(0 0 0)
(0.00231585 -0.00104077 -0.730495)
(0 0 0)
(0.0768935 0.125464 -0.747338)
(0.0469259 0.0311102 -0.692334)
(0 0 0)
(0 0 0)
(0 0 0)
(0 0 0)
(0 0 0)
(0 0 0)
(0 0 0)
(0.0619108 0.00696422 -0.556277)
(0.101068 0.00490213 -0.601833)
(0.111013 -0.00142689 -0.664676)
(0 0 0)
(0 0 0)
(0.0248789 0.0468467 -0.614336)
(0.0834873 0.0531587 -0.540282)
(0.122586 0.0611519 -0.598822)
(0.135461 0.0374538 -0.697645)
(0 0 0)
(0 0 0)
(0.089841 0.0912823 -0.598636)
(0.11498 0.0950947 -0.605619)
(0.0626197 0.0567311 -0.607068)
(0 0 0)
(0 0 0)
(0 0 0)
(0 0 0)
(0 0 0)
(0 0 0)
(0 0 0)
(0 0 0)
(0 0 0)
(0 0 0)
(-6.69381e-17 -1.37468e-17 4.85471e-16)
(0.111089 0.0138603 -0.541379)
(0 0 0)
(0 0 0)
(0 0 0)
(0 0 0)
(0.0977576 0.0704238 -0.528847)
(0.10443 0.0503246 -0.560221)
(-1.39183e-16 -4.85284e-17 5.74421e-16)
(0 0 0)
(0 0 0)
(0 0 0)
(0 0 0)
(0 0 0)
(0 0 0)
(0 0 0)
(0 0 0)
(0 0 0)
(0 0 0)
(0 0 0)
(0 0 0)
(0 0 0)
(0 0 0)
(0 0 0)
(0 0 0)
(0 0 0)
(0 0 0)
(0 0 0)
(0 0 0)
(0 0 0)
(0 0 0)
(0 0 0)
(0 0 0)
(0 0 0)
(0 0 0)
(0 0 0)
(0 0 0)
(0 0 0)
(0 0 0)
(0 0 0)
(0 0 0)
(0 0 0)
(0 0 0)
(0 0 0)
(0 0 0)
(0 0 0)
(0 0 0)
(0 0 0)
(0 0 0)
(0 0 0)
(0 0 0)
(0 0 0)
(0 0 0)
(0 0 0)
(0 0 0)
(0 0 0)
(0 0 0)
(0 0 0)
(0 0 0)
(0 0 0)
(0 0 0)
(0 0 0)
(0 0 0)
(0 0 0)
(0 0 0)
(0 0 0)
(0 0 0)
(0 0 0)
(0 0 0)
(0 0 0)
(0 0 0)
(0 0 0)
(0 0 0)
(0 0 0)
(0 0 0)
(0 0 0)
(0 0 0)
(0 0 0)
(0 0 0)
(0 0 0)
(0 0 0)
(0 0 0)
(0 0 0)
(0 0 0)
(0 0 0)
(0 0 0)
(0 0 0)
(0 0 0)
(0 0 0)
(0 0 0)
(0 0 0)
(0 0 0)
(0 0 0)
(0 0 0)
(0 0 0)
(0 0 0)
(0 0 0)
(0 0 0)
(0 0 0)
(0 0 0)
(0 0 0)
(0 0 0)
(0 0 0)
(0 0 0)
(0 0 0)
(0 0 0)
(0 0 0)
(0 0 0)
(0 0 0)
(0 0 0)
(0 0 0)
(0 0 0)
(0 0 0)
(0 0 0)
(0 0 0)
(0 0 0)
(0 0 0)
(0 0 0)
(0 0 0)
(0 0 0)
(0 0 0)
(0 0 0)
(0 0 0)
(0 0 0)
(0 0 0)
(0 0 0)
(0 0 0)
(0 0 0)
(0 0 0)
(0 0 0)
(0 0 0)
(0 0 0)
(0 0 0)
(0 0 0)
(0 0 0)
(0 0 0)
(0 0 0)
(0 0 0)
(0 0 0)
(0 0 0)
(0 0 0)
(0 0 0)
(0 0 0)
(0 0 0)
(0 0 0)
(0 0 0)
(0 0 0)
(0 0 0)
(0 0 0)
(0 0 0)
(0 0 0)
(0 0 0)
(0 0 0)
(0 0 0)
(0 0 0)
(0 0 0)
(0 0 0)
(0 0 0)
(0 0 0)
(0 0 0)
(0 0 0)
(0 0 0)
(0 0 0)
(0 0 0)
(0 0 0)
(0 0 0)
(0 0 0)
(0 0 0)
(0 0 0)
(0 0 0)
(0 0 0)
(0 0 0)
(0 0 0)
(0 0 0)
(0 0 0)
(0 0 0)
(0 0 0)
(0 0 0)
(0 0 0)
(0 0 0)
(0 0 0)
(0 0 0)
(0 0 0)
(0 0 0)
(0 0 0)
(0 0 0)
(0 0 0)
(0 0 0)
(0 0 0)
(0 0 0)
(0 0 0)
(0 0 0)
(0 0 0)
(0 0 0)
(0 0 0)
(0 0 0)
(0 0 0)
(0 0 0)
(0 0 0)
(0 0 0)
(0 0 0)
(0 0 0)
(0 0 0)
(0 0 0)
(0 0 0)
(0 0 0)
(0 0 0)
(0 0 0)
(0 0 0)
(0 0 0)
(0 0 0)
(0 0 0)
(0 0 0)
(0 0 0)
(0 0 0)
(0 0 0)
(0 0 0)
(0 0 0)
(0 0 0)
(0 0 0)
(0 0 0)
(0 0 0)
(0 0 0)
(0 0 0)
(0 0 0)
(0 0 0)
(0 0 0)
(0 0 0)
(0 0 0)
(0 0 0)
(0 0 0)
(0 0 0)
(0 0 0)
(0 0 0)
(0 0 0)
(0 0 0)
(0 0 0)
(0 0 0)
(0 0 0)
(0 0 0)
(0 0 0)
(0 0 0)
(0 0 0)
(0 0 0)
(0 0 0)
(0 0 0)
(0 0 0)
(0 0 0)
(0 0 0)
(0 0 0)
(0 0 0)
(0 0 0)
(0 0 0)
(0 0 0)
(0 0 0)
(0 0 0)
(0 0 0)
(0 0 0)
(0 0 0)
(0 0 0)
(0 0 0)
(0 0 0)
(0 0 0)
(0 0 0)
(0 0 0)
(0 0 0)
(0 0 0)
(0 0 0)
(0 0 0)
(0 0 0)
(0 0 0)
(0 0 0)
(0 0 0)
(0 0 0)
(0 0 0)
(0 0 0)
(0 0 0)
(0 0 0)
(0 0 0)
(0 0 0)
(0 0 0)
(0 0 0)
(0 0 0)
(0 0 0)
(0 0 0)
(0 0 0)
(0 0 0)
(0 0 0)
(0 0 0)
(0 0 0)
(0 0 0)
(0 0 0)
(0 0 0)
(0 0 0)
(0 0 0)
(0 0 0)
(0 0 0)
(0 0 0)
(0 0 0)
(0 0 0)
(0 0 0)
(0 0 0)
(0 0 0)
(0 0 0)
(0 0 0)
(0 0 0)
(0 0 0)
(0 0 0)
(0 0 0)
(0 0 0)
(0 0 0)
(0 0 0)
(0 0 0)
(0 0 0)
(0 0 0)
(0 0 0)
(0 0 0)
(0 0 0)
(0 0 0)
(0 0 0)
(0 0 0)
(0 0 0)
(0 0 0)
(0 0 0)
(0 0 0)
(0 0 0)
(0 0 0)
(0 0 0)
(0 0 0)
(0 0 0)
(0 0 0)
(0 0 0)
(0 0 0)
(0 0 0)
(0 0 0)
(0 0 0)
(0 0 0)
(0 0 0)
(0 0 0)
(0 0 0)
(0 0 0)
(0 0 0)
(0 0 0)
(0 0 0)
(0 0 0)
(0 0 0)
(0 0 0)
(0 0 0)
(0 0 0)
(0 0 0)
(0 0 0)
(0 0 0)
(0 0 0)
(0 0 0)
(0 0 0)
(0 0 0)
(0 0 0)
(0 0 0)
(0 0 0)
(0 0 0)
(0 0 0)
(0 0 0)
(0 0 0)
(0 0 0)
(0 0 0)
(0 0 0)
(0 0 0)
(0 0 0)
(0 0 0)
(0 0 0)
(0 0 0)
(0 0 0)
(0 0 0)
(0 0 0)
(0 0 0)
(0 0 0)
(0 0 0)
(0 0 0)
(0 0 0)
(0 0 0)
(0 0 0)
(0 0 0)
(0 0 0)
(0 0 0)
(0 0 0)
(0 0 0)
(0 0 0)
(0 0 0)
(0 0 0)
(0 0 0)
(0 0 0)
(0 0 0)
(0 0 0)
(0 0 0)
(0 0 0)
(0 0 0)
(0 0 0)
(0 0 0)
(0 0 0)
(0 0 0)
(0 0 0)
(0 0 0)
(0 0 0)
(0 0 0)
(0 0 0)
(0 0 0)
(0 0 0)
(0 0 0)
(0 0 0)
(0 0 0)
(0 0 0)
(0 0 0)
(0 0 0)
(0 0 0)
(0 0 0)
(0 0 0)
(0 0 0)
(0 0 0)
(0 0 0)
(0 0 0)
(0 0 0)
(0 0 0)
(0 0 0)
(0 0 0)
(0 0 0)
(0 0 0)
(0 0 0)
(0 0 0)
(0 0 0)
(0 0 0)
(0 0 0)
(0 0 0)
(0 0 0)
(0 0 0)
(0 0 0)
(0 0 0)
(0 0 0)
(0 0 0)
(0 0 0)
(0 0 0)
(0 0 0)
(0 0 0)
(0 0 0)
(0 0 0)
(0 0 0)
(0 0 0)
(0 0 0)
(0 0 0)
(0 0 0)
(0 0 0)
(0 0 0)
(0 0 0)
(0 0 0)
(0 0 0)
(0 0 0)
(0 0 0)
(0 0 0)
(0 0 0)
(0 0 0)
(0 0 0)
(0 0 0)
(0 0 0)
(0 0 0)
(0 0 0)
(0 0 0)
(0 0 0)
(0 0 0)
(0 0 0)
(0 0 0)
(0 0 0)
(0 0 0)
(0 0 0)
(0 0 0)
(0 0 0)
(0 0 0)
(0 0 0)
(0 0 0)
(0 0 0)
(0 0 0)
(0 0 0)
(0 0 0)
(0 0 0)
(0 0 0)
(0 0 0)
(0 0 0)
(0 0 0)
(0 0 0)
(0 0 0)
(0 0 0)
(0 0 0)
(0 0 0)
(0 0 0)
(0 0 0)
(0 0 0)
(0 0 0)
(0 0 0)
(0 0 0)
(0 0 0)
(0 0 0)
(0 0 0)
(0 0 0)
(0 0 0)
(0 0 0)
(0 0 0)
(0 0 0)
(0 0 0)
(0 0 0)
(0 0 0)
(0 0 0)
(0 0 0)
(0 0 0)
(0 0 0)
(0 0 0)
(0 0 0)
(0 0 0)
(0 0 0)
(0 0 0)
(0 0 0)
(0 0 0)
(0 0 0)
(0 0 0)
(0 0 0)
(0 0 0)
(0 0 0)
(0 0 0)
(0 0 0)
(0 0 0)
(0 0 0)
(0 0 0)
(0 0 0)
(0 0 0)
(0 0 0)
(0 0 0)
(0 0 0)
(0 0 0)
(0 0 0)
(0 0 0)
(0 0 0)
(0 0 0)
(0 0 0)
(0 0 0)
(0 0 0)
(0 0 0)
(0 0 0)
(0 0 0)
(0 0 0)
(0 0 0)
(0 0 0)
(0 0 0)
(0 0 0)
(0 0 0)
(0 0 0)
(0 0 0)
(0 0 0)
(0 0 0)
(0 0 0)
(0 0 0)
(0 0 0)
(0 0 0)
(0 0 0)
(0 0 0)
(0 0 0)
(0 0 0)
(0 0 0)
(0 0 0)
(0 0 0)
(0 0 0)
(0 0 0)
(0 0 0)
(0 0 0)
(0 0 0)
(0 0 0)
(0 0 0)
(0 0 0)
(0 0 0)
(0 0 0)
(0 0 0)
(0 0 0)
(0 0 0)
(0 0 0)
(0 0 0)
(0 0 0)
(0 0 0)
(0 0 0)
(0 0 0)
(0 0 0)
(0 0 0)
(0 0 0)
(0 0 0)
(0 0 0)
(0 0 0)
(0 0 0)
(0 0 0)
(0 0 0)
(0 0 0)
(0 0 0)
(0 0 0)
(0 0 0)
(0 0 0)
(0 0 0)
(0 0 0)
(0 0 0)
(0 0 0)
(0 0 0)
(0 0 0)
(0 0 0)
(0 0 0)
(0 0 0)
(0 0 0)
(0 0 0)
(0 0 0)
(0 0 0)
(0 0 0)
(0 0 0)
(0 0 0)
(0 0 0)
(0 0 0)
(0 0 0)
(0 0 0)
(0 0 0)
(0 0 0)
(0 0 0)
(0 0 0)
(0 0 0)
(0 0 0)
(0 0 0)
(0 0 0)
(0 0 0)
(0 0 0)
(0 0 0)
(0 0 0)
(0 0 0)
(0 0 0)
(0 0 0)
(0 0 0)
(0 0 0)
(0 0 0)
(0 0 0)
(0 0 0)
(0 0 0)
(0 0 0)
(0 0 0)
(0 0 0)
(0 0 0)
(0 0 0)
(0 0 0)
(0 0 0)
(0 0 0)
(0 0 0)
(0 0 0)
(0 0 0)
(0 0 0)
(0 0 0)
(0 0 0)
(0 0 0)
(0 0 0)
(0 0 0)
(0 0 0)
(0 0 0)
(0 0 0)
(0 0 0)
(0 0 0)
(0 0 0)
(0 0 0)
(0 0 0)
(0 0 0)
(0 0 0)
(0 0 0)
(0 0 0)
(0 0 0)
(0 0 0)
(0 0 0)
(0 0 0)
(0 0 0)
(0 0 0)
(0 0 0)
(0 0 0)
(0 0 0)
(0 0 0)
(0 0 0)
(0 0 0)
(0 0 0)
(0 0 0)
(0 0 0)
(0 0 0)
(0 0 0)
(0 0 0)
(0 0 0)
(0 0 0)
(0 0 0)
(0 0 0)
(0 0 0)
(0 0 0)
(0 0 0)
(0 0 0)
(0 0 0)
(0 0 0)
(0 0 0)
(0 0 0)
(0 0 0)
(0 0 0)
(0 0 0)
(0 0 0)
(0 0 0)
(0 0 0)
(0 0 0)
(0 0 0)
(0 0 0)
(0 0 0)
(0 0 0)
(0 0 0)
(0 0 0)
(0 0 0)
(0 0 0)
(0 0 0)
(0 0 0)
(0 0 0)
(0 0 0)
(0 0 0)
(0 0 0)
(0 0 0)
(0 0 0)
(0 0 0)
(0 0 0)
(0 0 0)
(0 0 0)
(0 0 0)
(0 0 0)
(0 0 0)
(0 0 0)
(0 0 0)
(0 0 0)
(0 0 0)
(0 0 0)
(0 0 0)
(0 0 0)
(0 0 0)
(0 0 0)
(0 0 0)
(0 0 0)
(0 0 0)
(0 0 0)
(0 0 0)
(0 0 0)
(0 0 0)
(0 0 0)
(0 0 0)
(0 0 0)
(0 0 0)
(0 0 0)
(0 0 0)
(0 0 0)
(0 0 0)
(0 0 0)
(0 0 0)
(0 0 0)
(0 0 0)
(0 0 0)
(0 0 0)
(0 0 0)
(0 0 0)
(0 0 0)
(0 0 0)
(0 0 0)
(0 0 0)
(0 0 0)
(0 0 0)
(0 0 0)
(0 0 0)
(0 0 0)
(0 0 0)
(0 0 0)
(0 0 0)
(0 0 0)
(0 0 0)
(0 0 0)
(0 0 0)
(0 0 0)
(0 0 0)
(0 0 0)
(0 0 0)
(0 0 0)
(0 0 0)
(0 0 0)
(0 0 0)
(0 0 0)
(0 0 0)
(0 0 0)
(0 0 0)
(0 0 0)
(0 0 0)
(0 0 0)
(0 0 0)
(0 0 0)
(0 0 0)
(0 0 0)
(0 0 0)
(0 0 0)
(0 0 0)
(0 0 0)
(0 0 0)
(0 0 0)
(0 0 0)
(0 0 0)
(0 0 0)
(0 0 0)
(0 0 0)
(0 0 0)
(0 0 0)
(0 0 0)
(0 0 0)
(0 0 0)
(0 0 0)
(0 0 0)
(0 0 0)
(0 0 0)
(0 0 0)
(0 0 0)
(0 0 0)
(0 0 0)
(0 0 0)
(0 0 0)
(0 0 0)
(0 0 0)
(0 0 0)
(0 0 0)
(0 0 0)
(0 0 0)
(0 0 0)
(0 0 0)
(0 0 0)
(0 0 0)
(0 0 0)
(0 0 0)
(0 0 0)
(0 0 0)
(0 0 0)
(0 0 0)
(0 0 0)
(0 0 0)
(0 0 0)
(0 0 0)
(0 0 0)
(0 0 0)
(0 0 0)
(0 0 0)
(0 0 0)
(0 0 0)
(0 0 0)
(0 0 0)
(0 0 0)
(0 0 0)
(0 0 0)
(0 0 0)
(0 0 0)
(0 0 0)
(0 0 0)
(0 0 0)
(0 0 0)
(0 0 0)
(0 0 0)
(0 0 0)
(0 0 0)
(0 0 0)
(0 0 0)
(0 0 0)
(0 0 0)
(0 0 0)
(0 0 0)
(0 0 0)
(0 0 0)
(0 0 0)
(0 0 0)
(0 0 0)
(0 0 0)
(0 0 0)
(0 0 0)
(0 0 0)
(0 0 0)
(0 0 0)
(0 0 0)
(0 0 0)
(0 0 0)
(0 0 0)
(0 0 0)
(0 0 0)
(0 0 0)
(0 0 0)
(0 0 0)
(0 0 0)
(0 0 0)
(0 0 0)
(0 0 0)
(0 0 0)
(0 0 0)
(0 0 0)
(0 0 0)
(0 0 0)
(0 0 0)
(0 0 0)
(0 0 0)
(0 0 0)
(0 0 0)
(0 0 0)
(0 0 0)
(0 0 0)
(0 0 0)
(0 0 0)
(0 0 0)
(0 0 0)
(0 0 0)
(0 0 0)
(0 0 0)
(0 0 0)
(0 0 0)
(0 0 0)
(0 0 0)
(0 0 0)
(0 0 0)
(0 0 0)
(0 0 0)
(0 0 0)
(0 0 0)
(0 0 0)
(0 0 0)
(0 0 0)
(0 0 0)
(0 0 0)
(0 0 0)
(0 0 0)
(0 0 0)
(0 0 0)
(0 0 0)
(0 0 0)
(0 0 0)
(0 0 0)
(0 0 0)
(0 0 0)
(0 0 0)
(0 0 0)
(0 0 0)
(0 0 0)
(0 0 0)
(0 0 0)
(0 0 0)
(0 0 0)
(0 0 0)
(0 0 0)
(0 0 0)
(0 0 0)
(0 0 0)
(0 0 0)
(0 0 0)
(0 0 0)
(0 0 0)
(0 0 0)
(0 0 0)
(0 0 0)
(0 0 0)
(0 0 0)
(0 0 0)
(0 0 0)
(0 0 0)
(0 0 0)
(0 0 0)
(0 0 0)
(0 0 0)
(0 0 0)
(0 0 0)
(0 0 0)
(0 0 0)
(0 0 0)
(0 0 0)
(0 0 0)
(0 0 0)
(0 0 0)
(0 0 0)
(0 0 0)
(0 0 0)
(0 0 0)
(0 0 0)
(0 0 0)
(0 0 0)
(0 0 0)
(0 0 0)
(0 0 0)
(0 0 0)
(0 0 0)
(0 0 0)
(0 0 0)
(0 0 0)
(0 0 0)
(0 0 0)
(0 0 0)
(0 0 0)
(0 0 0)
(0 0 0)
(0 0 0)
(0 0 0)
(0 0 0)
(0 0 0)
(0 0 0)
(0 0 0)
(0 0 0)
(0 0 0)
(0 0 0)
(0 0 0)
(0 0 0)
(0 0 0)
(0 0 0)
(0 0 0)
(0 0 0)
(0 0 0)
(0 0 0)
(0 0 0)
(0 0 0)
(0 0 0)
(0 0 0)
(0 0 0)
(0 0 0)
(0 0 0)
(0 0 0)
(0 0 0)
(0 0 0)
(0 0 0)
(0 0 0)
(0 0 0)
(0 0 0)
(0 0 0)
(0 0 0)
(0 0 0)
(0 0 0)
(0 0 0)
(0 0 0)
(0 0 0)
(0 0 0)
(0 0 0)
(0 0 0)
(0 0 0)
(0 0 0)
(0 0 0)
(0 0 0)
(0 0 0)
(0 0 0)
(0 0 0)
(0 0 0)
(0 0 0)
(0 0 0)
(0 0 0)
(0 0 0)
(0 0 0)
(0 0 0)
(0 0 0)
(0 0 0)
(0 0 0)
(0 0 0)
(0 0 0)
(0 0 0)
(0 0 0)
(0 0 0)
(0 0 0)
(0 0 0)
(0 0 0)
(0 0 0)
(0 0 0)
(0 0 0)
(0 0 0)
(0 0 0)
(0 0 0)
(0 0 0)
(0 0 0)
(0 0 0)
(0 0 0)
(0 0 0)
(0 0 0)
(0 0 0)
(0 0 0)
(0 0 0)
(0 0 0)
(0 0 0)
(0 0 0)
(0 0 0)
(0 0 0)
(0 0 0)
(0 0 0)
(0 0 0)
(0 0 0)
(0 0 0)
(0 0 0)
(0 0 0)
(0 0 0)
(0 0 0)
(0 0 0)
(0 0 0)
(0 0 0)
(0 0 0)
(0 0 0)
(0 0 0)
(0 0 0)
(0 0 0)
(0 0 0)
(0 0 0)
(0 0 0)
(0 0 0)
(0 0 0)
(0 0 0)
(0 0 0)
(0 0 0)
(0 0 0)
(0 0 0)
(0 0 0)
(0 0 0)
(0 0 0)
(0 0 0)
(0 0 0)
(0 0 0)
(0 0 0)
(0 0 0)
(0 0 0)
(0 0 0)
(0 0 0)
(0 0 0)
(0 0 0)
(0 0 0)
(0 0 0)
(0 0 0)
(0 0 0)
(0 0 0)
(0 0 0)
(0 0 0)
(0 0 0)
(0 0 0)
(0 0 0)
(0 0 0)
(0 0 0)
(0 0 0)
(0 0 0)
(0 0 0)
(0 0 0)
(0 0 0)
(0 0 0)
(0 0 0)
(0 0 0)
(0 0 0)
(0 0 0)
(0 0 0)
(0 0 0)
(0 0 0)
(0 0 0)
(0 0 0)
(0 0 0)
(0 0 0)
(0 0 0)
(0 0 0)
(0 0 0)
(0 0 0)
(0 0 0)
(0 0 0)
(0 0 0)
(0 0 0)
(0 0 0)
(0 0 0)
(0 0 0)
(0 0 0)
(0 0 0)
(0 0 0)
(0 0 0)
(0 0 0)
(0 0 0)
(0 0 0)
(0 0 0)
(0 0 0)
(0 0 0)
(0 0 0)
(0 0 0)
(0 0 0)
(0 0 0)
(0 0 0)
(0 0 0)
(0 0 0)
(0 0 0)
(0 0 0)
(0 0 0)
(0 0 0)
(0 0 0)
(0 0 0)
(0 0 0)
(0 0 0)
(0 0 0)
(0 0 0)
(0 0 0)
(0 0 0)
(0 0 0)
(0 0 0)
(0 0 0)
(0 0 0)
(0 0 0)
(0 0 0)
(0 0 0)
(0 0 0)
(0 0 0)
(0 0 0)
(0 0 0)
(0 0 0)
(0 0 0)
(0 0 0)
(0 0 0)
(0 0 0)
(0 0 0)
(0 0 0)
(0 0 0)
(0 0 0)
(0 0 0)
(0 0 0)
(0 0 0)
(0 0 0)
(0 0 0)
(0 0 0)
(0 0 0)
(0 0 0)
(0 0 0)
(0 0 0)
(0 0 0)
(0 0 0)
(0 0 0)
(0 0 0)
(0 0 0)
(0 0 0)
(0 0 0)
(0 0 0)
(0 0 0)
(0 0 0)
(0 0 0)
(0 0 0)
(0 0 0)
(0 0 0)
(0 0 0)
(0 0 0)
(0 0 0)
(0 0 0)
(0 0 0)
(0 0 0)
(0 0 0)
(0 0 0)
(0 0 0)
(0 0 0)
(0 0 0)
(0 0 0)
(0 0 0)
(0 0 0)
(0 0 0)
(0 0 0)
(0 0 0)
(0 0 0)
(0 0 0)
(0 0 0)
(0 0 0)
(0 0 0)
(0 0 0)
(0 0 0)
(0 0 0)
(0 0 0)
(0 0 0)
(0 0 0)
(0 0 0)
(0 0 0)
(0 0 0)
(0 0 0)
(0 0 0)
(0 0 0)
(0 0 0)
(0 0 0)
(0 0 0)
(0 0 0)
(0 0 0)
(0 0 0)
(0 0 0)
(0 0 0)
(0 0 0)
(0 0 0)
(0 0 0)
(0 0 0)
(0 0 0)
(0 0 0)
(0 0 0)
(0 0 0)
(0 0 0)
(0 0 0)
(0 0 0)
(0 0 0)
(0 0 0)
(0 0 0)
(0 0 0)
(0 0 0)
(0 0 0)
(0 0 0)
(0 0 0)
(0 0 0)
(0 0 0)
(0 0 0)
(0 0 0)
(0 0 0)
(0 0 0)
(0 0 0)
(0 0 0)
(0 0 0)
(0 0 0)
(0 0 0)
(0 0 0)
(0 0 0)
(0 0 0)
(0 0 0)
(0 0 0)
(0 0 0)
(0 0 0)
(0 0 0)
(0 0 0)
(0 0 0)
(0 0 0)
(0 0 0)
(0 0 0)
(0 0 0)
(0 0 0)
(0 0 0)
(0 0 0)
(0 0 0)
(0 0 0)
(0 0 0)
(0 0 0)
(0 0 0)
(0 0 0)
(0 0 0)
(0 0 0)
(0 0 0)
(0 0 0)
(0 0 0)
(0 0 0)
(0 0 0)
(0 0 0)
(0 0 0)
(0 0 0)
(0 0 0)
(0 0 0)
(0 0 0)
(0 0 0)
(0 0 0)
(0 0 0)
(0 0 0)
(0 0 0)
(0 0 0)
(0 0 0)
(0 0 0)
(0 0 0)
(0 0 0)
(0 0 0)
(0 0 0)
(0 0 0)
(0 0 0)
(0 0 0)
(0 0 0)
(0 0 0)
(0 0 0)
(0 0 0)
(0 0 0)
(0 0 0)
(0 0 0)
(0 0 0)
(0 0 0)
(0 0 0)
(0 0 0)
(-0.0435232 0.00413726 0.0110043)
(-0.0420589 -0.00458269 0.00768527)
(-0.079112 -0.00979242 0.0186505)
(-0.124794 -0.0437533 0.0243893)
(-0.0478856 -0.0129269 0.000687639)
(-0.151881 -0.0836249 0.0236808)
(-0.129393 -0.0861596 0.0220455)
(-0.0908054 -0.0699814 0.0189554)
(-0.0137239 -0.000169585 0.00704109)
(-0.0332245 0.0103556 0.00779156)
(-0.0750231 -0.00356817 0.0188908)
(-0.0549117 0.00626751 0.019978)
(-0.181079 -0.0778292 0.0304227)
(-0.170525 -0.0877183 0.026066)
(-0.369937 -0.329692 -0.0081243)
(-0.447849 -0.345763 -0.00380686)
(-0.458044 -0.421256 0.0175281)
(-0.350838 -0.431497 0.00066269)
(-0.297538 -0.413072 0.0203348)
(-0.399243 -0.45874 0.0407851)
(-0.346419 -0.490869 0.0362263)
(-0.20169 -0.278261 0.0384998)
(-0.12792 -0.186228 0.0304578)
(-0.258879 -0.501094 0.0290684)
(-0.163914 -0.386859 0.0348414)
(-0.118923 -0.266988 0.0360413)
(-0.0280187 -0.0119036 0.0201774)
(-0.0105272 -0.00361681 0.0206682)
(-0.0618122 -0.0326798 0.0386761)
(-0.147737 -0.0307377 0.0433227)
(-0.446191 -0.24549 0.00434354)
(-0.375306 -0.153264 0.0206722)
(-0.599176 -0.313109 -0.00513577)
(-0.541542 -0.37778 0.0150919)
(-0.494762 -0.408682 0.0423299)
(-0.57024 -0.334925 0.0372158)
(-0.547385 -0.386548 0.0370877)
(-0.444087 -0.449067 0.0416982)
(-0.385063 -0.488046 0.0235076)
(-0.499748 -0.438713 0.0206962)
(-0.43619 -0.48751 -0.00109262)
(-0.299172 -0.519643 -0.00341633)
(-0.169572 -0.500725 -0.00231166)
(-0.32042 -0.525435 -0.0291518)
(-0.154357 -0.512614 -0.0382157)
(-0.0851144 -0.353029 0.0166832)
(-0.0302506 -0.388559 -0.00317585)
(-0.0231722 -0.277535 0.0114266)
(-0.00746586 -0.0193851 0.0193845)
(-0.0772768 -0.0946155 0.0407068)
(-0.0692725 -0.0897962 0.0216037)
(-0.519541 -0.237651 -0.00979818)
(-0.614574 -0.26103 0.00802184)
(-0.386521 -0.204913 0.0253764)
(-0.624614 -0.198832 0.0149238)
(-0.605215 -0.283437 0.0435078)
(-0.593848 -0.328339 0.0284814)
(-0.619603 -0.219628 0.0403268)
(-0.622974 -0.250611 0.0143254)
(-0.559338 -0.38006 -0.0018495)
(-0.49228 -0.43847 -0.0241414)
(-0.599508 -0.286549 -0.0158187)
(-0.540215 -0.315777 -0.0487014)
(-0.352881 -0.472392 -0.0748545)
(-0.133967 -0.472221 -0.0767565)
(-0.376244 -0.350808 -0.10217)
(-0.11208 -0.313337 -0.112415)
(0.0254363 -0.356274 -0.0301515)
(0.0288103 -0.263519 -0.00754622)
(0.0492531 -0.237015 -0.047449)
(-0.045741 -0.0644136 0.0104599)
(-0.190668 -0.14761 0.033771)
(-0.585856 -0.132917 0.0170332)
(-0.122573 -0.0794132 0.0149296)
(-0.330519 -0.107066 0.0330492)
(-0.624752 -0.1417 0.0303665)
(-0.628788 -0.151548 -0.00257321)
(-0.585363 -0.0478618 0.0352763)
(-0.6078 -0.0379696 0.00925615)
(-0.604728 -0.15817 -0.0304773)
(-0.546863 -0.163407 -0.0647915)
(-0.577148 -0.0214332 -0.0296764)
(-0.494989 -0.00376311 -0.0579818)
(-0.355395 -0.146191 -0.11557)
(-0.075249 -0.099327 -0.0839372)
(-0.28404 0.0260363 -0.0917914)
(-0.0795055 0.00489163 -0.0598204)
(0.0272576 -0.107459 -0.0387319)
(-0.172734 -0.0696193 0.0275473)
(-0.32414 -0.0402061 0.0376491)
(-0.429412 0.0150216 0.036154)
(-0.265417 -0.00384606 0.0373376)
(-0.448293 0.0595163 0.00182765)
(-0.394003 0.0720815 -0.0369159)
(-0.315238 0.0320642 0.0219047)
(-0.232504 0.0730837 -0.0596026)
(-0.0427428 0.0191802 0.0143692)
(-0.0337129 0.0241047 0.00497534)
(-0.0766224 -0.000103753 0.0220715)
(-0.0615353 0.0211456 0.0262277)
(-0.102531 0.00880631 0.0442268)
(-0.0674294 -0.00240384 0.0277594)
(-0.0476531 0.0245402 0.0167359)
(-0.0916854 0.00369923 0.0318035)
(-0.157396 -0.0563798 0.0689965)
(-0.166975 -0.100599 0.0773149)
(-0.08512 -0.0148931 0.0530368)
(-0.16291 -0.0703611 0.0893706)
(-0.166538 -0.112954 0.127745)
(-0.139514 -0.104501 0.0711748)
(-0.159823 -0.106879 0.144172)
(-0.00898835 0.0156536 0.0120594)
(-0.0045872 0.0210509 0.0033696)
(-0.0464438 0.0359067 0.0310703)
(-0.0199873 0.0453126 0.0335865)
(-0.0679486 0.0372398 0.0858686)
(-0.0202392 0.0286758 -0.00431491)
(-0.026469 0.0499325 0.00384095)
(-0.00399732 0.0581182 0.00791962)
(-0.0480853 0.0626481 0.0540656)
(-0.165655 -0.218689 0.106962)
(-0.292301 -0.419785 0.0540295)
(-0.208683 -0.348977 0.0860572)
(-0.220789 -0.222137 0.166916)
(-0.184996 -0.190433 0.152448)
(-0.298575 -0.274468 0.0736325)
(-0.230753 -0.248711 0.0942059)
(-0.143415 -0.289302 0.0828272)
(-0.14088 -0.223652 0.0698453)
(-0.0117538 0.0114117 0.0359865)
(-0.000855929 -0.00933657 0.0312982)
(-0.00490966 -0.01247 0.062415)
(0.005096 0.0310167 0.0234863)
(0.00327991 -0.00626217 0.0272157)
(0.0244009 0.00539799 0.0437086)
(-0.0808862 -0.395521 -0.0170688)
(-0.0356318 -0.306828 0.0226478)
(-0.135649 -0.239508 -0.0191376)
(-0.126458 -0.227555 -0.0950788)
(-0.0358974 -0.201745 -0.00294336)
(-0.00855016 -0.087199 0.0716284)
(-0.0375479 -0.113322 0.0546723)
(-0.000306744 -0.0404749 0.0425023)
(-0.00792359 -0.0804558 0.0689508)
(-0.0540243 -0.112222 0.0760055)
(0.0299036 -0.309221 -0.00527752)
(0.0585994 -0.331945 -0.188873)
(-0.0698109 -0.293177 -0.269694)
(0.0144235 -0.257339 -0.0280659)
(0.000530317 -0.308131 -0.419597)
(-0.05673 -0.101871 0.0329963)
(-0.0742577 -0.114074 0.0605486)
(-0.523674 -0.145535 0.106452)
(-0.136516 -0.110569 0.0517096)
(-0.319103 -0.120966 0.10575)
(-0.204313 -0.149483 0.125623)
(-0.400083 -0.157837 0.130487)
(-0.146852 -0.115717 0.111589)
(-0.290669 -0.130783 0.161775)
(-0.127912 -0.164473 -0.347736)
(-0.380833 -0.0192861 -0.312881)
(-0.103933 0.0231466 -0.219593)
(-0.415815 -0.191104 -0.707596)
(-0.149563 -0.189239 -0.710396)
(-0.382023 -0.063933 -0.582348)