/*--------------------------------*- C++ -*----------------------------------*\
| =========                 |                                                 |
| \\      /  F ield         | OpenFOAM: The Open Source CFD Toolbox           |
|  \\    /   O peration     | Version:  5.x                                   |
|   \\  /    A nd           | Web:      www.OpenFOAM.org                      |
|    \\/     M anipulation  |                                                 |
\*---------------------------------------------------------------------------*/
FoamFile
{
    version     2.0;
    format      ascii;
    class       volScalarField;
    location    "0.35";
    object      voidfraction;
}
// * * * * * * * * * * * * * * * * * * * * * * * * * * * * * * * * * * * * * //

dimensions      [0 0 0 0 0 0 0];

internalField   nonuniform List<scalar> 
10571
(
0.442288
0.397991
0.684318
0.849739
0.577968
0.612649
0.701335
0.451837
0.538143
0.456975
0.423598
0.959754
0.49957
0.511629
0.560456
0.440087
0.569303
0.470385
0.544712
0.448259
0.423112
0.507627
0.457821
0.416904
0.430897
0.387523
0.448964
0.531219
0.45714
0.499013
0.847473
0.992056
0.979622
0.904772
0.406681
0.851506
0.940789
0.988712
0.966805
0.943236
0.478475
0.906376
0.987343
0.85118
0.694429
0.454673
0.860572
0.785241
0.410109
0.391541
0.418159
0.41486
0.466572
0.423526
0.783576
0.977728
0.992824
0.929953
0.415454
0.771424
0.962356
0.993085
0.980931
0.86653
0.42359
0.869587
0.993857
0.940874
0.894385
0.523289
0.903553
0.825665
0.426958
0.389398
0.429772
0.411456
0.848641
0.430439
0.87878
0.988867
0.997996
0.794272
0.436114
0.412621
0.98499
0.993796
0.988038
0.893407
0.423343
0.982204
0.99473
0.983733
0.887671
0.98851
0.894405
0.863305
0.562253
0.867784
0.793035
0.884015
0.913596
0.674241
0.993637
0.998066
0.997241
0.781722
0.535779
0.794912
0.99725
0.994669
0.990848
0.943225
0.916071
0.999188
0.995157
0.986893
0.860984
0.951411
0.945141
0.922976
0.904789
0.99087
0.968485
0.999898
0.957173
0.98304
0.99272
0.998387
0.994481
0.966873
0.379707
0.995601
0.997159
0.999072
0.9959
0.995138
0.982512
0.39762
0.995549
0.996196
0.996758
0.989114
0.861797
0.724121
0.97463
0.917744
0.997472
0.996807
0.999662
0.986487
0.999428
0.985874
0.99051
0.999406
0.993119
0.98391
0.999975
1
0.986164
0.995622
0.995653
0.994973
0.993574
0.999974
0.896964
0.982884
0.997697
0.989457
0.917059
1
0.961202
0.983933
0.928595
1
0.990758
1
1
1
0.99439
0.987598
0.995191
0.995305
0.988335
1
0.992632
0.97713
0.989677
0.995776
0.991133
0.992905
1
0.986406
0.9869
0.99471
0.988323
0.941396
1
0.993689
0.982878
0.969558
1
0.976587
1
1
1
0.998006
0.994666
0.995172
0.996196
0.991182
1
0.934461
0.979465
0.99322
0.997392
0.991393
0.993916
1
0.993053
0.993168
0.993276
0.991675
0.947042
0.991714
0.976533
0.953736
0.997911
0.948808
0.993624
1
1
0.998986
0.996959
0.995995
0.997119
0.992108
0.996371
0.999662
0.995539
0.99675
0.993584
0.990425
0.998887
0.997286
0.992319
0.990924
0.940928
0.99578
0.98629
0.964411
1
0.988575
0.995953
1
1
0.999966
0.998353
0.997179
0.997999
0.991903
1
0.999966
0.998701
0.995158
0.992456
0.987386
0.99988
0.999172
0.993304
0.989576
0.927246
0.997754
0.98922
0.972486
1
1
0.998044
1
0.999129
1
0.999775
0.998798
0.997465
0.99388
1
0.997059
0.998772
0.996796
0.992391
0.983351
1
0.999241
0.994397
0.989287
0.958398
0.997754
0.986442
0.980609
0.996811
1
0.998382
1
1
0.999054
0.999706
0.999175
0.998114
0.997791
0.996591
0.993205
0.999181
0.995996
0.991992
0.986759
1
0.999334
0.99508
0.989084
0.96556
0.997677
0.990005
0.973535
1
1
1
1
1
0.999021
0.999741
0.999704
0.997189
0.998488
1
1
0.999592
0.997673
0.994447
0.988723
1
0.998651
0.996414
0.992955
0.94903
0.997755
0.987469
0.979626
1
1
0.999225
0.995439
0.986661
1
0.999668
0.999735
0.997427
0.994069
1
1
0.999504
0.999288
0.996749
0.988481
1
0.996221
0.998868
0.996661
0.948542
0.999226
0.984449
0.963384
1
1
1
0.990304
1
1
0.996963
0.999781
0.998227
0.993449
1
1
0.999004
0.999551
0.997232
0.9948
1
0.991719
0.995929
0.998531
0.958763
1
0.987378
0.954072
1
1
1
1
1
1
0.976781
0.993737
0.999669
0.988446
1
1
0.994777
0.997572
0.999805
0.984943
1
0.996096
0.990014
1
0.917302
1
0.99997
0.967719
1
1
1
1
1
1
1
0.986971
0.986721
0.977473
1
1
0.999888
0.992694
0.984197
0.984489
1
1
0.998435
0.987682
0.98369
1
1
1
1
1
1
1
1
1
1
1
0.999338
1
1
1
1
0.999996
0.998922
1
1
1
1
1
1
1
1
1
1
1
1
1
1
1
1
1
1
1
1
1
1
1
1
1
1
1
1
1
1
1
1
1
1
1
1
1
1
1
1
1
1
1
1
1
1
1
1
1
1
1
1
1
1
1
1
1
1
1
1
1
1
1
1
1
1
1
1
1
1
1
1
1
1
1
1
1
1
1
1
1
1
1
1
1
1
1
1
1
1
1
1
1
1
1
1
1
1
1
1
1
1
1
1
1
1
1
1
1
1
1
1
1
1
1
1
1
1
1
1
1
1
1
1
1
1
1
1
1
1
1
1
1
1
1
1
1
1
1
1
1
1
1
1
1
1
1
1
1
1
1
1
1
1
1
1
1
1
1
1
1
1
1
1
1
1
1
1
1
1
1
1
1
1
1
1
1
1
1
1
1
1
1
1
1
1
1
1
1
1
1
1
1
1
1
1
1
1
1
1
1
1
1
1
1
1
1
1
1
1
1
1
1
1
1
1
1
1
1
1
1
1
1
1
1
1
1
1
1
1
1
1
1
1
1
1
1
1
1
1
1
1
1
1
1
1
1
1
1
1
1
1
1
1
1
1
1
1
1
1
1
1
1
1
1
1
1
1
1
1
1
1
1
1
1
1
1
1
1
1
1
1
1
1
1
1
1
1
1
1
1
1
1
1
1
1
1
1
1
1
1
1
1
1
1
1
1
1
1
1
1
1
1
1
1
1
1
1
1
1
1
1
1
1
1
1
1
1
1
1
1
1
1
1
1
1
1
1
1
1
1
1
1
1
1
1
1
1
1
1
1
1
1
1
1
1
1
1
1
1
1
1
1
1
1
1
1
1
1
1
1
1
1
1
1
1
1
1
1
1
1
1
1
1
1
1
1
1
1
1
1
1
1
1
1
1
1
1
1
1
1
1
1
1
1
1
1
1
1
1
1
1
1
1
1
1
1
1
1
1
1
1
1
1
1
1
1
1
1
1
1
1
1
1
1
1
1
1
1
1
1
1
1
1
1
1
1
1
1
1
1
1
1
1
1
1
1
1
1
1
1
1
1
1
1
1
1
1
1
1
1
1
1
1
1
1
1
1
1
1
1
1
1
1
1
1
1
1
1
1
1
1
1
1
1
1
1
1
1
1
1
1
1
1
1
1
1
1
1
1
1
1
1
1
1
1
1
1
1
1
1
1
1
1
1
1
1
1
1
1
1
1
1
1
1
1
1
1
1
1
1
1
1
1
1
1
1
1
1
1
1
1
1
1
1
1
1
1
1
1
1
1
1
1
1
1
1
1
1
1
1
1
1
1
1
1
1
1
1
1
1
1
1
1
1
1
1
1
1
1
1
1
1
1
1
1
1
1
1
1
1
1
1
1
1
1
1
1
1
1
1
1
1
1
1
1
1
1
1
1
1
1
1
1
1
1
1
1
1
1
1
1
1
1
1
1
1
1
1
1
1
1
1
1
1
1
1
1
1
1
1
1
1
1
1
1
1
1
1
1
1
1
1
1
1
1
1
1
1
1
1
1
1
1
1
1
1
1
1
1
1
1
1
1
1
1
1
1
1
1
1
1
1
1
1
1
1
1
1
1
1
1
1
1
1
1
1
1
1
1
1
1
1
1
1
1
1
1
1
1
1
1
1
1
1
1
1
1
1
1
1
1
1
1
1
1
1
1
1
1
1
1
1
1
1
1
1
1
1
1
1
1
1
1
1
1
1
1
1
1
1
1
1
1
1
1
1
1
1
1
1
1
1
1
1
1
1
1
1
1
1
1
1
1
1
1
1
1
1
1
1
1
1
1
1
1
1
1
1
1
1
1
1
1
1
1
1
1
1
1
1
1
1
1
1
1
1
1
1
1
1
1
1
1
1
1
1
1
1
1
1
1
1
1
1
1
1
1
1
1
1
1
1
1
1
1
1
1
1
1
1
1
1
1
1
1
1
1
1
1
1
1
1
1
1
1
1
1
1
1
1
1
1
1
1
1
1
1
1
1
1
1
1
1
1
1
1
1
1
1
1
1
1
1
1
1
1
1
1
1
1
1
1
1
1
1
1
1
1
1
1
1
1
1
1
1
1
1
1
1
1
1
1
1
1
1
1
1
1
1
1
1
1
1
1
1
1
1
1
1
1
1
1
1
1
1
1
1
1
1
1
1
1
1
1
1
1
1
1
1
1
1
1
1
1
1
1
1
1
1
1
1
1
1
1
1
1
1
1
1
1
1
1
1
1
1
1
1
1
1
1
1
1
1
1
1
1
1
1
1
1
1
1
1
1
1
1
1
1
1
1
1
1
1
1
1
1
1
1
1
1
1
1
1
1
1
1
1
1
1
1
1
1
1
1
1
1
1
1
1
1
1
1
1
1
1
1
1
1
1
1
1
1
1
1
1
1
1
1
1
1
1
1
1
1
1
1
1
1
1
1
1
1
1
1
1
1
1
1
1
1
1
1
1
1
1
1
1
1
1
1
1
1
1
1
1
1
1
1
1
1
1
1
1
1
1
1
1
1
1
1
1
1
1
1
1
1
1
1
1
1
1
1
1
1
1
1
1
1
1
1
1
1
1
1
1
1
1
1
1
1
1
1
1
1
1
1
1
1
1
1
1
1
1
1
1
1
1
1
1
1
1
1
1
1
1
1
1
1
1
1
1
1
1
1
1
1
1
1
1
1
1
1
1
1
1
1
1
1
1
1
1
1
1
1
1
1
1
1
1
1
1
1
1
1
1
1
1
1
1
1
1
1
1
1
1
1
1
1
1
1
1
1
1
1
1
1
1
1
1
1
1
1
1
1
1
1
1
1
1
1
1
1
1
1
1
1
1
1
1
1
1
1
1
1
1
1
1
1
1
1
1
1
1
1
1
1
1
1
1
1
1
1
1
1
1
1
1
1
1
1
1
1
1
1
1
1
1
1
1
1
1
1
1
1
1
1
1
1
1
1
1
1
1
1
1
1
1
1
1
1
1
1
1
1
1
1
1
1
1
1
1
1
1
1
1
1
1
1
1
1
1
1
1
1
1
1
1
1
1
1
1
1
1
1
1
1
1
1
1
1
1
1
1
1
1
1
1
1
1
1
1
0.444072
0.416438
0.450893
0.476538
0.464571
0.530003
0.516476
0.503065
0.457373
0.463883
0.456498
0.449531
0.520762
0.601034
0.767924
0.805207
0.819421
0.807787
0.738385
0.727329
0.661721
0.58476
0.537612
0.640871
0.563826
0.513637
0.443071
0.460817
0.456383
0.50207
0.760814
0.688804
0.833235
0.816209
0.719496
0.744688
0.656954
0.639286
0.580923
0.588925
0.559757
0.55154
0.546071
0.52425
0.511271
0.509353
0.48522
0.491626
0.458459
0.470659
0.460373
0.73088
0.771058
0.650912
0.768891
0.694337
0.606655
0.665941
0.590045
0.566584
0.529091
0.526015
0.510475
0.505877
0.492354
0.483534
0.480158
0.459524
0.470367
0.454897
0.45886
0.539145
0.716257
0.476466
0.562404
0.659837
0.542654
0.669144
0.58232
0.531872
0.502519
0.510056
0.498348
0.476614
0.445322
0.464921
0.446228
0.45332
0.500662
0.550426
0.534715
0.554902
0.498647
0.474867
0.497699
0.453735
0.410698
0.393631
0.438505
0.427207
0.502838
0.415358
0.41324
0.450919
0.619776
0.566725
0.441245
0.512828
0.491246
0.457697
0.464355
0.399756
0.391304
0.426264
0.423838
0.645255
0.394327
0.410322
0.412173
0.560472
0.480336
0.499506
0.47081
0.494915
0.448174
0.676318
0.482044
0.478638
0.459706
0.42819
0.418434
0.490488
0.423185
0.40963
0.465669
0.438112
0.47759
0.536466
0.589374
0.538731
0.54092
0.459022
0.40539
0.491782
0.438872
0.468585
0.450724
0.683901
0.637835
0.56171
0.422544
0.423114
0.688066
0.437955
0.561485
0.485003
0.549091
0.443503
0.46094
0.444488
0.441893
0.418926
0.614115
0.442955
0.543128
0.43619
0.452313
0.46709
0.46206
0.452524
0.497297
0.456099
0.559058
0.451693
0.462641
0.451999
0.867082
0.80699
0.645066
0.503588
0.377302
0.395105
0.430581
0.419238
0.429578
0.395809
0.42246
0.42076
0.4413
0.447474
0.423069
0.42563
0.431657
0.445024
0.427692
0.391712
0.390037
0.407294
0.419094
0.457829
0.383058
0.416734
0.413715
0.421379
0.435098
0.755246
0.615145
0.438515
0.478706
0.751188
0.768876
0.657843
0.85592
0.420669
0.403875
0.425829
0.426129
0.420896
0.418343
0.932475
0.891883
0.963318
0.925247
0.929444
0.451653
0.442686
0.425903
0.442192
0.44186
0.966226
0.89839
0.912557
0.935781
0.928866
0.425678
0.440599
0.609307
0.44558
0.465171
0.439969
0.604705
0.422487
0.433398
0.491148
0.838317
0.483899
0.902686
0.651903
0.904564
0.662416
0.870791
0.433403
0.418034
0.720587
0.589283
0.458466
0.705314
0.595923
0.874217
0.844666
0.848904
0.888773
0.71162
0.813421
0.38753
0.389101
0.397501
0.417759
0.41539
0.401682
0.414131
0.426421
0.41602
0.426096
0.426631
0.397974
0.410166
0.425962
0.463659
0.402288
0.398613
0.40754
0.408708
0.419434
0.39277
0.417607
0.405171
0.425607
0.736838
0.769293
0.902777
0.646025
0.905215
0.904989
0.96174
0.950091
0.911788
0.415588
0.40692
0.425334
0.413164
0.409906
0.415659
0.901414
0.935722
0.88227
0.879501
0.889825
0.426647
0.441145
0.425053
0.428012
0.439685
0.915738
0.917775
0.882314
0.910126
0.920983
0.435031
0.423543
0.487107
0.413315
0.432199
0.421567
0.432774
0.42023
0.452444
0.758407
0.882081
0.7081
0.965826
0.83942
0.862192
0.775733
0.882931
0.422536
0.50165
0.856645
0.738011
0.836641
0.966319
0.796914
0.881217
0.808378
0.899999
0.894813
0.770075
0.834104
0.402685
0.411617
0.412395
0.424882
0.426416
0.411952
0.43433
0.450707
0.405862
0.44369
0.432363
0.439249
0.594124
0.726345
0.827272
0.402817
0.416924
0.426289
0.41731
0.435253
0.421985
0.45706
0.438924
0.497869
0.959671
0.975581
0.952644
0.927326
0.898017
0.993734
0.834516
0.803803
0.645308
0.419637
0.437102
0.407756
0.435615
0.466573
0.435331
0.832199
0.867755
0.727413
0.848073
0.868936
0.424147
0.437401
0.45877
0.416079
0.435076
0.906261
0.925556
0.916634
0.904016
0.938151
0.437921
0.464121
0.474594
0.45422
0.598419
0.500402
0.758714
0.852829
0.965782
0.862713
0.856946
0.859246
0.984458
0.907836
0.865212
0.864667
0.86083
0.893094
0.989157
0.959347
0.731228
0.983586
0.920058
0.730028
0.911924
0.75001
0.9141
0.920527
0.714697
0.884216
0.76687
0.989614
0.532278
0.684057
0.631113
0.791856
0.995046
0.929407
0.615931
0.668388
0.931727
0.899332
0.87799
0.756409
0.855555
0.846486
1
0.887956
0.911889
0.91166
0.968805
0.981335
0.997825
0.983041
0.687387
0.995431
0.756256
0.793493
0.783631
0.966978
0.885474
0.671024
0.839662
0.663361
0.577997
0.693521
0.964276
0.94348
0.979073
0.907088
0.856809
0.90313
0.954753
0.917198
0.600755
0.540834
0.899607
0.960009
0.927238
0.884756
0.9426
0.973109
0.903394
0.948576
0.702364
0.979491
0.994331
0.99865
0.999122
0.997143
0.998086
0.998931
0.992734
0.925648
0.869346
0.897119
0.990366
0.957712
0.875868
0.941238
0.834308
0.986497
0.91345
0.871775
0.68897
0.805858
0.85802
0.749097
0.953204
0.791612
0.954902
0.956046
0.882026
0.934365
0.991914
0.992193
0.932816
0.996362
0.979101
0.992633
0.996632
0.998486
0.945805
0.984187
0.958772
0.992392
0.998062
1
1
0.998746
0.99784
0.980194
0.999136
0.961641
0.985773
0.994816
0.997198
0.999186
0.969265
0.969945
0.971367
0.997886
0.995211
0.978549
0.98784
0.952474
0.987285
0.996555
0.995052
0.995245
0.995084
1
0.992579
0.822577
0.975496
0.72882
0.982506
0.959336
0.990916
0.975248
0.377142
0.402723
0.410072
0.82386
0.651356
0.763156
0.581591
0.999121
0.997522
0.996811
0.996485
0.99756
0.70732
0.956503
0.785925
0.992866
0.961855
0.954493
0.950149
0.400777
0.379747
0.407265
0.72022
0.575551
0.694055
0.614547
0.99993
1
0.991785
0.972156
0.900125
0.990256
0.972769
0.875903
0.788543
0.967139
0.879818
0.938739
0.9876
0.974346
0.899509
0.951503
0.910064
0.693334
0.806046
0.920581
0.843934
0.886351
0.967304
0.908904
0.977877
0.902877
0.976346
0.970654
0.936018
0.933655
0.99282
0.999512
1
0.9988
0.99479
1
0.998877
0.995608
0.999091
0.999651
1
1
1
1
1
1
0.997213
0.995804
0.999106
0.99899
0.995855
0.993676
0.99839
0.996579
0.999459
0.985441
0.992754
1
0.997414
0.996563
0.994627
0.989922
1
0.993879
0.999263
1
1
1
1
0.993768
1
0.997183
0.992142
0.993622
0.993366
0.997914
0.98847
0.990016
0.991557
0.999793
0.98068
0.993586
1
1
0.999158
1
1
0.998949
1
0.998242
1
0.99956
0.99497
0.998877
0.994226
0.941914
0.991941
0.992067
0.994597
0.952083
0.985
1
1
1
0.999724
1
1
1
1
0.99693
0.816757
0.877704
0.923037
0.970525
0.968314
0.964559
0.996851
0.97544
0.918066
0.961813
0.988488
0.977004
0.949553
0.959007
1
0.927868
0.99843
1
1
1
0.95417
0.965855
0.973626
0.951711
0.98091
0.974077
0.959503
0.972059
0.968614
0.976173
0.96881
0.957753
0.942941
0.997978
0.979854
0.993623
0.998142
0.996487
0.996811
0.995897
0.998243
1
1
1
1
1
1
1
0.996029
0.99993
0.993976
0.997616
0.999055
0.987453
0.992957
0.999374
0.999055
1
0.998889
0.999154
0.999128
1
0.999158
0.995014
0.994991
0.999606
0.995531
1
1
1
1
1
0.985019
0.983725
0.981612
0.994774
0.946555
0.973857
0.995999
0.987564
0.995778
0.985662
0.997095
0.986916
0.994574
1
1
1
1
1
1
1
0.993576
0.999961
0.984604
0.997515
0.998799
0.994798
0.961612
0.995732
0.992884
0.990653
0.936714
0.993334
1
1
1
1
1
1
1
0.980187
0.966164
0.996337
0.986611
0.995913
0.989925
0.999934
0.995668
0.991734
0.975144
0.940332
0.966979
0.989843
0.973222
0.947758
0.957879
0.999018
0.943823
1
1
1
1
0.950182
0.967045
0.966405
0.986831
0.993921
0.973656
0.97849
0.97568
0.967959
0.979707
0.972108
0.955887
0.953873
0.981527
0.969329
0.996921
0.995626
0.992973
0.986476
0.975576
0.986825
1
1
0.998901
1
1
1
1
0.999582
0.994566
0.993107
0.995052
0.999055
0.967962
0.987564
0.994874
1
1
1
0.995329
1
1
1
0.997381
0.998283
0.988506
0.993613
0.925003
0.985096
0.994697
0.985155
0.998788
0.996776
0.996408
0.991287
0.992594
1
0.99023
0.995231
1
1
1
1
1
1
1
0.981788
0.996243
1
0.983607
0.996979
0.99021
0.947616
0.995566
0.987444
0.991903
0.963914
0.996749
1
1
1
1
1
1
1
0.949212
0.984094
0.996171
0.999381
0.985406
0.996993
0.996832
0.998369
0.989494
0.968782
0.959067
0.961685
0.988089
0.977031
0.950728
0.968543
0.939296
0.983488
1
0.975768
0.97366
0.998877
0.989457
0.968173
0.975829
0.973444
0.976475
0.987005
0.970151
0.968407
0.983132
0.99993
0.997471
0.938384
0.995366
1
0.99435
0.999122
0.999697
1
1
0.999455
0.998838
1
1
0.991432
0.988785
0.98376
0.995649
1
0.979558
0.97747
0.995739
0.997135
0.994558
1
0.996419
1
0.998371
0.999802
0.990652
0.990855
0.996
0.992104
1
0.995063
0.990749
0.993622
0.999243
0.990585
0.994533
0.994648
0.992877
0.988597
0.987849
0.987026
0.996811
0.991395
0.96321
0.993656
0.974173
0.986679
0.99692
0.969001
0.993861
0.996093
0.993202
1
0.988616
0.999519
0.98786
1
0.995489
0.974437
0.949416
0.937643
0.986274
0.963654
0.945761
0.946802
0.939363
1
1
0.985257
0.972891
0.999148
0.983054
0.973879
0.985149
0.974102
0.985536
0.980428
0.969494
0.966244
1
1
1
1
1
1
1
1
1
0.998877
1
1
0.998878
1
1
1
1
0.984602
0.989869
0.990495
1
0.99967
0.986741
0.935754
0.996742
0.998054
0.996429
1
1
1
0.991264
0.991359
0.991836
0.993885
0.996811
0.997244
0.995588
1
0.995215
0.993839
0.984847
0.993452
0.987567
0.993627
0.997364
0.997405
0.996811
0.998212
0.998877
0.978543
0.965931
0.985402
0.992425
0.975038
1
1
0.972884
1
1
0.999308
0.995976
1
1
0.967631
0.968313
0.951826
0.991356
0.971595
0.96103
0.953859
0.955721
1
1
0.984837
0.967623
0.998877
0.985412
0.966965
0.981714
0.976187
0.984178
0.993105
0.976186
0.973469
1
1
1
1
1
1
1
1
1
0.997794
0.993623
0.998243
0.999961
1
1
1
1
1
0.999881
0.987797
1
1
1
0.999056
0.998483
0.998089
0.995253
1
0.998371
0.999045
0.991229
0.99511
0.986645
0.997755
0.996811
0.995609
0.996633
0.991093
0.996366
0.99383
0.99681
0.993335
0.988414
0.992959
1
1
0.992303
0.998303
1
0.986484
0.971913
0.982229
0.992526
0.970395
1
1
1
1
1
1
1
1
1
0.972444
0.968143
0.943851
0.987617
0.971427
0.962456
0.957963
0.937583
1
1
0.99106
0.967624
0.996283
0.991634
0.972232
0.984507
0.9786
0.987982
0.98869
0.963234
0.980678
1
1
1
1
0.999122
1
1
1
0.999152
0.995549
0.996811
0.996426
0.998297
0.997699
0.995887
1
1
0.999131
1
1
1
1
1
1
0.99837
0.999077
0.99401
0.999129
0.995111
1
0.991952
0.991397
0.985099
0.998878
0.978558
0.991036
1
0.988895
0.999122
0.990438
0.997469
0.994689
0.994129
0.991308
0.999485
1
1
1
1
0.98725
0.978671
0.987846
0.985162
0.975493
1
1
1
1
1
1
1
1
1
0.977002
0.966496
0.961289
0.993991
0.973797
0.978231
0.958348
0.960583
1
1
0.990667
0.962464
0.995548
0.983812
0.989354
0.985088
0.963893
0.986865
0.983384
0.948418
0.974515
1
1
1
1
0.998244
1
1
0.998244
0.995578
0.991833
1
0.999122
0.999265
0.995259
0.997351
1
1
1
1
0.998113
1
1
1
0.999056
0.991402
1
0.99174
0.994382
0.970384
0.999044
0.977217
0.980621
0.976423
1
1
1
1
1
1
0.987865
0.994059
0.994611
0.991254
0.991199
1
1
1
1
1
0.98857
0.978474
0.985125
0.996483
0.983855
1
1
1
1
1
1
1
1
1
0.978555
0.978626
0.956086
0.991553
0.970653
0.971389
0.964225
0.955261
1
1
0.988463
0.996817
0.995238
0.986379
1
0.973081
0.983977
0.987227
0.987606
0.983867
0.964504
1
1
1
1
0.997941
1
1
0.998849
0.996941
1
1
0.999818
1
0.997978
1
1
1
1
1
1
1
1
1
0.999675
0.980837
0.995024
0.981998
0.990236
0.999157
0.975747
0.99997
0.997482
0.9993
1
1
1
1
1
1
0.989046
0.972386
0.992441
0.99425
0.989439
1
1
1
1
1
0.97725
0.981881
0.986395
0.984834
0.984784
1
1
1
1
1
1
1
1
1
0.982734
0.974339
0.949079
0.999032
0.979927
0.982548
0.960439
0.946301
1
1
0.990819
1
1
0.993507
1
0.983887
0.991988
0.984207
0.98288
0.999122
0.963874
1
1
1
1
0.999939
1
1
1
1
1
1
1
1
1
1
1
1
1
1
1
1
1
1
0.99974
1
0.999044
1
1
1
0.999044
0.999123
0.996642
0.997971
1
1
1
1
1
1
0.99304
0.987898
0.993293
0.987956
0.980747
1
1
1
1
1
0.983405
0.979248
0.984763
0.978129
0.981106
1
1
1
1
1
1
1
1
1
0.985357
0.987777
0.944502
1
0.986883
0.985771
0.95021
0.950782
1
1
0.999638
1
1
1
1
0.978116
1
0.994535
0.981331
1
0.956452
1
1
1
1
1
1
1
1
1
1
1
1
1
1
1
1
1
1
1
0.999382
1
1
1
1
1
0.998287
0.998941
1
1
0.998418
0.999123
1
0.995943
1
1
1
1
1
1
0.993281
0.959292
0.989884
0.990529
0.962157
1
1
1
1
1
0.968456
0.974249
0.987878
0.954283
0.968838
1
1
1
1
1
1
1
1
1
0.981207
0.978411
0.938105
0.99439
0.97935
0.989907
0.982144
0.93056
1
1
1
1
1
1
1
0.985318
1
1
0.999923
1
0.99811
1
1
1
1
1
1
1
1
1
1
1
1
1
1
1
1
1
1
1
1
1
1
1
1
1
0.996672
0.997428
1
1
0.999736
0.999879
0.996502
1
1
1
1
1
1
1
0.980934
0.9989
0.997364
0.996097
1
1
1
1
1
1
0.995164
0.986488
0.994135
0.998901
1
1
1
1
1
1
1
1
1
1
0.985329
0.999118
1
1
1
1
1
1
1
1
1
1
1
1
1
1
1
1
1
1
1
1
1
1
1
1
1
1
1
1
1
1
1
1
1
1
1
1
1
1
1
1
1
1
1
1
1
1
1
1
1
1
1
1
1
1
1
1
1
1
1
1
1
1
1
1
1
1
1
1
1
1
1
1
1
1
1
1
1
1
1
1
1
1
1
1
1
1
1
1
1
1
1
1
1
1
1
1
1
1
1
1
1
1
1
1
1
1
1
1
1
1
1
1
1
1
1
1
1
1
1
1
1
1
1
1
1
1
1
1
1
1
1
1
1
1
1
1
1
1
1
1
1
1
1
1
1
1
1
1
1
1
1
1
1
1
1
1
1
1
1
1
1
1
1
1
1
1
1
1
1
1
1
1
1
1
1
1
1
1
1
1
1
1
1
1
1
1
1
1
1
1
1
1
1
1
1
1
1
1
1
1
1
1
1
1
1
1
1
1
1
1
1
1
1
1
1
1
1
1
1
1
1
1
1
1
1
1
1
1
1
1
1
1
1
1
1
1
1
1
1
1
1
1
1
1
1
1
1
1
1
1
1
1
1
1
1
1
1
1
1
1
1
1
1
1
1
1
1
1
1
1
1
1
1
1
1
1
1
1
1
1
1
1
1
1
1
1
1
1
1
1
1
1
1
1
1
1
1
1
1
1
1
1
1
1
1
1
1
1
1
1
1
1
1
1
1
1
1
1
1
1
1
1
1
1
1
1
1
1
1
1
1
1
1
1
1
1
1
1
1
1
1
1
1
1
1
1
1
1
1
1
1
1
1
1
1
1
1
1
1
1
1
1
1
1
1
1
1
1
1
1
1
1
1
1
1
1
1
1
1
1
1
1
1
1
1
1
1
1
1
1
1
1
1
1
1
1
1
1
1
1
1
1
1
1
1
1
1
1
1
1
1
1
1
1
1
1
1
1
1
1
1
1
1
1
1
1
1
1
1
1
1
1
1
1
1
1
1
1
1
1
1
1
1
1
1
1
1
1
1
1
1
1
1
1
1
1
1
1
1
1
1
1
1
1
1
1
1
1
1
1
1
1
1
1
1
1
1
1
1
1
1
1
1
1
1
1
1
1
1
1
1
1
1
1
1
1
1
1
1
1
1
1
1
1
1
1
1
1
1
1
1
1
1
1
1
1
1
1
1
1
1
1
1
1
1
1
1
1
1
1
1
1
1
1
1
1
1
1
1
1
1
1
1
1
1
1
1
1
1
1
1
1
1
1
1
1
1
1
1
1
1
1
1
1
1
1
1
1
1
1
1
1
1
1
1
1
1
1
1
1
1
1
1
1
1
1
1
1
1
1
1
1
1
1
1
1
1
1
1
1
1
1
1
1
1
1
1
1
1
1
1
1
1
1
1
1
1
1
1
1
1
1
1
1
1
1
1
1
1
1
1
1
1
1
1
1
1
1
1
1
1
1
1
1
1
1
1
1
1
1
1
1
1
1
1
1
1
1
1
1
1
1
1
1
1
1
1
1
1
1
1
1
1
1
1
1
1
1
1
1
1
1
1
1
1
1
1
1
1
1
1
1
1
1
1
1
1
1
1
1
1
1
1
1
1
1
1
1
1
1
1
1
1
1
1
1
1
1
1
1
1
1
1
1
1
1
1
1
1
1
1
1
1
1
1
1
1
1
1
1
1
1
1
1
1
1
1
1
1
1
1
1
1
1
1
1
1
1
1
1
1
1
1
1
1
1
1
1
1
1
1
1
1
1
1
1
1
1
1
1
1
1
1
1
1
1
1
1
1
1
1
1
1
1
1
1
1
1
1
1
1
1
1
1
1
1
1
1
1
1
1
1
1
1
1
1
1
1
1
1
1
1
1
1
1
1
1
1
1
1
1
1
1
1
1
1
1
1
1
1
1
1
1
1
1
1
1
1
1
1
1
1
1
1
1
1
1
1
1
1
1
1
1
1
1
1
1
1
1
1
1
1
1
1
1
1
1
1
1
1
1
1
1
1
1
1
1
1
1
1
1
1
1
1
1
1
1
1
1
1
1
1
1
1
1
1
1
1
1
1
1
1
1
1
1
1
1
1
1
1
1
1
1
1
1
1
1
1
1
1
1
1
1
1
1
1
1
1
1
1
1
1
1
1
1
1
1
1
1
1
1
1
1
1
1
1
1
1
1
1
1
1
1
1
1
1
1
1
1
1
1
1
1
1
1
1
1
1
1
1
1
1
1
1
1
1
1
1
1
1
1
1
1
1
1
1
1
1
1
1
1
1
1
1
1
1
1
1
1
1
1
1
1
1
1
1
1
1
1
1
1
1
1
1
1
1
1
1
1
1
1
1
1
1
1
1
1
1
1
1
1
1
1
1
1
1
1
1
1
1
1
1
1
1
1
1
1
1
1
1
1
1
1
1
1
1
1
1
1
1
1
1
1
1
1
1
1
1
1
1
1
1
1
1
1
1
1
1
1
1
1
1
1
1
1
1
1
1
1
1
1
1
1
1
1
1
1
1
1
1
1
1
1
1
1
1
1
1
1
1
1
1
1
1
1
1
1
1
1
1
1
1
1
1
1
1
1
1
1
1
1
1
1
1
1
1
1
1
1
1
1
1
1
1
1
1
1
1
1
1
1
1
1
1
1
1
1
1
1
1
1
1
1
1
1
1
1
1
1
1
1
1
1
1
1
1
1
1
1
1
1
1
1
1
1
1
1
1
1
1
1
1
1
1
1
1
1
1
1
1
1
1
1
1
1
1
1
1
1
1
1
1
1
1
1
1
1
1
1
1
1
1
1
1
1
1
1
1
1
1
1
1
1
1
1
1
1
1
1
1
1
1
1
1
1
1
1
1
1
1
1
1
1
1
1
1
1
1
1
1
1
1
1
1
1
1
1
1
1
1
1
1
1
1
1
1
1
1
1
1
1
1
1
1
1
1
1
1
1
1
1
1
1
1
1
1
1
1
1
1
1
1
1
1
1
1
1
1
1
1
1
1
1
1
1
1
1
1
1
1
1
1
1
1
1
1
1
1
1
1
1
1
1
1
1
1
1
1
1
1
1
1
1
1
1
1
1
1
1
1
1
1
1
1
1
1
1
1
1
1
1
1
1
1
1
1
1
1
1
1
1
1
1
1
1
1
1
1
1
1
1
1
1
1
1
1
1
1
1
1
1
1
1
1
1
1
1
1
1
1
1
1
1
1
1
1
1
1
1
1
1
1
1
1
1
1
1
1
1
1
1
1
1
1
1
1
1
1
1
1
1
1
1
1
1
1
1
1
1
1
1
1
1
1
1
1
1
1
1
1
1
1
1
1
1
1
1
1
1
1
1
1
1
1
1
1
1
1
1
1
1
1
1
1
1
1
1
1
1
1
1
1
1
1
1
1
1
1
1
1
1
1
1
1
1
1
1
1
1
1
1
1
1
1
1
1
1
1
1
1
1
1
1
1
1
1
1
1
1
1
1
1
1
1
1
1
1
1
1
1
1
1
1
1
1
1
1
1
1
1
1
1
1
1
1
1
1
1
1
1
1
1
1
1
1
1
1
1
1
1
1
1
1
1
1
1
1
1
1
1
1
1
1
1
1
1
1
1
1
1
1
1
1
1
1
1
1
1
1
1
1
1
1
1
1
1
1
1
1
1
1
1
1
1
1
1
1
1
1
1
1
1
1
1
1
1
1
1
1
1
1
1
1
1
1
1
1
1
1
1
1
1
1
1
1
1
1
1
1
1
1
1
1
1
1
1
1
1
1
1
1
1
1
1
1
1
1
1
1
1
1
1
1
1
1
1
1
1
1
1
1
1
1
1
1
1
1
1
1
1
1
1
1
1
1
1
1
1
1
1
1
1
1
1
1
1
1
1
1
1
1
1
1
1
1
1
1
1
1
1
1
1
1
1
1
1
1
1
1
1
1
1
1
1
1
1
1
1
1
1
1
1
1
1
1
1
1
1
1
1
1
1
1
1
1
1
1
1
1
1
1
1
1
1
1
1
1
1
1
1
1
1
1
1
1
1
1
1
1
1
1
1
1
1
1
1
1
1
1
1
1
1
1
1
1
1
1
1
1
1
1
1
1
1
1
1
1
1
1
1
1
1
1
1
1
1
1
1
1
1
1
1
1
1
1
1
1
1
1
1
1
1
1
1
1
1
1
1
1
1
1
1
1
1
1
1
1
1
1
1
1
1
1
1
1
1
1
1
1
1
1
1
1
1
1
1
1
1
1
1
1
1
1
1
1
1
1
1
1
1
1
1
1
1
1
1
1
1
1
1
1
1
1
1
1
1
1
1
1
1
1
1
1
1
1
1
1
1
1
1
1
1
1
1
1
1
1
1
1
1
1
1
1
1
1
1
1
1
1
1
1
1
1
1
1
1
1
1
1
1
1
1
1
1
1
1
1
1
1
1
1
1
1
1
1
1
1
1
1
1
1
1
1
1
1
1
1
1
1
1
1
1
1
1
1
1
1
1
1
1
1
1
1
1
1
1
1
1
1
1
1
1
1
1
1
1
1
1
1
1
1
1
1
1
1
1
1
1
1
1
1
1
1
1
1
1
1
1
1
1
1
1
1
1
1
1
1
1
1
1
1
1
1
1
1
1
1
1
1
1
1
1
1
1
1
1
1
1
1
1
1
1
1
1
1
1
1
1
1
1
1
1
1
1
1
1
1
1
1
1
1
1
1
1
1
1
1
1
1
1
1
1
1
1
1
1
1
1
1
1
1
1
1
1
1
1
1
1
1
1
1
1
1
1
1
1
1
1
1
1
1
1
1
1
1
1
1
1
1
1
1
1
1
1
1
1
1
1
1
1
1
1
1
1
1
1
1
1
1
1
1
1
1
1
1
1
1
1
1
1
1
1
1
1
1
1
1
1
1
1
1
1
1
1
1
1
1
1
1
1
1
1
1
1
1
1
1
1
1
1
1
1
1
1
1
1
1
1
1
1
1
1
1
1
1
1
1
1
1
1
1
1
1
1
1
1
1
1
1
1
1
1
1
1
1
1
1
1
1
1
1
1
1
1
1
1
1
1
1
1
1
1
1
1
1
1
1
1
1
1
1
1
1
1
1
1
1
1
1
1
1
1
1
1
1
1
1
1
1
1
1
1
1
1
1
1
1
1
1
1
1
1
1
1
1
1
1
1
1
1
1
1
1
1
1
1
1
1
1
1
1
1
1
1
1
1
1
1
1
1
1
1
1
1
1
1
1
1
1
1
1
1
1
1
1
1
1
1
1
1
1
1
1
1
1
1
1
1
1
1
1
1
1
1
1
1
1
1
1
1
1
1
1
1
1
1
1
1
1
1
1
1
1
1
1
1
1
1
1
1
1
1
1
1
1
1
1
1
1
1
1
1
1
1
1
1
1
1
1
1
1
1
1
1
1
1
1
1
1
1
1
1
1
1
1
1
1
1
1
1
1
1
1
1
1
1
1
1
1
1
1
1
1
1
1
1
1
1
1
1
1
1
1
1
1
1
1
1
1
1
1
1
1
1
1
1
1
1
1
1
1
1
1
1
1
1
1
1
1
1
1
1
1
1
1
1
1
1
1
1
1
1
1
1
1
1
1
1
1
1
1
1
1
1
1
1
1
1
1
1
1
1
1
1
1
1
1
1
1
1
1
1
1
1
1
1
1
1
1
1
1
1
1
1
1
1
1
1
1
1
1
1
1
1
1
1
1
1
1
1
1
1
1
1
1
1
1
1
1
1
1
1
1
1
1
1
1
1
1
1
1
1
1
1
1
1
1
1
1
1
1
1
1
1
1
1
1
1
1
1
1
1
1
1
1
1
1
1
1
1
1
1
1
1
1
1
1
1
1
1
1
1
1
1
1
1
1
1
1
1
1
1
1
1
1
1
1
1
1
1
1
1
1
1
1
1
1
1
1
1
1
1
1
1
1
1
1
1
1
1
1
1
1
1
1
1
1
1
1
1
1
1
1
1
1
1
1
1
1
1
1
1
1
1
1
1
1
1
1
1
1
1
1
1
1
1
1
1
1
1
1
1
1
1
1
1
1
1
1
1
1
1
1
1
1
1
1
1
1
1
1
1
1
1
1
1
1
1
1
1
1
1
1
1
1
1
1
1
1
1
1
1
1
1
1
1
1
1
1
1
1
1
1
1
1
1
1
1
1
1
1
1
1
1
1
1
1
1
1
1
1
1
1
1
1
1
1
1
1
1
1
1
1
1
1
1
1
1
1
1
1
1
1
1
1
1
1
1
1
1
1
1
1
1
1
1
1
1
1
1
1
1
1
1
1
1
1
1
1
1
1
1
1
1
1
1
1
1
1
1
1
1
1
1
1
1
1
1
1
1
1
1
1
1
1
1
1
1
1
1
1
1
1
1
1
1
1
1
1
1
1
1
1
1
1
1
1
1
1
1
1
1
1
1
1
1
1
1
1
1
1
1
1
1
1
1
1
1
1
1
1
1
1
1
1
1
1
1
1
1
1
1
1
1
1
1
1
1
1
1
1
1
1
1
1
1
1
1
1
1
1
1
1
1
1
1
1
1
1
1
1
1
1
1
1
1
1
1
1
1
1
1
1
1
1
1
1
1
1
1
1
1
1
1
1
1
1
1
1
1
1
1
1
1
1
1
1
1
1
1
1
1
1
1
1
1
1
1
1
1
1
1
1
1
1
1
1
1
1
1
1
1
1
1
1
1
1
1
1
1
1
1
1
1
1
1
1
1
1
1
1
1
1
1
1
1
1
1
1
1
1
1
1
1
1
1
1
1
1
1
1
1
1
1
1
1
1
1
1
1
1
1
1
1
1
1
1
1
1
1
1
1
1
1
1
1
1
1
1
1
1
1
1
1
1
1
1
1
1
1
1
1
1
1
1
1
1
1
1
1
1
1
1
1
1
1
1
1
1
1
1
1
1
1
1
1
1
1
1
1
1
1
1
1
1
1
1
1
1
1
1
1
1
1
1
1
1
1
1
1
1
1
1
1
1
1
1
1
1
1
1
1
1
1
1
1
1
1
1
1
1
1
1
1
1
1
1
1
1
1
1
1
1
1
1
1
1
1
1
1
1
1
1
1
1
1
1
1
1
1
1
1
1
1
1
1
1
1
1
1
1
1
1
1
1
1
1
1
1
1
1
1
1
1
1
1
1
1
1
1
1
1
1
1
1
1
1
1
1
1
1
1
1
1
1
1
1
1
1
1
1
1
1
1
1
1
1
1
1
1
1
1
1
1
1
1
1
1
1
1
1
1
1
1
1
1
1
1
1
1
1
1
1
1
1
1
1
1
1
1
1
1
1
1
1
1
1
1
1
1
1
1
1
1
1
1
1
1
1
1
1
1
1
1
1
1
1
1
1
1
1
1
1
1
1
1
1
1
1
1
1
1
1
1
1
1
1
1
1
1
1
1
1
1
1
1
1
1
1
1
1
1
1
1
1
1
1
1
1
1
1
1
1
1
1
1
1
1
1
1
1
1
1
1
1
1
1
1
1
1
1
1
1
1
1
1
1
1
1
1
1
1
1
1
1
1
1
1
1
1
1
1
1
1
1
1
1
1
1
1
1
1
1
1
1
1
1
1
1
1
1
1
1
1
1
1
1
1
1
1
1
1
1
1
1
1
1
1
1
1
1
1
1
1
1
1
1
1
1
1
1
1
1
1
1
1
1
1
1
1
1
1
1
1
1
1
1
1
1
1
1
1
1
1
1
1
1
1
1
1
1
1
1
1
1
1
1
1
1
1
1
1
1
1
1
1
1
1
1
1
1
1
1
1
1
1
1
1
1
1
1
1
1
1
1
1
1
1
1
1
1
1
1
1
1
1
1
1
1
1
1
1
1
1
1
1
1
1
1
1
1
1
1
1
1
1
1
1
1
1
1
1
1
1
1
1
1
1
1
1
1
1
1
1
1
1
1
1
1
1
1
1
1
1
1
1
1
1
1
1
1
1
1
1
1
1
1
1
1
1
1
1
1
1
1
1
1
1
1
1
1
1
1
1
1
1
1
1
1
1
1
1
1
1
1
1
1
1
1
1
1
1
1
1
1
1
1
1
1
1
1
1
1
1
1
1
1
1
1
1
1
1
1
1
1
1
1
1
1
1
1
1
1
1
1
1
1
1
1
1
1
1
1
1
1
1
1
1
1
1
1
1
1
1
1
1
1
1
1
1
1
1
1
1
1
1
1
1
1
1
1
1
1
1
1
1
1
1
1
1
1
1
1
1
1
1
1
1
1
1
1
1
1
1
1
1
1
1
1
1
1
1
1
1
1
1
1
1
1
1
1
1
1
1
1
1
1
1
1
1
1
1
1
1
1
1
1
1
1
1
1
1
1
1
1
1
1
1
1
1
1
1
1
1
1
1
1
1
1
1
1
1
1
1
1
1
1
1
1
1
1
1
1
1
1
1
1
1
1
1
1
1
1
1
1
1
1
1
1
1
1
1
1
1
1
1
1
1
1
1
1
1
1
1
1
1
1
1
1
1
1
1
1
1
1
1
1
1
1
1
1
1
1
1
1
1
1
1
1
1
1
1
1
1
1
1
1
1
1
1
1
1
1
1
1
1
1
1
1
1
1
1
1
1
1
1
1
1
1
1
1
1
1
1
1
1
1
1
1
1
1
1
1
1
1
1
1
1
1
1
1
1
1
1
1
1
1
1
1
1
1
1
1
1
1
1
1
1
1
1
1
1
1
1
1
1
1
1
1
1
1
1
1
1
1
1
1
1
1
1
1
1
1
1
1
1
1
1
1
1
1
1
1
1
1
1
1
1
1
1
1
1
1
1
1
1
1
1
1
1
1
1
1
1
1
1
1
1
1
1
1
1
1
1
1
1
1
1
1
1
1
1
1
1
1
1
1
1
1
1
1
1
1
1
1
1
1
1
1
1
1
1
1
1
1
1
1
1
1
1
1
1
1
1
1
1
1
1
1
1
1
1
1
1
1
1
1
1
1
1
1
1
1
1
1
1
1
1
1
1
1
1
1
1
1
1
1
1
1
1
1
1
1
1
1
1
1
1
1
1
1
1
1
1
1
1
1
1
1
1
1
1
1
1
1
1
1
1
1
1
1
1
1
1
1
1
1
1
1
1
1
1
1
1
1
1
1
1
1
1
1
1
1
1
1
1
1
1
1
1
1
1
1
1
1
1
1
1
1
1
1
1
1
1
1
1
1
1
1
1
1
1
1
1
1
1
1
1
1
1
1
1
1
1
1
1
1
1
1
1
1
1
1
1
1
1
1
1
1
1
1
1
1
1
1
1
1
1
1
1
1
1
1
1
1
1
1
1
1
1
1
1
1
1
1
1
1
1
1
1
1
1
1
1
1
1
1
1
1
1
1
1
1
1
1
1
1
1
1
1
1
1
1
1
1
1
1
1
1
1
1
1
1
1
1
1
1
1
1
1
1
1
1
1
1
1
1
1
1
1
1
1
1
1
1
1
1
1
1
1
1
1
1
1
1
1
1
1
1
1
1
1
1
1
1
1
1
1
1
1
1
1
1
1
1
1
1
1
1
1
1
1
1
1
1
1
1
1
1
1
1
1
1
1
1
1
1
1
1
1
1
1
1
1
1
1
1
1
1
1
1
1
1
1
1
1
1
1
1
1
1
1
1
1
1
1
1
1
1
1
1
1
1
1
1
1
1
1
1
1
1
1
1
1
1
1
1
1
1
1
1
1
1
1
1
1
1
1
1
1
1
1
1
1
1
1
1
1
1
1
1
1
1
1
1
1
1
1
1
1
1
1
1
1
1
1
1
1
1
1
1
1
1
1
1
1
1
1
1
1
1
1
1
1
1
1
1
1
1
1
1
1
1
1
1
1
1
1
1
1
1
1
1
1
1
1
1
1
1
1
1
1
1
1
1
1
1
1
1
1
1
1
1
1
1
1
1
1
1
1
1
1
1
1
1
1
1
1
1
1
1
1
1
1
1
1
1
1
1
1
1
1
1
1
1
1
1
1
1
1
1
1
1
1
1
1
1
1
1
1
1
1
1
1
1
1
1
1
1
1
1
1
1
1
1
1
1
1
1
1
1
1
1
1
1
1
1
1
1
1
1
1
1
1
1
1
1
1
1
1
1
1
1
1
1
1
1
1
1
1
1
1
1
1
1
1
1
1
1
1
1
1
1
1
1
1
1
1
1
1
1
1
1
1
1
1
1
1
1
1
1
1
1
1
1
1
1
1
1
1
1
1
1
1
1
1
1
1
1
1
1
1
1
1
1
1
1
1
1
1
1
1
1
1
1
1
1
1
1
1
1
1
1
1
1
1
1
1
1
1
1
1
1
1
1
1
1
1
1
1
1
1
1
1
1
1
1
1
1
1
1
1
1
1
1
1
1
1
1
1
1
1
1
1
1
1
1
1
1
1
1
1
1
1
1
1
1
1
1
1
1
1
1
1
1
1
1
1
1
1
1
1
1
1
1
1
1
1
1
1
1
1
1
1
1
1
1
1
1
1
1
1
1
1
1
1
1
1
1
1
1
1
1
1
1
1
1
1
1
1
1
1
1
1
1
1
1
1
1
1
1
1
1
1
1
1
1
1
1
1
1
1
1
1
1
1
1
1
1
1
1
1
1
1
1
1
1
1
1
1
1
1
1
1
1
1
1
1
1
1
1
1
1
1
1
1
1
1
1
1
1
1
1
1
1
1
1
1
1
1
1
1
1
1
1
1
1
1
1
1
1
1
1
1
1
1
1
1
1
1
1
1
1
1
1
1
1
1
1
1
1
1
1
1
1
1
1
1
1
1
1
1
1
1
1
1
1
1
1
1
1
1
1
1
1
1
1
1
1
1
1
1
1
1
1
1
1
1
1
1
1
1
1
1
1
1
1
1
1
1
1
1
1
1
1
1
1
1
1
1
1
1
1
1
1
1
1
1
1
1
1
1
1
1
1
1
1
1
1
1
1
1
1
1
1
1
1
1
1
1
1
1
1
1
1
1
1
1
1
1
1
1
1
1
1
1
1
1
1
1
1
1
1
1
1
1
1
1
1
1
1
1
1
1
1
1
1
1
1
1
1
1
1
1
1
0.905685
0.873479
0.671365
0.551175
0.677026
0.703816
0.577339
0.774721
0.513276
0.480942
0.640673
0.616883
0.585392
0.729794
0.909811
0.94567
0.831053
0.596449
0.769656
0.85136
0.707533
0.503401
0.568526
0.45552
0.637371
0.602849
0.624647
0.807695
0.511494
0.459219
0.588831
0.87226
0.979234
0.951594
0.992531
0.466044
0.579676
0.494112
0.943032
0.75585
0.974093
0.885662
0.716286
0.838811
0.667707
0.772941
0.649944
0.656061
0.605693
0.468587
0.477708
0.50781
0.655956
0.918434
0.736717
0.940911
0.605969
0.558071
0.549136
0.958425
0.992716
0.989663
0.993691
0.46419
0.478313
0.443729
0.976118
0.869947
0.860297
0.589721
0.513082
0.523615
0.478588
0.705169
0.946865
0.568009
0.910012
0.484375
0.483667
0.44624
0.984943
0.971675
0.979194
0.907984
0.595935
0.744641
0.687687
0.428313
0.49705
0.688413
0.77395
0.547427
0.780878
0.865625
0.441589
0.450038
0.845264
0.878549
0.804089
0.798008
0.842127
0.436475
0.664236
0.751344
0.874896
0.779979
0.756686
0.710102
0.889362
0.855799
0.735325
0.761437
0.422016
0.456099
0.691544
0.41619
0.40944
0.427741
0.508354
0.419049
0.823346
0.818747
0.408097
0.420096
0.714846
0.795461
0.429153
0.533122
0.612786
0.417773
0.416549
0.415285
0.416344
0.811569
0.53628
0.705906
0.423537
0.569486
0.420429
0.576285
0.421993
0.436446
0.441412
0.457086
0.467123
0.533418
0.679621