/*--------------------------------*- C++ -*----------------------------------*\
| =========                 |                                                 |
| \\      /  F ield         | OpenFOAM: The Open Source CFD Toolbox           |
|  \\    /   O peration     | Version:  5.x                                   |
|   \\  /    A nd           | Web:      www.OpenFOAM.org                      |
|    \\/     M anipulation  |                                                 |
\*---------------------------------------------------------------------------*/
FoamFile
{
    version     2.0;
    format      ascii;
    class       volScalarField;
    location    "0.15";
    object      voidfraction;
}
// * * * * * * * * * * * * * * * * * * * * * * * * * * * * * * * * * * * * * //

dimensions      [0 0 0 0 0 0 0];

internalField   nonuniform List<scalar> 
10571
(
0.95411
0.813297
0.994946
0.996
0.983084
0.990118
0.99903
1
0.998003
0.967734
0.945586
0.998242
1
1
0.994385
0.984155
0.978245
1
1
0.993309
0.960405
0.978646
0.979907
0.966973
0.958194
0.90473
0.99798
1
0.988106
0.993782
1
1
0.996402
0.961946
0.972344
0.999283
1
0.999781
0.995148
0.980219
0.980234
0.997325
0.997875
0.99496
0.947789
0.979446
0.978162
0.98117
0.968711
0.896078
0.997125
1
0.98872
0.997948
1
0.99989
0.997929
0.968031
0.967398
0.999042
1
0.999889
0.996281
0.979107
0.979915
0.9985
0.998363
0.995434
0.959934
0.98072
0.979155
0.976672
0.965277
0.904835
0.995466
0.99852
0.989414
0.995896
0.999996
1
0.99634
0.978271
0.984834
0.998688
1
1
0.995258
0.988718
0.986169
0.99744
0.998403
0.998969
0.954299
0.970133
0.978893
0.969273
0.972517
0.929944
0.995079
1
0.987416
0.997232
1
0.999888
0.996132
0.979388
0.995822
0.998142
1
1
0.997368
0.976834
0.988637
0.999406
0.998674
0.998357
0.957365
0.964613
0.990429
0.962714
0.986257
0.957601
0.99639
0.999966
0.976623
0.994966
1
0.999887
0.998729
0.984413
0.752062
0.995601
0.998309
1
0.999926
0.997873
0.981393
0.600741
0.978198
0.998782
0.999336
0.99902
0.956738
0.974367
0.990879
0.958276
0.956577
0.962191
0.997064
0.998036
0.987591
0.993917
0.988721
0.999747
0.998758
0.988437
0.976388
0.980756
0.999019
1
0.99962
0.998541
0.991881
0.96503
0.981233
0.996791
0.998805
0.99898
0.955108
0.987436
0.970495
0.985323
0.953143
0.990217
0.94225
0.998312
1
0.989484
0.997195
0.985179
0.996225
0.990394
0.984141
0.993362
0.972838
0.999053
0.997091
0.999769
0.993237
0.972936
0.989792
0.985443
0.988648
0.99601
0.992668
0.977027
0.995298
0.973709
0.987106
0.969279
0.982521
0.971265
0.998043
1
0.989842
0.993816
0.998691
0.993985
0.986116
0.97996
1
0.994062
1
0.993232
0.998874
0.992767
0.978817
0.999801
0.991639
0.988951
0.997464
0.99018
0.967072
0.966584
0.989459
0.966194
0.994283
0.963426
0.996188
0.998038
0.98573
0.995135
0.986342
0.995341
0.991736
0.972736
0.995711
0.999019
0.995902
0.994157
0.985868
0.983084
0.986106
0.991733
0.99618
0.976
0.973226
0.965617
0.988887
0.966022
0.993184
0.977879
0.99538
1
0.994652
0.998243
0.998666
0.994269
0.988723
0.987503
0.980867
0.998952
0.991838
0.99729
0.98833
0.987841
0.996362
0.993276
0.9926
0.993853
0.96031
0.983777
0.993448
0.980257
0.993733
0.986504
0.997067
0.998581
0.975521
0.991522
0.990315
0.996007
0.99237
0.988069
0.991423
0.997836
0.999219
0.995111
0.99231
0.987339
0.993445
0.994838
0.997679
0.992925
0.970634
0.976461
0.99695
0.989779
0.979659
0.97004
0.998921
0.994324
0.991198
0.996082
0.99502
0.991514
0.990733
0.979535
0.980318
0.999121
0.994864
0.998455
0.992227
0.985338
0.991642
0.991835
0.998015
0.99536
0.97221
0.9765
0.995682
0.987328
1
0.949432
0.998281
0.998615
0.992339
0.999021
0.999668
0.994424
0.992816
0.984765
0.993403
0.999223
0.99438
0.993131
0.990767
0.987604
0.992514
0.994698
0.993714
0.988582
0.984317
0.981649
0.98155
0.965973
0.99989
0.958561
0.999022
0.998041
0.991468
0.997062
0.999016
0.999225
0.997217
0.987013
0.995602
1
0.998819
0.994273
0.993556
0.981649
0.998196
0.998373
0.996592
0.988815
0.985648
0.982075
0.991817
0.992369
1
0.950833
0.999933
0.998041
0.980382
0.99284
0.994559
0.997997
0.995598
0.980268
1
0.997668
0.999135
0.999168
0.995716
0.971732
0.997264
0.998264
0.998957
0.998498
0.988728
0.984978
0.996286
0.987608
1
0.903407
0.995686
0.994461
0.995674
0.995442
0.994273
0.994454
0.993603
0.974992
1
0.99537
0.995846
0.997735
0.993551
0.982312
0.986592
0.99534
0.998359
0.998698
0.97059
0.977932
0.997161
0.989987
1
0.930397
0.995483
0.99544
0.990717
1
0.999577
0.994524
0.99267
0.977745
0.996812
0.997127
0.999442
0.997572
0.994686
0.97557
0.994559
0.996297
0.99732
0.998097
0.98236
0.970272
0.999366
0.96983
1
0.960971
1
0.985442
0.994293
0.997231
0.997692
0.991714
0.993922
0.967907
0.99978
0.994829
0.995788
0.99698
0.994111
0.97881
0.991282
0.997553
0.997801
0.996195
0.96689
0.971704
0.999124
0.98957
1
0.960859
0.995618
0.991894
0.992611
0.996961
0.999008
0.996266
0.994011
0.983527
0.997911
0.996316
0.996031
0.992891
0.992234
0.973702
0.993597
0.99524
0.993839
0.996929
0.95443
0.981379
0.993116
0.98047
1
0.974077
0.997303
0.993278
0.989546
0.998177
0.998115
0.998043
0.994988
0.975926
1
0.99706
0.998658
0.994819
0.993215
0.967293
0.990771
0.995999
0.992861
0.99052
0.95072
0.975493
0.993388
0.98957
1
0.962427
0.995112
0.992974
0.990838
0.99686
0.997207
0.996285
0.994673
0.986936
1
0.995708
0.997977
0.998502
0.992688
0.973762
0.994168
0.996528
0.994833
0.999366
0.97382
0.984824
0.9968
0.97956
1
0.927877
0.996124
0.998379
0.997627
0.996522
0.998131
0.997367
0.996495
0.992169
1
0.997432
0.998885
0.998664
0.994111
0.973823
0.996393
0.996027
0.994579
0.996896
0.96038
0.98192
0.997253
0.97704
1
0.909399
0.999798
0.999358
0.997387
0.999797
0.998901
0.998703
0.996612
0.986666
1
0.9951
0.998469
0.99794
0.992765
0.969168
0.989329
0.995995
0.99529
0.995861
0.97242
0.981455
0.997373
0.97984
1
0.94597
0.999966
0.997669
0.995044
1
0.99406
0.998369
0.996022
0.977283
1
0.998175
0.999442
0.99868
0.99343
0.961097
0.988006
0.996782
0.99679
0.998264
0.98579
0.978591
1
0.98894
1
0.990034
0.997944
0.989259
0.991919
0.999021
0.993175
0.9929
0.989726
0.959335
1
0.984691
0.996746
0.999218
0.993272
0.953661
0.988817
0.99444
0.997886
0.996428
0.9881
0.957913
1
0.99454
1
0.994009
0.995314
0.992873
0.989517
0.999021
0.996162
0.996807
0.991681
0.978718
1
0.997567
0.996542
0.999586
0.994573
0.953026
0.992334
0.992231
0.993261
0.999433
0.95653
0.970502
1
0.99391
1
0.991658
0.996697
0.999257
0.994623
0.998987
0.990374
0.994746
0.992945
0.986007
1
0.99608
0.996227
0.999667
0.994804
0.955656
0.995279
0.99469
0.990807
0.996662
0.94729
0.984244
0.995743
0.99405
1
0.990929
0.997405
0.999054
0.994293
0.998953
0.995662
0.995736
0.9929
0.981161
1
1
0.999104
0.999214
0.993097
0.943504
0.997415
0.990249
0.995294
0.999032
0.96682
0.979637
0.997011
0.99335
1
0.99009
0.998787
0.99902
0.997657
0.998413
0.997944
0.996853
0.991555
0.988678
1
1
0.995565
0.99957
0.991403
0.925549
0.993627
0.992034
0.994126
0.997129
0.97669
0.981689
0.997373
0.99552
1
0.98824
0.995517
0.998683
0.994531
0.997197
0.990416
0.995433
0.988809
0.993292
1
1
0.992834
0.998207
0.991022
0.929895
0.991221
0.995877
0.99282
0.996028
0.968779
0.983354
0.998219
0.99615
1
0.969703
0.996899
0.999662
0.996154
0.999021
0.988268
0.995053
0.994907
0.993137
1
1
0.995057
0.996856
0.989794
0.907079
0.990169
0.995857
0.996649
0.996194
0.98866
0.976928
0.994444
0.98264
0.99956
0.99149
0.997876
0.99902
0.990805
0.994125
0.986158
0.994999
0.993514
0.984452
1
0.997026
0.993292
0.999772
0.994532
0.890847
0.995069
0.994812
0.998359
0.994692
0.98362
0.98436
0.998249
0.98712
1
0.991711
0.995584
0.993041
0.991617
0.987539
0.992225
0.995115
0.9962
0.99085
1
0.965289
0.992677
0.999888
0.992664
0.876458
0.990017
0.994711
0.997518
0.993858
0.99356
0.974254
0.997464
0.98509
1
0.994848
0.994944
0.988549
0.996695
0.995407
0.997173
0.993798
0.993801
0.98736
1
0.990909
0.995246
0.999102
0.993235
0.876549
0.984908
0.995155
0.996224
0.992656
0.98698
0.984319
0.998067
0.982428
1
0.987233
0.99673
0.998007
0.990114
0.997738
0.994315
0.997425
0.994467
0.988058
1
0.989895
0.997334
0.995818
0.991817
0.84398
0.996362
0.997133
0.995347
0.99289
0.98978
0.972631
0.998218
0.9853
0.99912
0.990647
0.997438
0.996082
0.988913
0.992841
0.99124
0.996423
0.993336
0.987825
1
0.999932
0.994227
0.992763
0.991176
0.847128
0.998016
0.995514
0.994651
0.992623
0.979767
0.962288
0.993296
0.96549
0.995271
0.993504
0.993359
0.993784
0.99333
0.993381
0.998321
0.995928
0.995445
0.988562
0.993623
0.999797
0.992403
0.998068
0.989389
0.818253
0.997565
0.994194
0.991227
0.987782
0.977037
0.957068
0.994021
0.96787
0.996811
0.997256
0.995179
0.995068
0.993212
0.997096
0.98459
0.998342
0.994932
0.98325
1
0.997093
0.991865
0.99715
0.984387
0.794068
0.989839
0.997129
0.983037
0.984878
0.96409
0.979439
0.98928
0.97984
1
0.996808
0.996123
1
0.994443
0.998548
0.997291
0.983463
0.987186
0.994806
1
0.998411
0.978584
0.998467
0.981283
0.782147
0.996272
0.996754
0.984468
0.972794
0.97774
0.980334
0.974424
0.980678
1
0.996752
0.993595
1
0.992821
0.997062
0.999042
0.997137
0.996163
0.984379
1
1
0.996973
0.98332
0.965978
0.796868
0.99531
0.995801
0.984403
0.971559
0.95828
0.982268
0.964526
0.9692
0.99956
0.994064
0.998045
1
0.995615
0.999021
0.999409
0.997087
0.994762
0.990542
1
0.996722
0.998461
0.996302
0.968089
0.785563
0.996513
0.991517
0.980195
0.973195
0.954009
0.977659
0.963167
0.96311
1
0.995576
0.996865
0.998244
0.997717
0.998987
0.99807
0.99919
0.995719
0.987442
1
0.998749
0.999627
0.993855
0.950535
0.750831
0.995972
0.993624
0.974321
0.953366
0.914739
0.990593
0.958209
0.91985
0.996812
0.99692
0.998011
0.99902
0.995494
0.996995
0.993022
0.996707
0.99597
0.996473
1
1
0.998908
0.998385
0.918702
0.742004
0.996152
0.994783
0.954144
0.865272
0.819188
0.982962
0.932954
0.879096
0.999121
0.997088
0.996124
0.998953
0.996486
0.998075
0.989531
0.996036
0.993038
0.993604
0.993512
0.99902
0.998227
0.997162
0.853016
0.660026
0.996994
0.995974
0.922424
0.681706
0.805866
0.995547
0.879467
0.856413
0.993624
0.998376
0.996629
0.997906
0.997927
0.996995
0.992911
0.994213
0.989165
0.986197
1
1
0.996577
0.992725
0.735653
0.537121
0.998347
0.994275
0.84265
0.497937
0.704143
0.993572
0.757374
0.753879
0.997471
0.999776
0.997741
0.99875
0.998498
0.998075
0.994834
0.994347
0.98786
0.983599
0.993622
0.999054
0.995934
0.980842
0.641506
0.485085
0.998407
0.995522
0.752797
0.440521
0.643446
0.99485
0.652866
0.679818
0.99978
0.996695
0.995954
0.998243
0.994531
0.993213
0.99768
0.996868
0.987222
0.988446
1
0.998276
0.999442
0.96358
0.586779
0.452067
0.998647
0.997339
0.717019
0.432509
0.587953
0.995741
0.608386
0.626548
0.994502
0.998712
0.997067
0.996723
0.997776
0.9974
0.999187
0.998638
0.987295
0.982552
0.995602
0.998411
0.999796
0.963123
0.569196
0.455816
0.994739
0.997537
0.722687
0.433814
0.557477
0.991326
0.617926
0.573439
0.99945
0.998376
0.995955
0.996926
0.996394
0.994125
0.999157
0.999555
0.991378
0.967082
1
1
0.999777
0.969872
0.583366
0.440781
0.998256
0.997917
0.750472
0.431878
0.529947
0.995199
0.62312
0.561817
0.996922
1
0.998045
0.997669
0.995433
0.993855
0.999409
0.999666
0.995424
0.959909
1
0.997465
0.999885
0.993472
0.654167
0.438302
0.997324
0.997953
0.821858
0.432346
0.533237
0.992761
0.651777
0.559067
0.996812
1
0.997068
0.996926
0.991017
0.995577
0.999123
0.999777
0.997549
0.884419
1
0.997094
1
0.999996
0.776151
0.439149
0.996543
0.99832
0.926419
0.464659
0.495787
0.982075
0.696582
0.503347
0.992854
0.995632
0.996461
0.994832
0.983658
0.994125
0.999779
0.999962
0.998465
0.765739
0.997251
0.99902
0.999896
1
0.875341
0.47636
0.996212
0.998607
0.978359
0.700433
0.732038
0.973287
0.710413
0.528703
0.990434
0.995241
0.993495
0.996757
0.969119
0.983928
0.999668
1
0.996438
0.64039
0.992304
0.996958
0.999888
1
0.881157
0.760805
0.990892
0.999253
0.960309
0.652698
0.99818
0.905187
0.679586
0.938813
0.957457
0.988186
0.989214
0.998683
0.810975
0.983522
0.999893
0.999889
0.979404
0.562483
0.990435
0.995708
1
0.996709
0.879491
0.938637
0.984128
0.98609
0.902539
0.735751
1
0.704355
0.809979
1
0.746169
0.886483
0.985607
0.985746
0.482817
0.822495
1
0.999774
0.919209
0.976589
0.891372
0.88452
0.995531
0.939187
0.910093
0.998942
0.762231
0.845929
0.916595
0.956237
1
0.750793
0.998853
1
0.963613
0.863802
0.668155
0.794838
1
0.806286
0.915359
0.948075
0.966703
1
0.912032
0.804389
0.888721
0.837761
0.990893
0.999093
0.935484
0.966027
0.997603
0.999032
0.997969
1
1
1
1
1
1
1
1
1
0.942366
0.942363
0.999649
1
1
1
0.971798
0.978945
0.998837
0.998428
1
0.999883
0.999883
0.997129
0.99867
1
1
1
1
1
1
1
1
1
1
1
1
1
1
1
1
0.999888
0.998306
0.996131
1
1
0.999976
0.997063
1
1
1
1
1
1
1
1
1
1
1
1
1
1
1
1
1
1
0.999182
0.997706
1
1
1
1
0.995244
1
1
1
1
1
1
1
1
1
1
1
1
1
1
1
1
1
0.999712
0.998946
1
1
1
1
0.997975
1
1
1
1
1
1
1
1
1
1
1
1
1
1
1
1
1
1
1
1
1
1
1
1
1
1
1
1
1
1
1
1
1
1
1
1
1
1
1
1
1
1
1
1
1
1
1
1
1
1
1
1
1
1
1
1
1
1
1
1
1
1
1
1
1
1
1
1
1
1
1
1
1
1
1
1
1
1
1
1
1
1
1
1
1
1
1
1
1
1
1
1
1
1
1
1
1
1
1
1
1
1
1
1
1
1
1
1
1
1
1
1
1
1
1
1
1
1
1
1
1
1
1
1
1
1
1
1
1
1
1
1
1
1
1
1
1
1
1
1
1
1
1
1
1
1
1
1
1
1
1
1
1
1
1
1
1
1
1
1
1
1
1
1
1
1
1
1
1
1
1
1
1
1
1
1
1
1
1
1
1
1
1
1
1
1
1
1
1
1
1
1
1
1
1
1
1
1
1
1
1
1
1
1
1
1
1
1
1
1
1
1
1
1
1
1
1
1
1
1
1
1
1
1
1
1
1
1
1
1
1
1
1
1
1
1
1
1
1
1
1
1
1
1
1
1
1
1
1
1
1
1
1
1
1
1
1
1
1
1
1
1
1
1
1
1
1
1
1
1
1
1
1
1
1
1
1
1
1
1
1
1
1
1
1
1
1
1
1
1
1
1
1
1
1
1
1
1
1
1
1
1
1
1
1
1
1
1
1
1
1
1
1
1
1
1
1
1
1
1
1
1
1
1
1
1
1
1
1
1
1
1
1
1
1
1
1
1
1
1
1
1
1
1
1
1
1
1
0.643338
0.821481
0.744272
0.842108
0.825975
0.83162
0.767313
0.707987
0.643638
0.513229
0.600186
0.622214
0.733568
0.742475
0.962775
0.878188
0.993439
0.97065
0.846143
0.999587
0.949557
0.679576
0.560463
0.747473
0.594971
0.547182
0.750391
0.849902
0.821088
0.765469
0.89148
0.965738
0.997648
0.98862
1
1
1
1
0.982419
1
0.99958
0.872389
0.743582
0.974756
0.899703
0.681075
0.76902
0.805671
0.790313
0.821563
0.770206
0.971541
0.996698
0.813695
0.923059
0.999161
1
0.983041
1
1
1
1
0.981575
0.978143
0.912258
0.850366
0.730479
0.795166
0.820069
0.708215
0.70297
0.643027
0.732481
0.538537
0.590253
0.866852
0.989588
0.741411
0.931673
0.998058
0.912674
0.968599
0.823523
0.746704
0.60355
0.663336
0.522471
0.612625
0.566712
0.706716
0.803562
0.826079
0.837424
0.776511
0.811098
0.706055
0.936198
0.949532
0.954424
0.984339
0.989127
0.945057
0.977416
0.98876
0.983429
0.985607
0.951634
0.979706
0.974717
0.97391
0.958961
0.967244
0.963507
0.952311
0.964468
0.993693
0.899371
0.964821
0.973197
0.997519
0.927154
0.998315
0.944637
0.985461
0.94633
0.999829
0.970593
0.918493
0.938509
0.98798
0.954109
0.984729
0.984221
0.979317
0.991303
0.989102
0.986578
0.963343
0.97975
0.989389
0.978503
0.972598
0.941663
0.985722
0.978218
0.975825
0.972229
0.977402
0.971676
0.973225
0.962074
0.973912
0.9974
0.868226
0.933261
0.986294
0.997542
0.935825
0.965007
0.940178
0.976196
0.918811
0.991807
0.95798
0.976409
0.957176
0.962469
0.908659
0.9378
0.989603
0.973172
0.974766
0.985275
0.977843
0.976626
0.948904
0.98317
0.976903
0.977525
0.965628
0.967442
0.94337
0.950476
0.988696
0.990272
0.948954
0.975997
0.980231
0.982267
0.972895
0.966114
0.975674
0.973417
0.951545
0.957915
0.964557
0.955173
0.982677
0.977549
0.997977
0.900242
0.975928
0.972117
0.999162
0.951489
0.997455
0.970868
0.981987
0.936474
0.997078
0.964184
0.93337
0.907568
0.980706
0.949724
0.985637
0.979586
0.952538
0.989745
0.974825
0.973185
0.954744
0.97613
0.971082
0.987246
0.971121
0.961879
0.979544
0.968532
0.946819
0.965247
0.970269
0.96512
0.970029
0.956631
0.963079
0.999131
0.935186
0.966728
0.983955
1
0.927674
0.96379
0.958016
0.982844
0.949852
0.992733
0.967969
0.981783
0.956116
0.957364
0.920089
0.941899
0.986588
0.954793
0.97398
0.983764
0.971672
0.981611
0.961649
0.984239
0.974271
0.958322
0.968869
0.943938
0.95234
0.963677
0.980577
0.989698
0.954997
0.981535
0.988456
0.986669
0.974129
0.960927
0.976904
0.968877
0.963181
0.961978
0.939277
0.955144
0.974617
0.978307
0.999905
0.898209
0.976714
0.975684
0.99269
0.941248
0.998841
0.97327
0.983
0.938267
0.998205
0.969627
0.917651
0.935497
0.973025
0.963021
0.982718
0.978871
0.960814
0.977722
0.974904
0.97799
0.967407
0.978237
0.99934
0.975582
0.965345
0.966851
0.979916
0.969872
0.978004
0.976716
0.976891
0.992968
0.961535
0.963446
0.976705
0.997263
0.925843
0.96526
0.988372
0.998432
0.929028
0.96037
0.96663
0.980477
0.95427
0.994801
0.957911
0.976966
0.958292
0.961373
0.941948
0.947109
0.990967
0.966241
0.975207
0.987407
0.977971
0.984513
0.96941
0.982982
0.981838
0.967122
0.95299
0.938723
0.944534
0.973186
0.972755
0.984132
0.977793
0.984566
0.985929
0.982161
0.989716
0.976697
0.986407
0.9803
0.976731
0.981033
0.954834
0.972354
0.97322
0.982372
0.993003
0.901798
0.979766
0.978923
0.995972
0.946023
0.99872
0.970686
0.990232
0.94628
0.999044
0.983779
0.944523
0.948261
0.986665
0.974943
0.985611
0.983056
0.983289
0.986018
0.983958
0.993614
0.958268
0.982409
0.99081
0.987451
0.9831
0.985708
0.981562
0.977357
0.996699
0.965241
0.984458
0.999781
0.973588
0.97491
0.977335
0.996258
0.939083
0.969362
0.985218
0.99809
0.943764
0.967144
0.971531
0.980865
0.945868
0.998396
0.981102
0.985788
0.963451
0.960287
0.958259
0.943685
0.978467
0.968625
0.971198
0.988463
0.962248
0.977352
0.961827
0.98125
0.97369
0.96302
0.951179
0.94508
0.9579
0.970864
0.989668
0.989857
0.978999
0.976043
0.979528
0.984097
0.985788
0.976253
0.983575
0.974505
0.963995
0.940728
0.957791
0.964126
0.976669
0.976349
0.999089
0.96214
0.97801
0.972826
0.99847
0.951577
0.998411
0.973939
0.976656
0.956501
0.997703
0.974299
0.968883
0.940512
0.985914
0.980318
0.986829
0.988311
0.978668
0.982586
0.984253
0.991771
0.985596
0.968231
0.939482
0.988096
0.970845
0.975039
0.990305
0.982342
0.990439
0.983446
0.965247
0.9391
0.984969
0.975586
0.976631
0.9971
0.940717
0.964408
0.985116
0.99581
0.939473
0.958858
0.980598
0.983722
0.941906
1
0.978519
0.984205
0.928739
0.945298
0.937733
0.949624
0.98786
0.959502
0.96732
0.985799
0.956207
0.979723
0.955118
0.978977
0.975986
0.962358
0.946286
0.964868
0.961451
0.969652
0.987382
0.965471
0.954918
0.990555
0.951445
0.988452
0.982482
0.989665
0.984905
0.982948
0.922017
0.95654
0.967468
0.967746
0.972882
0.987126
0.996548
0.954126
0.978633
0.982952
0.996613
0.969042
0.997727
0.973964
0.97922
0.970553
0.996425
0.98317
0.951862
0.954986
0.97217
0.991423
0.974496
0.971549
0.974598
0.968709
0.911666
0.980091
0.797957
0.98289
0.969086
0.987094
0.975076
0.613092
0.591247
0.485786
0.955112
0.913409
0.957932
0.89452
0.984699
0.972001
0.994062
0.990424
0.964524
0.789623
0.986153
0.912158
0.990849
0.970095
0.992118
0.967352
0.49296
0.760917
0.600466
0.955018
0.919425
0.954507
0.922637
0.964561
0.953048
0.994688
0.962199
0.970725
0.981082
0.996303
0.962872
0.97602
0.979025
0.985551
0.949127
0.998058
0.982155
0.980134
0.94647
0.973031
0.95781
0.967604
0.989971
0.930308
0.978393
0.982594
0.913294
0.965341
0.967736
0.990121
0.978611
0.96993
0.960557
0.986058
0.977553
0.954152
0.990593
0.955931
0.989335
0.991987
0.977466
0.983422
0.980864
0.983072
0.985636
0.981183
0.943234
0.922159
0.975339
0.971019
0.975216
0.98474
0.971562
0.959502
0.97042
0.985753
0.98736
0.969814
0.99936
0.985478
0.982505
0.970257
0.98049
0.980464
0.949659
0.967429
0.961791
0.991356
0.979787
0.989026
0.996224
0.995151
0.973097
0.981965
0.973403
0.97569
0.984054
0.96071
0.976756
0.985735
0.97267
0.980577
0.985617
0.971845
0.970133
0.991005
0.96071
0.982889
0.989138
0.995035
0.983745
0.996457
0.98297
0.974051
0.980096
0.991515
0.964214
0.978041
0.995607
0.974239
0.974863
0.96482
0.976268
0.974472
0.979868
0.964849
0.990782
0.980579
0.986501
0.974607
0.99498
0.98521
0.948862
0.996139
0.967541
0.969966
0.986736
0.995775
0.970466
0.963576
0.983518
0.979593
0.951112
0.997012
0.973576
0.978793
0.958574
0.979872
0.967172
0.98813
0.995284
0.995473
0.996551
0.963476
0.952001
0.979547
0.935029
0.978355
0.974138
0.951163
0.981101
0.976735
0.986501
0.963146
0.978712
0.958166
0.970164
0.970095
0.982739
0.982348
0.984342
0.960858
0.992916
0.962778
0.984395
0.988928
0.96966
0.987758
0.989042
0.97406
0.990326
0.978891
0.974502
0.970629
0.979732
0.968595
0.958774
0.968173
0.977467
0.989445
0.975499
0.96898
0.979045
0.991608
0.982022
0.983774
0.987814
0.95573
0.991379
0.981269
0.996952
0.996549
0.998367
1
1
0.976581
0.986144
0.992578
0.984555
0.994721
0.982339
0.980863
0.976029
0.981937
0.973905
0.990595
0.972032
0.973359
0.999147
0.995352
0.997455
0.999266
1
0.99686
1
0.992424
0.975097
0.991972
0.99206
0.984624
0.979288
0.959976
0.979699
0.977383
0.986759
0.967597
0.992139
0.99344
0.990322
0.998854
0.993914
0.999097
0.997498
1
0.979629
0.983466
0.988383
0.969341
0.96936
0.993774
0.990924
0.975079
0.971873
0.974909
0.96673
0.977031
0.982234
0.986285
0.967863
0.968775
0.994009
0.982353
0.992498
0.996747
1
1
0.940247
0.966415
0.97713
0.9527
0.955239
0.98429
0.958736
0.975602
0.972019
0.985595
0.981069
0.964227
0.973093
0.983549
0.968562
0.996811
0.992645
0.974468
0.990434
0.992452
0.983948
0.987696
0.987799
0.994833
0.994182
0.985319
0.900621
0.960385
0.976035
0.970881
0.981
0.980776
0.994267
0.964489
0.977376
0.983132
0.966911
0.984089
0.960914
0.982702
0.984326
0.974765
0.998199
0.97983
0.969152
0.961241
0.982465
0.992192
0.956257
0.986297
0.9989
0.994063
0.995165
0.96467
0.987379
0.978108
0.992195
0.98536
0.987282
1
0.999174
1
1
1
1
1
0.996212
0.985825
1
0.99297
0.963015
0.990605
0.968185
0.994116
0.985604
0.990688
0.96115
0.993237
1
1
1
1
1
1
1
0.983396
0.961491
0.990527
0.983349
0.972871
0.990647
0.985976
0.972605
0.976505
0.983209
0.974493
0.963945
0.97692
0.972183
0.957479
0.966696
0.96784
0.961867
0.97866
0.970964
0.930859
0.967901
0.984804
0.953686
0.975635
0.97509
0.987649
0.971139
0.969822
0.964274
0.968006
0.966265
0.996811
0.994078
0.995033
0.996921
0.987887
0.997365
0.993849
0.988962
0.989776
0.996455
0.992915
0.987654
0.989889
0.978962
0.980983
0.974262
0.986023
0.984045
0.956652
0.97741
0.976012
0.990461
0.97683
0.984822
0.981611
0.994978
0.97006
0.957536
0.981032
0.953427
0.94593
0.982659
1
0.995941
0.991678
0.993622
0.995033
0.966363
0.970041
0.965309
0.971599
0.983769
0.996546
0.986523
0.994282
0.995546
0.986562
0.992927
0.966788
0.979743
0.98696
0.973956
0.986397
0.992536
0.997393
0.966587
0.97036
0.985476
0.999043
0.954944
0.970816
0.980461
0.97393
0.962168
0.9923
0.98354
0.992634
0.982719
0.981284
0.972504
0.98076
0.984048
0.975635
0.984126
0.967045
0.996598
0.971074
0.980248
0.992662
0.982831
0.980138
0.975418
0.974212
0.986061
0.989334
0.995588
0.982436
0.991424
0.990945
0.971173
0.986611
0.99311
0.99956
0.988914
0.995549
0.994771
0.985989
0.98572
0.987392
0.980078
0.98528
0.993848
0.978943
0.983045
0.990704
0.983174
0.981072
0.995745
0.987291
0.994684
0.983545
1
0.983797
0.957353
0.965738
0.994426
0.995712
0.99267
0.993343
0.985705
0.978133
0.983643
0.981249
0.975164
0.990108
0.995275
0.994092
0.996979
0.996371
0.995486
0.990242
0.993356
0.969315
0.988032
0.990339
0.965363
0.984653
0.99728
0.986277
0.975138
0.980837
0.993054
0.993008
0.983407
0.981444
0.978888
0.972601
0.982267
0.983446
0.980433
0.967717
0.976901
0.958445
0.964598
0.976423
0.992962
0.990452
0.979984
0.989912
0.980245
0.99322
0.993745
0.99381
0.988031
0.991221
0.99391
0.990591
0.98857
0.984166
0.991487
0.990098
0.980648
0.990597
0.991219
0.989793
0.991059
0.97889
0.992488
0.985911
0.95204
0.990519
0.988716
0.986417
0.988947
0.988053
0.979401
0.970992
0.987988
0.986533
0.989815
0.993765
0.994005
0.979835
0.988315
0.992921
0.973218
0.981975
0.96381
0.96497
0.991098
0.993073
0.990521
0.988002
0.981417
0.991672
0.986965
0.98295
0.974658
0.988141
0.989768
0.989184
0.990435
0.990324
0.990972
0.981297
0.979011
0.986846
0.989059
0.998681
0.98154
0.993164
0.979144
0.996174
0.984195
0.976207
0.988124
0.997889
0.989257
0.980869
0.978815
0.993829
0.967632
0.996762
0.982344
0.989755
0.963387
0.967392
0.980061
0.972785
0.990365
0.987927
0.980952
0.992872
0.954342
0.995236
0.992099
0.996286
0.986754
0.982989
0.990829
0.988431
0.96815
0.983947
0.991139
0.993157
0.986256
0.993732
0.993551
0.992519
0.991833
0.994173
0.993306
0.99431
0.991216
0.991913
0.986208
0.980218
0.9873
0.983376
0.991149
0.971272
0.988857
0.986712
0.997364
0.993482
0.991005
0.980729
0.990357
0.987862
0.99542
0.987414
0.980625
0.978244
0.989434
0.987795
0.9947
0.99044
0.9989
0.989885
0.979666
0.983936
0.983021
0.979574
0.967323
0.988791
0.991442
0.990874
0.99491
0.992991
0.993405
0.980181
0.982858
0.982524
0.973906
0.984724
0.989537
0.994856
0.985376
0.981172
0.988996
0.997626
0.977783
0.986106
0.976514
0.992916
0.956655
0.993724
0.974529
0.988112
0.975868
0.978716
0.978242
0.978312
0.984265
0.939745
0.979907
0.990305
0.970476
0.984352
0.975307
0.98928
0.972345
0.970588
0.971715
0.976932
0.987525
0.994722
0.996595
0.995034
0.996811
0.989591
0.990947
0.992095
0.987188
0.997361
0.997213
0.991058
0.992331
0.988985
0.986487
0.990597
0.990325
0.993326
0.999056
0.962257
0.985802
0.990288
0.998113
0.993313
0.993146
0.991407
0.995644
0.983591
0.99621
0.987776
0.983839
0.985378
0.993614
0.990434
0.997093
0.995936
0.996811
0.996487
0.984627
0.990868
0.988137
0.987956
0.985478
0.997637
0.993301
0.990544
0.997334
0.995702
0.987031
0.973131
0.991897
0.996043
0.983622
0.991699
0.991839
0.998747
0.972722
0.98995
0.993115
0.998714
0.970922
0.981808
0.984747
0.974855
0.983158
0.990852
0.988102
0.978169
0.988358
0.989218
0.965159
0.971246
0.985503
0.993634
0.983469
0.986017
0.987049
0.972539
0.983648
0.985959
0.986754
0.994842
0.982497
0.97958
0.970171
0.993623
0.994776
0.995852
1
0.989243
0.99349
0.995426
0.994658
0.996921
0.999273
0.997794
0.993516
0.995956
0.981333
0.98997
0.984754
0.986355
0.998113
0.968865
0.982717
0.986742
0.999056
0.982523
0.999011
0.987958
0.988464
0.988199
0.998089
0.99292
0.967819
0.958585
0.992879
0.996591
0.999122
0.99284
1
0.997365
0.990438
0.992959
0.982323
0.987865
0.992519
0.996001
0.996244
1
0.999152
0.999961
0.9889
0.991366
0.981588
0.981536
0.989314
0.994769
0.999581
1
0.969234
0.990041
0.991912
1
0.978908
0.990072
0.986028
0.972697
0.98248
0.996928
0.990696
0.988233
0.982085
0.989778
0.980271
0.961382
0.98952
0.984195
0.985559
0.99396
0.987378
0.987877
0.991769
0.992904
0.989116
0.992647
0.984457
0.964387
0.972471
1
0.989746
0.998123
1
0.992029
0.995004
0.997365
1
1
1
0.997794
0.99261
0.993238
0.987811
0.983144
0.982957
0.98567
0.997918
0.921993
0.988857
0.986862
0.998764
0.993032
0.98962
0.989289
0.990867
0.989772
0.996738
0.992224
0.963482
0.954317
0.99462
1
0.999667
0.993266
1
0.996305
0.98605
0.987788
0.966584
0.982358
0.969636
0.998303
0.997754
1
0.999121
0.995895
0.982306
0.9849
0.982314
0.975822
0.976731
0.996024
0.997907
1
0.971259
0.983443
0.994167
0.996834
0.980315
0.982958
0.993563
0.992673
0.982198
0.999432
0.989201
0.98042
0.980728
0.971925
0.967188
0.952077
0.993023
0.988805
0.981223
0.996497
0.980793
0.991595
0.992537
0.998671
0.994384
0.981123
0.990128
0.965852
0.949679
0.996811
0.987038
0.989614
0.996812
0.978293
0.988494
0.998243
0.994348
0.999011
0.997062
0.992491
0.996583
0.991217
0.98412
0.981889
0.979186
0.987339
0.996519
0.9123
0.979329
0.985132
1
0.96459
0.992817
0.989228
0.996545
0.968873
0.998089
0.989442
0.961517
0.962719
0.994234
0.993622
0.992732
0.98773
0.993623
0.985281
0.985988
0.974035
0.979186
0.975884
0.970628
0.999152
0.991714
0.992413
0.993698
0.988305
0.982634
0.984046
0.979353
0.977032
0.983238
0.998117
0.995745
0.997099
0.973901
0.983535
0.988755
0.999967
0.953489
0.983744
0.98322
0.986803
0.970663
0.997997
0.985877
0.991761
0.981805
0.98579
0.959211
0.942425
0.994413
0.971349
0.980874
0.996225
0.996818
0.983342
0.989353
0.999124
0.99272
0.993636
0.98264
0.948779
0.96773
0.996812
0.967348
0.978566
1
0.965712
0.972381
0.995942
0.990828
1
0.993457
0.983004
0.987033
0.976853
0.979453
0.967191
0.981191
0.985345
1
0.949486
0.98688
0.989929
1
0.968862
0.999044
0.984568
0.991348
0.963648
0.999473
0.985902
0.955289
0.959291
0.98692
1
0.970145
0.981692
1
0.974981
0.976364
0.950161
0.971124
0.979909
0.978218
0.990155
0.985634
0.997251
0.983488
0.982459
0.973072
0.981067
0.977388
0.96846
0.97797
0.991979
0.979282
1
0.93971
0.98638
0.994918
1
0.923785
0.990646
0.989325
0.989269
0.975928
0.995158
0.985446
0.987806
0.970437
0.960437
0.914793
0.907017
0.996105
0.987271
0.969913
0.992146
0.99023
0.992642
1
0.997977
0.994886
0.989462
0.985295
0.957355
0.950998
1
0.977407
0.982956
1
0.97887
0.975318
0.992581
0.979062
1
0.989428
0.980139
0.978461
0.973852
0.967265
0.958206
0.990477
0.990527
0.999057
0.947414
0.987537
0.989274
1
0.968761
0.999506
0.986599
0.991166
0.96504
0.999736
0.991557
0.971182
0.97593
0.979453
1
0.97184
0.981226
1
0.968893
0.985417
0.966341
0.972122
0.973275
0.962369
0.983098
0.976808
0.9989
0.983547
0.98571
0.951541
0.975303
0.974902
0.95867
0.984627
0.984723
0.976495
1
0.954383
0.98753
0.989446
1
0.96693
0.987467
0.982523
0.990971
0.976946
0.993989
0.985202
0.976737
0.967159
0.961137
0.920319
0.911145
0.997373
0.974651
0.978316
0.994412
0.977716
0.995818
0.993636
0.997191
0.990935
0.992536
0.972411
0.975888
0.981461
1
0.968816
0.982106
1
0.977401
0.989704
0.989552
0.985448
1
0.987277
0.981185
0.971491
0.974201
0.971653
0.977779
0.993261
0.99294
0.997755
0.970655
0.989546
0.9882
0.994045
0.977245
1
0.995341
0.985968
0.979766
1
0.994281
0.974959
0.983067
0.985914
1
0.975837
0.989278
1
0.98434
0.98466
0.974371
0.983871
0.979147
0.973372
0.984461
0.983274
1
0.98788
0.98389
0.947256
0.980722
0.968945
0.946908
0.981064
0.984097
0.983119
0.999374
0.958892
0.991708
0.989686
0.999044
0.972717
0.987618
0.977704
0.988722
0.941234
0.997629
0.985843
0.985768
0.959584
0.963237
0.911025
0.908686
0.984296
0.989024
0.979479
0.979854
0.996817
0.987375
0.994074
0.996859
0.991904
1
0.985015
0.985367
0.98118
1
0.991411
0.9901
1
0.997794
0.994549
0.991823
0.987923
1
0.996789
0.992645
0.992122
0.976019
0.992896
0.984049
0.991645
0.995115
0.991314
0.970091
0.993589
0.994636
0.988057
0.985221
0.998122
0.991016
0.991107
0.98803
0.999934
0.987079
0.986849
0.985868
0.990867
1
0.988827
0.995626
1
0.990671
0.988502
0.981849
0.979842
0.986412
0.987128
0.993639
0.988578
0.996811
0.990364
0.993881
0.954288
0.98258
0.967857
0.959659
0.984085
0.983747
0.976704
0.996868
0.986052
0.98974
0.993205
0.996933
0.988132
0.985529
0.988532
0.980727
0.955473
0.998497
0.98926
0.987502
0.964672
0.954134