/*--------------------------------*- C++ -*----------------------------------*\
| =========                 |                                                 |
| \\      /  F ield         | OpenFOAM: The Open Source CFD Toolbox           |
|  \\    /   O peration     | Version:  5.x                                   |
|   \\  /    A nd           | Web:      www.OpenFOAM.org                      |
|    \\/     M anipulation  |                                                 |
\*---------------------------------------------------------------------------*/
FoamFile
{
    version     2.0;
    format      ascii;
    class       volScalarField;
    location    "0.9";
    object      Ksl;
}
// * * * * * * * * * * * * * * * * * * * * * * * * * * * * * * * * * * * * * //

dimensions      [1 -3 -1 0 0 0 0];

internalField   nonuniform List<scalar> 
10571
(
9.65812
338.168
1043.58
2722.73
503.532
514.826
1513.78
834.566
7561.18
4452.31
678.907
1345.3
2193.14
7856.12
13067.8
5667.71
5833.89
3902.79
10772.7
14062.7
11520.1
7848.63
11777.9
13480.5
-5.00522e-16
983.037
2292.42
3827.29
10043.5
924.874
1735.76
6445.53
8536.26
4791.42
562.633
1621.88
5302.46
4110.89
3766.66
7061.96
9007.73
2407.97
377.014
131.169
763.937
9011.38
1524.2
1105.48
13377.1
13821.3
13523.7
12806.7
12313.2
3304.15
7371.48
6194.8
3880.21
9558.24
2424.3
3183.51
7364.24
1320.58
814.425
3187.28
9854.63
3743.86
116.226
39.1406
661.971
2944.23
167.817
400.29
878.33
3602.94
2914.21
1203.99
245.881
13011.2
4552.05
497.677
616.029
1229.06
12297.8
10047.9
4506.78
80.768
226.561
824.664
10088.3
1332.54
58.6285
81.7013
239.305
394.831
164.806
104.216
22.4314
61.0476
31.8238
19.4731
79.6971
31.6847
25.6491
14.7009
76.267
812.548
418.785
1646.27
73.7199
23.8318
43.0039
839.194
2619.15
67.3031
50.0074
66.1272
57.1853
75.1828
42.8938
52.7645
34.1459
25.8958
41.8066
27.9297
58.1283
30.3597
25.6083
15.1103
9.63022
658.234
10767.6
77.0245
26.1856
14.112
22.4444
16.4412
290.624
10329.8
26.1313
46.8855
41.8291
28.9804
215.496
54.7863
61.1685
47.1648
28.7871
42.2951
13.7325
32.4014
21.1274
16.2231
20.9566
23.9324
9.23831
123.422
12518.8
31.4667
15.174
9.58721
18.2559
12.8753
34.5734
11906.3
31.4455
52.9291
43.9489
16.8792
158.007
23821.1
50.7098
43.7433
32.2331
11.4747
22.5922
8.69742
13.6127
10.9216
9.45971
33.7883
15.4245
14.9419
38.1676
0
0
8.8474
11.7523
18.6098
14.1819
14.7512
0
18.3861
47.7015
31.5227
70.0261
31.853
0
64.0371
47.3611
26.3094
17.0834
11.4191
27.1555
6.06388
25.8977
17.7265
24.9871
16.4898
10.3781
36.8325
0
40.3389
0
12.3705
22.0197
12.6766
27.6473
0
14.9468
33.6264
27.106
65.6425
16.4123
113.396
32.9292
27.3745
17.7377
20.4578
9.77256
16.9531
14.9154
23.4109
31.0778
8.52226
8.30746
12.6086
21.8128
4.68103
9.18692
22.1869
7.84297
7.99581
30.2889
28.3927
36.8536
15.879
25.6123
106.818
37.685
27.8799
0
7.82258
8.63216
5.35997
14.5123
7.76955
7.58232
7.54183
9.57988
13.0101
20.9974
9.62674
13.0166
15.1509
12.2301
19.8003
6.81808
32.3414
26.1123
11.9295
0.158955
17.6569
28.1779
44.2816
28.8137
26.7638
33.8228
7.12781
12.9085
14.5362
9.08596
5.2683
5.612
3.74576
22.5716
10.696
7.93812
15.5257
9.28524
17.3656
0
31.8553
32.8998
16.2671
9.45514
69.4437
45.1251
74.8209
18.1045
20.3516
9.65104
7.44784
21.5516
26.6897
5.45303
10.5408
6.71693
8.75299
15.3893
5.49275
10.4638
5.70017
6.4837
8.62217
36.0389
22.2142
18.4357
6.25919
17.9326
58.1079
54.7495
32.1954
11.115
8.12441
4.20403
16.278
4.3631
11.2164
8.17279
7.98311
6.38364
15.9909
-4.73854e-16
9.42561
14.2194
5.47761
10.1503
12.8648
32.1376
14.9704
16.1274
5.69203
15.2092
37.7743
5.06377
22.7774
0
2.82344
0.521326
17.5679
8.97733
10.9013
4.22754
4.76943
11.1002
20.8348
0
1.35899
14.4002
3.05759
3.39645
28.1865
26.5631
15.5549
12.9903
26.9371
18.3915
24.2484
15.8463
39.0003
0.595614
5.42337
-4.10877e-15
6.21068
6.58714
5.43659
5.85816
5.9908
10.0475
11.8903
20.2085
0.888136
3.07493
3.84332
5.89002
17.2709
5.19708
5.87844
4.30097
0.825191
18.3959
6.36263
16.4901
0
0
0
10.6888
11.5686
9.83476
14.319
7.36881
7.43587
3.66694
3.86493
0
13.2781
3.92044
2.95582
1.19566
19.7519
15.0029
10.203
6.32426
4.65045
40.2774
13.465
5.03802
20.4483
6.06424
0
8.4535
0
0.244604
6.14836
2.40422
9.39413
8.26932
8.88083
46.5342
16.919
5.95368
1.99636
3.29772
5.1387
19.6522
6.05702
6.19989
6.23902
43.037
0
12.8127
7.02004
0
0
5.50358
9.3772
7.88513
5.41167
6.83934
8.16135
10.3814
13.5635
38.1302
19.1878
0.692201
3.27973
5.26474
17.4724
5.34537
4.12567
2.87273
4.5654
8.4935
7.91689
4.93088
-2.72041e-16
0
0
-3.88983e-15
7.86751
19.5394
0
5.47681
9.37446
6.16481
12.2939
0
0.248976
4.20673
4.16019
3.84129
5.79282
0
4.48685
5.57247
0
33.0183
0
4.91156
0
0
16.1447
6.12499
5.65699
8.27402
0
3.9879
3.69076
8.68852
8.50785
0
6.30438
1.97949
3.80851
5.79422
3.25948
12.3814
3.3444
1.13237
-3.49446e-16
13.2557
6.53717
5.09895
15.4019
0
0.298962
16.3446
10.4705
1.6971
0
5.70648
6.00594
8.91681
2.88448
0
1.78308
4.40988
3.25703
6.65024
19.0408
11.2565
4.98288
3.19793
0
30.0363
0
19.134
36.5859
0
8.94583
10.6721
6.56651
16.3731
6.15778
2.47353
3.35877
5.34593
8.51564
13.2638
0
3.73253
1.49254
2.27311
6.65479
10.6111
4.73359
2.25672
8.56331
7.23664
7.0927
0
0
0
8.9916
10.9282
0
0
12.0681
1.26093
4.05761
9.12845
7.10318
0
0
3.22962
4.04143
5.78174
10.3556
14.9727
1.26091
2.82094
12.4828
-2.45635e-15
6.52248
9.7288
0
0
13.0848
3.41058
0
0
12.3114
1.87583
6.10789
5.08328
11.5367
0
0
0.587044
3.01625
3.83832
2.45342
5.33385
7.41216
1.60501
4.39716
20.5966
0
4.78184
-3.65514e-16
0
0.331719
0
0
4.41785
6.25873
1.87135
4.7188
3.61247
0
0
4.97184
1.92146
1.64126
4.85311
9.21885
5.04483
2.14252
2.98646
8.12679
17.6422
3.77015
3.53029
6.77832
0
0
0
0
0
0
2.91226
3.56211
4.41596
8.27782
0
0
1.90015
1.44455
3.0158
0
0
1.32361
1.69349
0
8.62205
0
9.50369
0
0
0
4.97895
0
0
0
1.74947
2.70776
2.3903
0
0
0
2.96417
2.30628
3.95986
11.3281
0.179461
2.588
2.61083
4.43264
0
0
4.30847
14.2624
0
0
11.0357
0
0
0
0.588577
1.6675
1.4529
0
21.47
0
2.30946
1.51889
2.83526
1.28332
0
2.3073
1.07559
0.885336
22.2391
6.503
4.47324
20.9194
0
0
0
0
0
0
0.562694
0.615873
3.09718
4.25962
21.0987
0
0.481902
0.484794
2.93453
0
0
1.39773
1.00687
0.144735
0
0
5.60731
10.498
0
0
0
1.68569
4.30573
0
0.685267
1.07582
2.31422
-7.59844e-16
0
0
0.490644
0.99529
1.50371
4.50398
1.2098
2.19783
0.858486
0
0
4.31877
4.43494
10.7572
0
0
0
0
0.131243
0
1.56472
1.02657
0.455246
0.176848
0
-1.75729e-16
0
0.509568
3.68556
0
0
1.94308
2.52677
4.60058
8.60942
12.4661
4.40139
20.6567
0
0
0
0
0
0
0.112544
1.00644
0
0
0
0
0.50313
0.479149
3.27537
0
0
0.279641
1.4709
4.44339
11.6023
0.185109
9.36397
10.4111
0
0
0
0
0
0
0.437248
0
0
0
0
0
0.345054
0.468126
1.63889
2.3686
5.2012
1.1292
1.80625
0
0
0
-1.22638e-16
0.354921
0
0
0
0
0
0
0.550784
0.468372
0
0
-6.34896e-16
5.4836
1.66553
0.952493
0.981904
0
0
1.63905
0.48363
0
0
2.9345
0
0
0
0
0
0
0
0
1.06764
0
0
0
22.2038
0
0
0.479187
1.04437
0
0
0.553652
1.98618
4.50954
0
1.46716
4.3689
12.9086
0
0
0
0
0
0
0.488022
0
0
0
0
0
0.967401
0
0.469035
0
0
1.62809
0.470548
0
0
5.71701
0
0
0
0
0
0
0
0
0.0157796
0
0
0
0
5.55317
0
0
0.945138
0
0
0
0.468057
0
0
0
4.44659
0
0
0
0
0
0
0
0
0
0
0
0
0
0.931169
0
0
0
0
1.10293
0
0
0
0
0
0
0
0
0
0
0
0
0
0
0
0
0
0
0.94876
0.861003
0
0
0
0
1.72212
0
0
0
4.35838
0
0
0
0
0
0
0
0.483253
0
0
0
0
0
0
0
0
0
3.51498
-1.05306e-16
0.795679
0
0
0
0
0
0
0
0
0
0
0
0
0
0
0
0
0
0.895313
0
0
0
0
0.571287
0.220391
0
0
0
0
0
0
0
0
0
0
0
0
0
0
0
0
0
0
0
0
0
0
0.541791
0.472826
0
0
0
0
0
0
0
0
0
0
0
0
0
0
0
0
0
0
-7.42876e-17
0
0
0
0.552562
0
0
0
0
0
0
0
0
0
0
0
0
0
0
0
0
0
0
0
0.397853
0
0
5.26034
0.553143
0
0
0
0
0
0
0
0
0
0
0
0
0
0
0
0
0
0
0
0
0
0
0
1.62017
0
0
0
0
0
0
0
0
0
0
0
0
0
0
0
0
0
0
0
0
0
0
0
0
0
0
0
0
0
0
0
0
0
0
0
0
0
0
0
0
0
0
0
0
0
0
0
0
0
0
0
0
0
0
0
0
0
0
0
0
0
0
0
0
0
0
0
0
0
0
0
0
0
0
0
0
0
0
0
0
0
0
0
0
0
0
0
0
0
0
0
0
0
0
0
0
0
0
0
0
0
0
0
0
0
0
0
0
0
0
0
0
0
0
0
0
0
0
0
0
0
0
0
0
0
0
0
0
0
0
0
0
0
0
0
0
0
0
0
0
0
0
0
0
0
0
0
0
0
0
0
0
0
0
0
0
0
0
0
0
0
0
0
0
0
0
0
0
0
0
0
0
0
0
0
0
0
0
0
0
0
0
0
0
0
0
0
0
0
0
0
0
0
0
0
0
0
0
0
0
0
0
0
0
0
0
0
0
0
0
0
0
0
0
0
0
0
0
0
0
0
0
0
0
0
0
0
0
0
0
0
0
0
0
0
0
0
0
0
0
0
0
0
0
0
0
0
0
0
0
0
0
0
0
0
0
0
0
0
0
0
0
0
0
0
0
0
0
0
0
0
0
0
0
0
0
0
0
0
0
0
0
0
0
0
0
0
0
0
0
0
0
0
0
0
0
0
0
0
0
0
0
0
0
0
0
0
0
0
0
0
0
0
0
0
0
0
0
0
0
0
0
0
0
0
0
0
0
0
0
0
0
0
0
0
0
0
0
0
0
0
0
0
0
0
0
0
0
0
0
0
0
0
0
0
0
0
0
0
0
0
0
0
0
0
0
0
0
0
0
0
0
0
0
0
0
0
0
0
0
0
0
0
0
0
0
0
0
0
0
0
0
0
0
0
0
0
0
0
0
0
0
0
0
0
0
0
0
0
0
0
0
0
0
0
0
0
0
0
0
0
0
0
0
0
0
0
0
0
0
0
0
0
0
0
0
0
0
0
0
0
0
0
0
0
0
0
0
0
0
0
0
0
0
0
0
0
0
0
0
0
0
0
0
0
0
0
0
0
0
0
0
0
0
0
0
0
0
0
0
0
0
0
0
0
0
0
0
0
0
0
0
0
0
0
0
0
0
0
0
0
0
0
0
0
0
0
0
0
0
0
0
0
0
0
0
0
0
0
0
0
0
0
0
0
0
0
0
0
0
0
0
0
0
0
0
0
0
0
0
0
0
0
0
0
0
0
0
0
0
0
0
0
0
0
0
0
0
0
0
0
0
0
0
0
0
0
0
0
0
0
0
0
0
0
0
0
0
0
0
0
0
0
0
0
0
0
0
0
0
0
0
0
0
0
0
0
0
0
0
0
0
0
0
0
0
0
0
0
0
0
0
0
0
0
0
0
0
0
0
0
0
0
0
0
0
0
0
0
0
0
0
0
0
0
0
0
0
0
0
0
0
0
0
0
0
0
0
0
0
0
0
0
0
0
0
0
0
0
0
0
0
0
0
0
0
0
0
0
0
0
0
0
0
0
0
0
0
0
0
0
0
0
0
0
0
0
0
0
0
0
0
0
0
0
0
0
0
0
0
0
0
0
0
0
0
0
0
0
0
0
530.363
536.563
224.884
409.577
922.407
1065.43
3620.19
5849.78
2016.44
621.478
452.531
870.532
496.858
309.774
623.887
655.657
4043.2
4394.09
4174.94
4281.2
2357.3
2199.07
5506.1
1001.84
1424.5
3136.1
2708.25
579.775
910.556
1445.8
489.271
2368.05
580.683
1278.78
2885.72
1446.3
3374.72
924.549
2154.45
2079.94
5819.2
2876.16
1166.28
7124
3579.79
1089.07
1160.39
3248.96
677.53
521.254
1300.25
561.989
1104.89
1596.68
3801.92
4138.59
4658.3
7691.73
3680.52
4295.45
7340.11
5347.06
8394.1
9266.57
7176.47
10040.1
9404.39
4167.09
3944.82
6697.95
3450.72
5489.08
3018.85
7470.46
1338.85
4006.53
4332.17
1028.02
3678.32
6431.54
8878.52
5637.7
6790.96
10290.5
9714.96
8382.7
9721.33
8223.04
2908.63
1372.24
1750.13
3456.84
3552.47
5362.32
3207.57
7227.64
241.74
325.869
0
125.697
548.096
204.943
121.042
510.148
722.678
4344.11
13.1159
1164.19
7281.28
4786.86
8396.36
373.425
112.246
725.913
290.489
1188.28
563.083
384.307
809.893
499.112
3453.07
3651.04
2898.15
2316.32
6346.43
4107.46
4912.19
3685.85
4329.02
280.784
162.603
97.122
308.131
313.187
78.2283
4148.55
6554.72
5350.13
7184.65
8084.34
493.065
3261.7
422.913
320.736
3554.33
6476.18
9025.95
6794.79
7511.47
7652.98
4179.17
8088.84
4790.64
10292.6
6642.55
8773.7
7073.09
12037.7
9494.59
12731.1
13448.8
13390.9
6630.69
9158.82
7283.92
9507.12
7091.09
8358.16
11572.7
9863.42
9759.29
10387.7
12328.3
14025.6
11828.6
10764
11589.4
10385.4
13221
11571.6
2393.28
10688.8
390.095
2052.56
2146.05
4544.45
9238.72
7472.88
2621.86
9558.62
2981.73
8298.85
12047.7
12718
14007.8
281.588
535.884
2339.64
798.593
1573.02
6059.49
8439.13
2935.72
4483.43
12017.7
7808.19
10845.9
13278
13448.5
12320.8
12384.4
9098.51
12243.1
481.113
317.852
373.196
631.638
1274.29
979.258
8143.23
7150.47
8171.27
8002.88
6794.42
747.966
4787.72
847.519
1488.6
5670.07
7107.25
4261.15
6096.4
5746.49
820.158
9655.37
11266.6
7703.71
12683
10859.7
8901.94
6318.53
12841
12009.3
1324.67
320.559
498.551
133.902
574.269
304.117
158.247
596.674
13125
13858.9
5972.97
4186.94
8648.48
1256.09
437.382
1255.86
3278.16
268.754
458.472
492.585
350.732
15052.7
11064.2
13323.2
14041.1
14298.4
13190.8
11822.8
13199.1
13611.3
13024.7
12972.6
13559.2
11924.1
13822.6
10553.9
2721.24
12267.9
13781.3
8801.21
11732.4
14259.9
13148.9
14696.2
13593.3
12708
9843.36
11759.5
5625.18
8162.94
964.209
6184.94
11733.6
8344.86
1532.92
2991.59
2693.26
8590.81
7741.86
7966.91
8648.98
7121.48
7806.61
5869.97
5223.38
4037.67
7952.48
6728.03
7739.15
10317.4
4634.43
368.012
816.596
1279.26
518.047
12382.6
12554.1
4725.53
12987.9
11714.1
11236.1
4548.71
11333.2
8507.04
182.435
221.538
134.078
95.4289
173.168
162.572
77.6837
473.928
9815.96
1395.25
526.189
279.306
631.364
363.963
149.679
264.211
250.266
100.436
209.781
124.326
248.878
607.612
65.1688
826.443
727.168
1116.59
88.4567
43.5009
31.0868
1219.72
976.688
138.065
22.6137
82.6327
734.076
202.413
12048.9
691.657
1974.3
9387.86
6659.16
31.3151
79.908
214.507
110.242
1156.65
49.8042
954.296
108.552
670.604
11.4746
684.068
820.489
562.442
13021.3
12922.3
12293.9
2479.31
7226.54
7411.49
1158.12
333.234
748.322
1279.24
249.566
11059.3
11175.6
10456.7
11656.7
10720.4
39.1457
489.587
1044.47
246.731
427.539
11605.8
8421.33
5111.64
3452.68
4234.11
5532.78
7234.59
1141.17
1985.45
139.037
147.883
73.8654
69.3774
67.3502
90.0138
70.7038
141.154
385.759
218.099
183.433
59.6748
177.379
43.3637
134.922
78.7158
242.164
64.5621
78.9819
58.9238
124.031
37.6661
53.2861
60.3737
43.0033
18.0795
38.215
27.2648
44.063
27.558
68.9635
40.8128
35.0606
44.9901
159.668
137.091
22.5953
24.4587
30.2773
34.1524
17.2069
16.5487
52.3363
11.112
55.1697
419.409
15.0688
402.093
42.9537
280.79
13.0719
194.65
570.877
565.527
45.0033
165.938
184.211
28.6657
15.3202
39.8884
1379.88
692.179
729.095
786.498
785.166
2298.73
3144.16
40.6267
54.2744
89.3087
576.404
432.387
551.574
544.266
341.666
2008.34
136.26
1603.19
580.356
293.486
95.3223
40.6774
141.427
81.9243
72.3504
76.6142
56.3166
44.7406
41.5922
74.7384
22.2471
119.504
88.1642
16.284
17.179
53.3035
88.9453
27.1797
0
85.0854
15.3503
58.2616
46.8624
4.78622
44.6704
74.3945
41.7697
29.2353
66.1962
55.7982
32.7235
29.2002
27.2339
21.4316
43.4269
24.7011
25.1328
24.5531
70.3472
75.6152
0.262273
9.08106
47.2207
21.2319
35.4521
55.5679
21.5057
33.8977
23.3335
165.245
9.58272
86.205
32.6773
103.072
8.72916
54.8191
498.834
347.845
11.7578
28.22
41.9002
24.7788
34.5143
18.4762
3026.71
299.548
4996.96
420.729
7882.01
13.0841
6721.76
16994.7
10655.9
8353.52
10570.7
10977.2
11781.8
12400.5
37.3812
27.4314
6.26165
27.9545
11.8567
5712.53
512.687
3134.53
55.2728
4138.97
444.193
8210.81
11644.2
10273.4
8895.41
11377.8
13782.2
9156.05
11633.2
57.5807
25.8242
31.1918
81.0736
65.3993
34.0046
24.9173
40.123
63.6694
60.7519
30.3396
59.4229
37.6732
33.4438
47.4372
13.477
153.315
59.4695
73.91
49.3661
47.3691
79.1115
17.1876
84.6602
52.174
16.6297
16.0058
61.494
118.826
-4.76435e-15
1.84778
38.402
30.5097
15.0793
29.5023
21.4079
27.0975
27.3217
37.0696
6.17784
28.2602
23.4929
16.5727
51.1125
41.0951
12.3569
26.2829
31.2045
38.8053
9.04347
12.9397
32.091
10.0969
27.083
58.825
17.7783
44.2537
5.86748
29.3045
14.9918
17.2384
259.247
3554.95
74.9167
40.2771
42328.3
80172.4
101.202
446.277
21.7216
53.9869
28.3132
12.5764
0
20.4796
2315.41
21.4467
9248.24
37.0481
67.7552
22.9305
79.5965
8500.13
10922.5
9473.44
181.441
695.635
273.117
1420.62
18.8565
15.5002
25.1388
28.3843
29.9107
2121.31
191.854
6346.91
21.5818
61.8533
30.6935
91.718
11305.7
18538.9
17449.5
655.164
4360.48
2232.84
10975.7
25.3621
35.2846
42.9386
39.0371
69.1609
24.2945
26.131
35.35
79.3911
38.7787
15.4138
39.4433
47.6533
9.45851
20.2925
50.4181
6702.97
10.7761
95.2976
24282.2
2027.41
24818.9
8.15505
161.397
41.9452
92.1355
105.104
46.5541
86.3677
51.9044
45.2555
42.5072
45.8815
58.3508
7.04657
19.0432
0
16.7814
10.7004
41.4643
16.908
16.692
29.1781
19.8275
34.2201
32.6323
9.92406
24.0067
58.2008
39.0376
18.4055
22.2055
25.8528
24.1499
4.94996
15.3951
5.6372
27.8914
19.2921
61.219
6.39272
16.3888
20.2493
40.8566
9.20482
17.1372
83.206
13.361
47.5722
0
0
0
0
0
7.97201
10.4712
40.4772
13.4512
11.0299
12.2106
55.0302
8.70078
36.2399
33.2008
17.0577
18.3091
28.9936
0
0
0
0
0
0
0
33.5315
21.395
45.8389
19.719
12.9483
38.065
17.0137
20.3099
22.788
21.2816
39.6149
20.9924
0
0
19.1264
0
0
0
0
12.8371
9.16071
11.7678
29.3077
42.3783
31.8976
7.85191
40.8208
27.7988
13.7829
29.5931
15.88
1.52975
8.95663
38.7974
31.5507
8.97409
24.1524
0
41.5197
0
0
106.608
108.04
76.0284
42.1883
139.574
87.3689
98.3894
19.6844
21.0562
22.695
19.5397
6.25758
18.5799
8.78314
3.39054
0
42.6621
10.5068
0
5.88988
29.5172
15.2714
16.8465
38.465
21.6863
15.1104
14.0891
30.0023
22.3446
2.98992
20.8837
7.17866
9.3316
22.6841
14.7052
7.86526
15.1742
26.8488
13.4212
14.6635
10.8002
33.2007
14.0369
5.83657
30.4932
38.3743
13.312
21.9526
10.1796
27.0833
11.7991
1.96342
18.0479
18.1572
18.975
15.0651
0.957116
22.3157
18.8544
0
0
0
0
0
0
0
19.551
18.7144
10.1428
17.9496
13.7412
56.2449
17.4039
25.7864
17.0478
39.4975
23.0207
16.5753
0
0
0
0
0
0
0
8.72597
9.20582
4.49281
13.8484
45.3915
15.0565
-4.1415e-16
16.453
55.0677
42.2688
23.2143
46.7222
29.0796
11.9168
13.6916
15.5767
36.7997
112.025
45.8368
87.4772
49.9321
63.0235
120.534
196.115
19.1787
104.54
36.0246
29.5849
76.454
38.2387
0
10.7483
19.018
16.8174
6.82929
0
12.0516
13.8689
11.9457
14.4678
15.1064
16.4895
24.6311
28.9158
37.569
8.86431
26.0674
14.81
4.01586
26.5442
16.396
12.6866
0.143889
18.7822
20.2032
8.16703
13.6156
12.2208
9.61054
12.5957
21.169
30.4243
21.7989
46.2445
48.7097
34.8819
18.9013
4.44151
21.363
21.7542
52.9538
20.0487
28.7668
43.5322
23.5958
14.4262
25.5233
22.4726
11.6146
34.5832
41.2244
16.9402
30.3178
34.3606
21.2187
22.836
24.0539
34.6124
22.8276
24.5146
11.2381
13.0115
19.7043
30.2218
41.7024
10.1029
23.3258
20.0756
22.6529
7.64226
0
43.0087
72.7085
114.296
76.4528
99.2534
128.501
78.1763
19.3862
76.9087
28.7331
69.6965
90.2204
21.6238
11.0138
3.75165
0
6.01499
13.2567
31.1868
9.80093
5.37022
8.55076
14.4524
8.24487
22.163
12.9899
29.2761
19.3913
25.6027
28.8148
6.87904
17.2651
25.6447
23.8644
9.11335
22.4954
20.2026
11.4842
6.94461
19.434
12.6043
16.9594
20.2189
15.4867
31.8763
8.37647
8.92289
19.9899
14.9954
5.46491
12.2042
8.11461
11.4862
94.9387
18.1366
22.8963
30.4482
16.0968
21.4097
0.383449
17.0529
16.3464
43.4961
14.7224
6.85014
93.4275
11.3184
8.7035
43.5201
14.8738
17.1007
42.6061
16.1043
13.1751
6.28453
32.758
33.9942
3.93748
9.79315
26.2234
-5.3953e-16
14.8607
16.4142
9.91897
101.055
45.1827
44.788
81.3931
44.8802
77.9569
81.8865
41.7996
118.87
35.7559
58.8671
0.934375
30.1472
24.2468
4.04356
34.0577
8.8297
9.70315
17.8617
6.52923
3.77879
19.7211
6.49763
34.077
1.40025
8.77507
33.7255
17.8931
23.7748
25.8273
4.57863
7.9379
6.3929
16.3868
7.23146
31.6698
11.1684
19.5858
8.17652
16.7668
8.7712
5.491
0.449079
10.4114
18.2602
13.9443
25.2206
0
15.3339
24.3264
13.8899
9.43767
20.9515
28.3646
39.7898
11.9543
60.3278
13.5818
29.8429
27.7335
12.7044
5.77356
104.25
16.5145
17.2753
91.392
19.7791
32.7477
11.3071
28.6194
3.23267
18.3504
21.2775
16.1974
25.1035
49.1635
9.73816
9.40178
10.6523
2.26527
13.7676
15.3052
5.15279
28.3322
37.7675
39.9612
44.4699
175.489
8.02754
80.658
52.712
8.10484
63.2178
47.1187
78.533
139.711
33.5257
10.3142
0
-5.52855e-15
6.65095
5.66095
18.2571
14.6761
18.9615
4.75182
5.67767
21.7895
0.159358
13.3273
12.6939
13.7623
31.3534
36.9656
10.9242
12.4619
18.1646
0
1.98749
32.0165
0.226697
11.9027
11.7956
8.91679
10.2889
18.5274
18.0808
7.58324
26.7419
23.3554
16.4217
14.2917
9.02135
17.8469
0
9.28484
16.9548
40.0114
15.2513
25.9756
41.7303
35.6035
8.14856
14.9615
20.4809
20.8535
50.2258
13.5297
18.2082
89.0203
34.9464
10.9481
70.5421
26.5762
13.5513
63.4361
29.2199
17.2466
20.2625
35.1153
4.82606
5.39737
0
11.9425
11.9664
10.6108
15.3457
27.064
34.1441
44.0358
83.9558
59.1596
18.9128
33.9806
23.8538
10.2074
43.5125
50.8296
34.7802
118.802
11.5801
0
0.69727
0
-6.39153e-15
11.2183
18.5829
6.26081
1.17047
1.99545
-5.73601e-15
0
17.893
11.6957
0
17.9589
37.4337
11.9562
3.4474
4.67491
11.9762
0
6.22523
15.3941
2.92806
8.67073
18.0106
21.6985
12.5571
35.2338
19.6186
9.09309
14.1069
21.552
23.6394
33.6694
26.0406
12.5976
0
14.6201
19.0677
29.8818
10.8165
4.95067
25.0147
20.6621
20.8744
33.3983
9.72722
32.7754
92.8989
37.1879
43.9485
68.3151
12.7824
45.1146
56.4519
23.3799
14.5728
16.7738
38.7185
17.1963
33.7108
18.0447
9.8206
10.4656
7.48577
14.1475
5.34182
5.77921
12.6086
0
32.2164
22.5467
34.7798
57.7203
27.4463
18.2731
18.8001
41.7349
25.7114
17.5678
25.9876
51.0677
21.0976
12.7218
11.9588
14.703
10.1667
19.6074
25.0092
6.45586
4.92316
9.92709
5.75852
26.5827
1.82281
6.05011
0
18.7605
9.09995
0
7.41846
7.9052
7.55346
11.5447
2.05106
4.31209
5.16645
16.1102
0.856001
11.5544
7.35111
30.8243
0
12.6393
17.3332
14.5348
11.5996
18.4114
14.2898
8.06059
31.3228
10.2991
21.1785
112.227
20.839
20.6003
38.5404
3.15708
14.4559
4.19543
5.00047
11.9855
123.674
43.684
28.8836
79.2711
31.2901
9.88014
48.1046
24.5537
29.258
22.6893
38.4608
-1.85494e-15
12.3395
18.6578
4.60231
5.72189
7.79846
-3.24981e-15
0
4.70715
7.52464
-1.44799e-16
11.9792
23.8268
24.0467
14.5033
53.4318
19.065
6.01816
19.9347
24.7394
8.18805
32.1346
0
0
12.0449
-3.68611e-16
-5.77039e-16
10.7628
10.5975
36.9429
13.2713
-6.21433e-15
5.19134
5.30159
0
4.92777
0
36.9541
0
10.9995
13.1932
7.83771
0
0
0
4.79733
7.83955
5.59074
16.0194
-1.71673e-15
14.3652
3.69048
6.46359
24.6711
4.03954
19.5066
7.31292
15.9661
0
11.321
0
-1.58231e-14
8.08921
22.1946
60.2408
21.0046
14.2221
26.1066
3.37991
6.5808
0
10.273
40.5379
84.8537
21.35
20.2218
23.3739
24.0158
13.3305
17.7608
11.7792
39.6758
34.7624
14.3337
30.1174
35.7981
23.8819
16.1502
9.31934
0
0.120556
8.88163
0.11923
13.8222
18.468
12.079
28.1931
8.0242
11.7886
14.3524
25.7088
0
6.15386
0
5.07435
0
0
0
11.4071
0
0
0.213998
5.33489
0
6.2589
0
5.25106
6.00603
13.9697
4.87521
5.85819
0
0
0
0
7.4703
4.52947
-1.71409e-15
13.6607
4.25824
7.34361
2.40726
8.24612
4.64519
7.36582
0
25.9394
13.353
19.0715
11.3836
17.8936
6.65873
17.5361
5.01482
-3.97638e-15
18.6485
20.0295
14.5585
31.6732
33.3603
16.815
35.191
3.74364
28.119
33.0027
35.5126
13.2851
22.2039
14.8419
11.0147
34.6873
18.3924
16.5884
12.5425
24.0838
33.051
26.6662
17.0664
11.9308
7.03528
9.98357
14.0901
2.07868
8.45137
5.12691
0.157494
14.0319
8.02868
21.0396
33.9432
12.2358
15.5801
13.7887
13.4447
12.3053
3.60113
4.78954
0.665334
9.89021
1.26981
0
10.3329
0
0
18.7015
0.303842
12.0508
8.38374
6.24896
0
5.02398
13.641
12.7791
4.94017
5.7012
0
13.2485
0
0
4.86559
0
3.74375
0
-1.53771e-15
5.23458
0
11.3755
12.9815
16.432
9.10696
12.9651
0.381798
14.2843
41.7053
10.5778
6.28566
55.623
15.2579
13.5281
3.89943
15.5282
26.4077
24.324
16.8189
18.1338
35.3988
26.1019
4.8288
78.7014
16.8308
23.3896
40.012
13.1346
7.31935
18.6329
31.0206
0.809924
25.6173
12.5633
52.9268
6.13378
5.34848
6.03927
9.45588
16.105
8.84321
-1.39793e-16
2.07509
5.00838
21.1455
0.182762
6.64317
16.2644
12.471
12.4761
8.69069
17.4226
0
0
-3.35938e-15
7.98656
2.48149
5.0723
0
17.6907
3.66823
11.6725
11.5924
0
0.23054
0
0
5.84603
7.95252
1.9533
11.9553
0
8.58171
6.15602
6.14121
30.9177
0
0
0
4.70475
5.68626
0
0
-1.40739e-16
0
8.07658
9.84827
16.531
1.99385
10.8409
9.48886
15.0237
18.0261
19.8965
0.420134
14.6007
10.1633
2.40311
0
0
14.9385
27.3373
15.3841
14.2315
10.6519
21.6206
19.5966
15.3784
7.46753
20.2153
21.9578
24.2132
8.92651
10.7661
5.63493
0
0
5.94211
0
6.60843
11.1071
7.57495
8.3938
13.2819
3.70241
17.1527
0.36757
0
4.95285
0
8.23019
34.614
0
0
4.96279
17.0964
6.75616
14.8835
0
12.6374
0
5.05808
17.8739
0
0
0.374273
0
0
0
9.427
0
0
5.3256
5.19851
0
0
0
0
9.89328
19.7245
4.71905
20.281
9.60582
12.9154
0
0
6.05544
1.63927
0
11.1225
6.31176
4.72966
4.46298
2.05279
5.09451
7.31717
7.08371
6.55298
4.50013
0
0
0
0
0
14.9879
21.8158
4.07705
12.5296
0
14.4014
6.67715
0
16.3321
5.49481
20.7019
4.15256
7.7677
10.1006
8.85166
0
0
18.0184
18.4581
5.62155
0
12.7471
1.74996
0.405446
16.1446
9.14992
8.20296
9.45784
8.0449
7.58075
15.104
43.5918
-3.58199e-16
23.5445
5.04468
0
13.313
0
0
0
0
9.96625
1.49632
17.4109
0
0
6.6896
0
6.31194
6.18856
0
0
0
1.51082
0
0
25.8205
16.4317
10.3627
0
0
0
0
0.557632
0
0.305891
2.06462
1.92766
0
9.87207
5.89465
4.28207
13.2081
1.56404
3.97971
8.5992
22.1942
6.34075
0
0
5.47237
0
0
0
15.0408
12.8776
17.1749
7.06823
10.9748
0
1.19421
5.11657
4.57464
0
22.6681
16.634
12.9437
34.3158
12.8239
0
0
10.867
15.0627
21.3747
18.5201
5.19928
12.3925
10.7176
8.16687
9.6687
1.28456
0
8.25952
3.65772
17.0324
10.1564
0
23.7331
5.31515
0
6.70551
20.5693
17.9886
21.8049
17.5203
0
13.3501
14.053
9.61929
0
0
0
0
5.13319
0
0
5.09801
13.6111
12.9432
0
0.174116
13.5926
0
0
12.5095
0
4.5344
0
0
8.996
4.75472
0
-1.39903e-16
7.03989
0
-1.12331e-15
5.84078
6.96782
10.0847
3.69458
14.2792
0
0
0
0
0
0
11.2699
4.84655
11.4826
0
13.3206
-7.83497e-15
0
0
-6.32538e-16
0
0
11.3513
19.3219
5.13207
8.10263
15.2953
0
12.0105
4.06463
20.5164
5.24038
2.56
0
6.13568
0
10.1375
5.22934
38.4502
0
15.3645
13.2725
22.9528
8.20541
34.7405
0
5.29299
35.7023
0
5.23235
35.3122
2.27234
3.62677
9.82518
6.00677
0
0.376269
0
0
0
0
1.22056
0
0
3.85655
0
0
0
0
0
0
0
0
2.6663
0
5.17093
5.323
5.77617
6.35632
5.24188
5.43556
0
3.38007
11.182
2.88749
6.87237
5.13697
8.55456
7.17573
0
0
6.98139
5.74828
0
0
0
3.07295
11.5834
0.447407
10.0001
24.2475
-1.69466e-15
0
18.9024
5.61428
0
0
4.50586
9.79157
10.8378
4.24384
13.047
0.39727
0
-2.77647e-15
0
8.7811
0
6.48533
15.9486
0.749252
4.43384
0
6.63032
0
22.0968
3.2148
25.2197
0
-3.52057e-16
5.13488
17.1752
12.8115
0
0
0
17.7609
0
7.26885
0
0
0
0
16.7637
0
0
0
0
0
0
0
0
5.6926
11.4575
0
0
10.0442
0
11.9902
0
0
0
2.99138
5.14796
0
0
5.03427
2.29642
0
0
8.40423
2.52107
0
0
4.33711
0
7.9101
7.23851
21.6285
0
9.51287
0.485815
8.23704
10.049
0.57851
0
7.07194
0
0
7.67935
12.1703
13.1636
0.078717
33.5374
13.0242
13.121
0.458561
5.5573
9.79222
0
-3.11423e-15
0
9.5926
0
8.21046
14.5589
22.7363
0
4.23104
4.90308
15.0758
0
0
0
9.76202
18.259
6.31794
5.26467
17.2278
4.67742
0
0
6.15278
0
13.1899
0
0
0
0
0
0
6.06744
0
0
12.351
0
4.66436
-7.11971e-16
0
0
0
0
0
0.77021
0
1.7924
0
6.09993
0
0
9.63407
3.80123
0
0
0
7.04188
2.43179
0
0
7.28439
4.74222
-2.30201e-16
13.7272
7.47575
5.09004
0
4.28982
4.28176
0
0
0
0
5.33596
0
15.8278
8.78417
14.0847
0
23.606
10.9565
0
5.62915
9.75373
6.21041
5.82345
0
0
0
0
15.5045
17.4298
8.61113
8.39233
4.54944
-1.25577e-15
13.4393
10.1916
0
5.15766
16.112
2.28252
-4.31061e-15
14.8489
0
0.993253
4.86804
0
18.8588
0
0
10.844
0
0
-4.05054e-15
0
0
-1.47208e-16
5.42096
0
0
0
0
0
0
13.8906
12.8931
3.88303
5.34693
0
9.17049
0.808601
1.8897
0
0
5.08846
3.51641
4.44749
7.41777
0
0
0
0
7.43236
0
0
0
20.9554
6.38298
6.70828
0
7.15084
1.07712
0
0.173732
0
0
0
0
0.720298
6.60586
12.116
0
16.7745
0
8.8493
0
-3.19368e-16
7.18548
3.70424
0
14.292
9.01356
3.9427
0.685073
15.3157
6.43494
3.97073
7.13145
7.93284
16.6909
0
-2.3025e-15
0
0
6.92391
25.4091
18.3731
8.50837
0
6.86181
11.533
47.8644
0
0
0
0
0
0
0
0
4.50857
4.68528
0
0
4.57367
0
0
0
0.453938
0.45133
4.61338
9.01298
0
0
4.66554
0
0
0
4.80198
0
4.50488
0
4.78792
7.29187
0
0
-1.37478e-15
0
0
14.8297
21.6994
-1.7646e-16
0.465604
0
8.26817
3.29682
0
15.0731
7.34893
0
3.1769
0.240388
0
7.81369
3.59387
0
0.898174
4.1013
0
5.49858
3.58705
5.1242
0
0
6.73656
0
4.11159
4.0205
12.7604
0
6.53169
14.2149
0
0.946239
12.0514
0.402519
0
0
6.60434
0
17.2033
4.75112
0
4.87205
11.6851
0
10.8935
0
10.3228
0
5.89856
4.58847
0
0
0
0
0
0
0
0
0
0
4.76156
20.996
4.72901
0
0
10.0544
0.484089
2.48288
5.39664
0
0
0
0
0
0
0
0
0
11.9907
0
5.66085
0
0
0
0
11.4013
0
3.36072
0
0
0
-1.25825e-14
0
7.49996
11.7261
7.63901
0.703003
13.6762
4.38256
0
4.71631
0
3.2113
0
6.0623
5.47651
5.27706
0
10.9318
2.82279
8.01728
0.196406
9.73793
1.48068
7.41758
0
0
10.9101
0
17.2763
7.21404
0
0
1.20355
0
4.47736
0
0
6.93162
0
0
0
0.355774
0
0
0
0
0
0
0
0
0
0
0
0.47476
0
0.341339
0
4.47766
0
0
0
6.8777
0
0
0
0
0
0
0
0
0
7.33711
0
0
0
0
0
6.73085
0
2.24614
4.20298
0
0
0
0
0
0
3.93995
4.33319
3.59488
0
5.82383
7.97977
0
0
9.79937
0.191408
0
6.08326
0
10.8443
7.84591
0
0.515978
7.76983
3.2493
2.23104
23.1218
6.07971
13.1069
0
4.8073
0
4.2681
2.2216
6.1833
0
-7.56581e-16
0
-1.05069e-15
0
0
0
0
0
0
0
0
0
0
0
0
0
1.25463
4.13219
0
0
0
13.3689
0
0
0
9.87447
0
0
0
0
0
0
4.39184
0
-3.2996e-16
0
0
0
0
0
0
0
0
0
3.53912
0
4.18357
4.17162
-1.09647e-14
-1.78177e-16
0
0
5.61109
2.58375
0
2.8188
9.86399
0
3.15268
13.5069
0
0
10.1737
4.99687
0
5.52227
0
5.11303
4.40259
2.84413
0
0
23.5885
0
0
3.93707
0
0
0
11.6772
0.292756
0
0
5.7115
5.22681
4.57172
0
19.5824
0
0
0
0
5.5214
0.171492
0
0
1.99316
0
0
0
0
0
0
0
0
0
0
0
0
0
0
5.66356
0
0
4.42168
3.53432
0.150781
0
0
0
0
0
0
0
0
0
0
0
0
0
0
3.373
0
0
4.24132
0
5.94094
0
0
3.004
0.161823
0
9.01979
0
0
0
0
0
4.65911
0
0
4.84028
4.03172
0
0
0
0
0
8.03069
17.3336
0.3866
9.32278
11.4703
0
0
0
0
0
0
3.60415
17.0228
2.88741
9.917
0
0
0
0
0
0
0
0
0
0
0
0
0
0
0
0
0
0
0
0
0
0
0
0
0
4.29896
0
0
0
-1.40622e-16
0
0
0
0
0
0
0
0
-5.03578e-15
0
0
8.5094
6.76125
0
5.94099
0
0
0
-6.24426e-15
0
-1.41134e-16
3.29403
4.70006
11.7646
0
0
0
0
0.164614
0
5.51877
9.49444
5.14828
4.2607
3.39235
7.69887
0
13.7416
5.16812
13.2382
5.49233
0
0
0
0
12.1984
0
16.4093
5.63703
0
4.55744
0
0
10.1836
0
0
0
0
0
0
0
0
0
0
0
0
0
0
0
0
0
0
5.62026
1.94888
0
0
0.195179
3.71779
0
0
0
0
0
0
0
0
0
7.64785
0
5.86331
0
0
0
3.2045
0
0
3.28401
0
0
7.24301
0
0
7.5084
8.29394
1.68329
3.44393
-4.30934e-16
0.185845
0
0
0
8.3291
5.86613
5.22643
10.8012
0
0
12.076
8.49997
7.62113
0
0
12.5911
0
0
0
0
0
0
0
0
0
5.6213
0
0
0
0
0
0
0
0
0
0
0
0
0
0
0
0
0
0
0
0
0
0
0
5.48329
0
0
0
0
0
0
0
0
0
0
0
0
0
0
0
0
0
0
0
0
3.28024
0
0
0
0
0
0
0
0
-5.27401e-15
0
0
3.34629
0
0
0
0
0
0
0
0
0
0
-1.55188e-15
0
0
0
0
0
0
15.1183
0
0
10.8264
0
0
0
0
0
11.1029
0
0
3.72267
0
9.87357
0
0
0
0
0
0
0
0
0
0
0
0
0
0
0
0
0
0
0
0
0
0
0
0
0
0
0
0
0
0
0
0
0
0
0
7.45657
0
0
4.05524
3.19647
0
0
0
0
-3.27115e-15
7.44859
0.697699
5.70267
0
0
0
0
0
0
0
0
0
0
4.99368
0
5.32725
0
0
4.03133
0
0
-1.40645e-15
4.237
0
7.3451
0
1.28177
0.507821
0
0
11.0258
4.69635
0
11.2563
0
0
0
16.6051
0
0
0
0
0
0
0
0
0
0
0
0
0
0
0
0
0
0
0
0
0
0
0
0
0
0
0
0
0
0
0
0
0
0
15.1265
0
0
0.2454
0
-5.19779e-15
0
0
0
0
0
0
0
0
0
0
0
7.98055
0
0
0
0
0
0
0
0
5.31301
0
0
4.73911
0
-1.28298e-15
0
4.39296
8.15336
4.17852
0
8.56816
0
0.500453
0
0
0
0
0
4.0335
0
4.42418
0
0
0
0
0
0
0
0
0
0
0
0
0
0
0
0
0
0
0
0
0
0
0
0
0
0
0
0
0
0
0
0
0
0
0
0
0
0
4.96439
0
0
0
0
0
0
0
0
0
0
0
0
0
0
0
0
0
0
0
0
0
0
0.139281
0
-1.60591e-15
0
0
4.07044
0
7.54957
0
0
11.3782
1.71139
0
0
0
0
0
0
0
0
0
0
-2.58748e-15
0
0
0
0
0
0
0
0
0
0
0
0
0
0
0
0
0
0
0
0
0
0
0
0
0
0
0
0
0
0
0
0
0
0
0
0
0
0
0
7.53165
0
0
2.69171
0
0
0
0
0
0
0
0
0
0
0
0
0
0
0
0
5.21992
0
5.2173
0
0
0
0
3.96369
0.115025
-2.07756e-15
0
-9.62917e-17
0
7.51207
8.43972
0
0
0
0
0
4.53356
0
0
0
0
0
0
0
0
0
0
0
0
0
0
0
0
0
0
0
0
0
0
0
0
0
0
0
0
0
0
0
0
0
0
0
0
0
0
0
0
0
-1.86244e-14
0
0
17.6627
0
0
0
0
0
0
5.87175
0
0
0
0
0
0
0
0
0
0
0
0
0
0
0
0
0
0
3.87332
0
0
0
0
0.258127
14.4198
0
0
0
0
0
0
0
0
0
0
0
5.51817
0
0
0
0
0
0
0
0
0
0
0
0
0
0
0
0
0
0
0
0
0
0
0
0
0
0
0
0
0
0
0
0
0
0
0
0
0
0
0
0
0
0
0
0
0
0
0
0
0
0
0
0
0
0
0
0