/*--------------------------------*- C++ -*----------------------------------*\
| =========                 |                                                 |
| \\      /  F ield         | OpenFOAM: The Open Source CFD Toolbox           |
|  \\    /   O peration     | Version:  5.x                                   |
|   \\  /    A nd           | Web:      www.OpenFOAM.org                      |
|    \\/     M anipulation  |                                                 |
\*---------------------------------------------------------------------------*/
FoamFile
{
    version     2.0;
    format      ascii;
    class       surfaceScalarField;
    location    "3.75";
    object      phi;
}
// * * * * * * * * * * * * * * * * * * * * * * * * * * * * * * * * * * * * * //

dimensions      [0 3 -1 0 0 0 0];

internalField   nonuniform List<scalar> 
29271
(
-1.09565e-05
-2.81846e-06
7.01719e-06
6.9601e-06
-1.27857e-05
2.57202e-06
6.83834e-07
9.84971e-06
-3.02437e-05
-4.88357e-06
-6.05995e-06
7.67504e-06
5.44811e-06
2.80641e-05
-5.16972e-05
-2.90453e-06
-3.81237e-06
-2.0314e-06
-4.59103e-07
6.09046e-05
-5.53544e-05
-1.57553e-06
-1.17913e-06
4.85193e-06
5.418e-05
-9.2281e-07
-2.64641e-05
-3.38916e-06
-3.96421e-06
1.08457e-05
5.78791e-06
1.71839e-05
-6.64757e-05
-9.88204e-06
-2.39924e-05
3.23258e-05
4.69782e-06
6.33265e-05
-6.71949e-05
-5.92047e-06
-1.0448e-05
6.86079e-06
7.01008e-06
6.96925e-05
-4.69017e-05
-3.76489e-06
-5.15975e-06
1.11414e-06
7.38786e-06
4.73244e-05
-2.35896e-05
3.10313e-07
-2.69538e-06
1.95418e-05
6.64484e-06
-1.30452e-05
-7.57066e-06
1.10247e-05
9.65212e-06
-6.32541e-05
-1.88547e-05
-1.18351e-05
3.27901e-05
1.08231e-05
5.03308e-05
-4.56751e-05
-3.52424e-06
-3.06743e-05
1.85782e-05
8.37483e-07
6.0458e-05
-3.45585e-05
8.91819e-06
-5.6665e-06
1.06334e-06
-5.49826e-06
3.57418e-05
-6.75522e-05
5.06835e-06
-5.69129e-07
-1.88864e-06
-9.104e-06
7.40457e-05
-3.10159e-05
1.29447e-06
-1.82451e-06
-3.24863e-07
2.23523e-05
9.51844e-06
-5.72685e-05
-9.91134e-06
1.12237e-05
1.05561e-06
6.77836e-05
-1.2883e-05
-3.80781e-05
-4.26529e-06
1.1303e-06
5.7033e-06
-5.81954e-06
4.13293e-05
-5.26725e-05
7.61826e-06
5.18273e-06
-4.04456e-06
-7.1838e-06
5.10998e-05
-4.86814e-05
-5.92836e-06
-5.24424e-06
5.52462e-05
2.52061e-06
2.08718e-06
-1.19217e-05
5.78771e-07
2.56505e-06
9.0107e-06
-2.0625e-05
-5.73423e-07
-5.65299e-08
1.75063e-05
4.10823e-06
-4.33023e-05
1.31273e-06
-3.0645e-07
-1.16332e-06
3.58715e-05
7.58785e-06
-9.99922e-06
1.21508e-06
1.66962e-06
7.41306e-06
-2.78186e-06
4.69916e-08
2.13149e-06
6.36061e-07
-6.63419e-06
4.0425e-06
2.87253e-07
2.60047e-06
-8.53536e-06
-5.131e-06
-3.4673e-05
-2.75856e-06
1.00765e-06
5.00902e-05
-1.12893e-06
-8.61033e-05
1.4677e-05
-1.67431e-05
-1.77602e-05
0.000107059
-3.99001e-05
3.75454e-06
-2.84632e-06
-3.73262e-06
3.25443e-05
1.01803e-05
-4.76089e-07
-3.85445e-06
-1.56477e-05
2.76588e-06
1.19584e-07
1.70928e-05
-7.0781e-06
-1.4001e-05
0.000151732
-5.27015e-05
-9.70156e-05
-5.48789e-05
-5.47383e-05
1.57797e-05
2.64466e-05
3.95458e-05
3.55028e-05
-5.21118e-07
-1.76629e-06
8.97337e-06
4.7205e-06
1.88671e-05
1.97953e-05
0.000138984
-5.88585e-05
-5.45938e-05
-9.28664e-05
-4.56574e-05
1.90374e-05
5.73327e-06
3.04508e-05
1.20307e-05
1.65797e-05
5.88799e-05
0.000154369
6.64558e-07
-3.25259e-07
9.09429e-06
6.6022e-06
1.35807e-05
1.9548e-05
1.22472e-05
-4.06361e-05
-6.68595e-05
-8.2289e-05
-8.25881e-05
-2.71495e-05
-1.55189e-06
7.12722e-06
3.81429e-05
-6.21924e-06
-6.60193e-07
3.00617e-06
3.98607e-06
-1.90554e-06
-3.46257e-05
1.80574e-06
5.17644e-06
6.92539e-07
2.88565e-05
2.77895e-05
5.21333e-05
0.000186003
-6.03027e-05
-5.81562e-05
-3.69936e-05
-0.000102121
-1.23626e-05
-6.41483e-06
-1.15277e-06
-2.42347e-06
8.81406e-06
3.93694e-05
0.000189097
-4.02386e-05
-5.4603e-05
-6.07962e-05
-3.4058e-05
6.83015e-06
2.11933e-05
0.000220367
6.65571e-06
8.45816e-06
1.43123e-05
9.2424e-06
2.3426e-05
1.20261e-05
-7.74243e-05
-8.35599e-05
-4.2735e-05
-5.10985e-05
-2.20176e-05
-8.52066e-06
2.66679e-06
7.27572e-06
2.74259e-05
-5.56262e-05
-5.7934e-06
2.09034e-05
2.15962e-06
3.91672e-05
-8.1062e-07
4.26962e-05
7.03989e-06
0.000328601
-3.79675e-05
-1.66299e-05
-2.36804e-05
-1.33535e-05
8.12289e-06
7.20172e-06
1.00404e-05
-5.87682e-05
-0.000103614
-4.34785e-05
-5.40775e-05
-1.05333e-05
9.70595e-07
0.000283982
-9.3747e-07
-3.66496e-06
2.21699e-06
4.68157e-06
2.40988e-06
8.91569e-06
-5.50062e-05
-5.13783e-05
-4.74969e-05
-5.20939e-05
-6.90205e-05
-7.10204e-06
9.77841e-06
7.70041e-05
-7.89117e-06
-3.43183e-06
-1.68144e-06
1.27121e-05
-1.76086e-05
-5.3247e-06
1.14991e-05
1.85932e-05
-4.03328e-05
-6.60398e-06
1.68554e-07
-2.80182e-06
5.05407e-05
-4.22035e-06
-1.92788e-06
1.3576e-06
4.81743e-06
9.91006e-08
7.10646e-07
-7.93584e-07
-1.42437e-08
3.00415e-07
-4.16493e-06
4.97842e-06
-1.11907e-06
2.64534e-06
1.36829e-05
-7.7404e-05
-1.827e-05
-1.86501e-05
9.79958e-05
4.27707e-06
-0.000119837
1.63252e-05
-9.00513e-06
-1.96098e-05
0.00012785
-3.53771e-05
1.37875e-06
-5.15002e-06
-1.13004e-05
4.08022e-05
9.64657e-06
-8.26396e-06
-1.09259e-06
-2.38022e-05
-3.37322e-06
3.26627e-06
3.32657e-05
-9.46013e-06
-4.78738e-06
5.88311e-05
2.61324e-05
2.1117e-05
1.94782e-05
1.8657e-05
5.80769e-06
4.65255e-06
8.39456e-06
2.90907e-06
-6.00413e-06
1.57138e-05
5.03134e-05
2.14438e-05
1.07368e-05
2.12125e-05
1.61072e-05
9.44937e-06
2.58152e-05
7.22178e-05
6.84956e-06
3.38928e-06
9.34803e-06
1.22128e-06
7.13931e-06
4.59511e-06
8.33953e-06
-4.21843e-05
-3.19308e-06
1.98811e-05
3.49147e-05
-1.62694e-06
-3.49071e-07
2.11124e-06
-6.06282e-08
6.0159e-06
-3.50076e-05
3.3149e-06
-1.72963e-05
-7.22566e-06
5.01987e-05
9.52098e-06
4.76682e-05
0.000113386
3.8061e-06
5.03836e-07
4.67076e-06
1.65996e-06
1.46283e-05
6.89551e-05
0.000130748
3.72877e-06
1.71361e-05
0.000150995
1.16016e-05
6.86595e-06
1.47372e-05
1.3531e-05
2.10525e-05
2.11627e-05
-3.11198e-05
-7.00729e-06
-5.43071e-06
1.15644e-05
3.57221e-05
-3.40781e-05
9.46911e-07
-1.54975e-06
2.86775e-07
2.91814e-05
5.21278e-06
4.98871e-05
5.52058e-06
0.000331782
-1.18179e-05
-8.19029e-06
-6.99848e-06
-6.38436e-06
8.37652e-06
5.45526e-06
8.63964e-06
2.44025e-06
4.05645e-06
0.000347894
5.79089e-06
8.88593e-06
1.04028e-05
8.35279e-06
5.81455e-06
9.18669e-06
-7.40287e-05
4.46081e-06
1.96985e-05
6.94456e-05
-2.71185e-05
-1.62055e-05
5.70358e-06
3.76085e-05
-1.71161e-05
-2.65918e-06
9.03395e-06
1.62663e-05
-6.19737e-05
-1.51882e-05
1.29691e-05
-1.95266e-06
7.0202e-05
-1.21477e-05
-2.63101e-07
-9.60158e-06
2.19967e-05
-4.44055e-07
4.51016e-07
-1.52887e-06
1.51972e-06
-5.77838e-07
-7.84503e-06
4.62147e-06
3.78611e-06
7.28982e-06
1.54936e-05
-0.000112477
-1.67773e-05
-1.94206e-05
0.000125891
8.8641e-06
-0.000131176
1.1678e-05
-3.91837e-06
-2.15606e-05
0.000136113
-5.24685e-05
-1.18343e-06
3.98816e-06
-4.76612e-06
5.32873e-05
1.14255e-06
-1.01873e-05
-1.59443e-06
-4.1889e-05
7.03368e-07
5.52582e-06
4.74415e-05
-1.65869e-06
-1.63329e-06
3.39999e-05
1.06947e-05
8.57232e-06
1.34784e-06
2.3871e-06
3.10466e-06
5.15126e-08
2.61489e-06
-6.49804e-07
3.41469e-06
1.32484e-06
1.98895e-05
1.03683e-05
6.25548e-06
6.2551e-06
1.14684e-06
3.01534e-06
4.57188e-06
6.52821e-05
-3.44907e-07
5.13482e-08
-2.47726e-07
-4.11689e-07
1.49716e-06
3.51398e-06
-1.29502e-06
-2.95179e-05
-6.26636e-07
3.80073e-06
2.90958e-05
-1.63731e-07
-6.40945e-08
-8.44502e-07
1.0807e-06
7.35211e-06
-6.07578e-05
2.96332e-06
-6.83149e-06
-6.68633e-06
6.39602e-05
-2.81417e-06
3.09367e-05
6.75331e-05
3.73742e-06
1.71727e-06
7.83846e-06
2.80413e-06
2.29299e-05
4.38121e-05
6.2517e-05
-3.60842e-07
9.01006e-06
0.000137558
7.9058e-06
-6.19331e-07
4.68826e-06
9.32575e-06
6.46721e-06
4.52222e-06
-4.5146e-05
-9.0976e-07
-7.44673e-06
7.50864e-06
4.5633e-05
-2.13362e-05
2.30943e-06
-3.54332e-07
2.26045e-07
1.41438e-05
5.01128e-06
4.37947e-05
4.94121e-06
0.000297027
-2.17103e-06
-2.01349e-06
-1.00257e-06
-5.08915e-07
8.37137e-06
5.44503e-06
8.83531e-06
6.11287e-06
4.45707e-06
0.000374701
7.24072e-06
1.25791e-05
1.02153e-05
6.55886e-06
5.97927e-06
7.65606e-06
-7.96076e-05
2.18499e-06
9.14536e-06
8.34002e-05
-4.6284e-05
-1.09422e-05
5.51577e-06
5.17104e-05
-1.61313e-05
5.84503e-07
3.62875e-06
1.68655e-05
-7.82019e-05
-1.08159e-05
1.27402e-05
-2.0174e-06
8.27519e-05
-3.29258e-05
4.69929e-06
-1.16345e-05
3.98576e-05
-2.58283e-06
2.89599e-07
-1.87306e-06
4.14731e-06
-6.51594e-06
-9.3294e-06
7.74991e-06
8.09536e-06
9.2249e-06
1.82335e-05
-0.000130166
-1.70724e-05
-3.35034e-06
0.000123131
1.01852e-05
-0.000138898
5.43188e-06
3.46705e-06
-1.0557e-05
0.000130371
-4.75972e-05
-2.73576e-06
1.10913e-05
4.33927e-06
4.08945e-05
-5.99221e-06
-1.22318e-05
-2.42562e-06
-5.38932e-05
3.9633e-06
8.30782e-06
5.62795e-05
2.09717e-06
5.05958e-06
5.89805e-05
-2.15009e-06
-3.11883e-06
-6.49861e-06
-4.23918e-06
-3.55468e-08
-5.32301e-06
-2.35267e-06
-8.4195e-06
-1.32522e-06
2.12899e-06
2.72473e-05
-1.00289e-06
-9.4224e-07
-1.51288e-06
-2.60639e-06
1.57586e-06
-7.58046e-06
9.49449e-05
-2.21557e-06
-4.4607e-06
-4.06779e-06
-5.90792e-06
-4.48798e-06
-1.74323e-07
-3.66915e-06
-3.42695e-05
3.0432e-06
-2.6201e-06
3.54336e-05
-5.31564e-07
-8.49203e-08
8.10187e-07
-1.91643e-07
-1.94754e-06
-6.78205e-05
4.40474e-07
4.24147e-07
-1.93151e-06
7.08349e-05
2.38954e-06
4.11637e-06
6.82801e-05
8.68069e-07
-5.31737e-07
-1.72887e-06
-8.00793e-07
-3.90102e-06
2.11975e-05
4.97391e-05
-7.97456e-06
-2.80199e-06
0.000154883
2.27306e-07
-6.51582e-06
-2.70504e-06
-2.33975e-06
-1.5288e-06
-5.16764e-06
-3.98092e-05
2.47864e-06
-5.90052e-06
3.66991e-06
3.15866e-05
-1.0634e-05
-6.24611e-07
-5.40415e-08
9.3046e-08
1.11954e-05
2.42796e-08
2.72994e-05
7.09916e-07
0.000255225
1.32609e-07
2.07517e-06
5.32065e-06
3.51797e-06
3.02465e-06
1.02154e-06
2.81624e-06
7.08686e-06
2.12123e-06
0.000374489
9.5582e-06
1.06295e-05
9.98058e-06
3.98769e-06
2.01842e-06
3.32648e-06
-9.36386e-05
2.46894e-06
2.22815e-07
9.52317e-05
-5.49845e-05
-7.66661e-06
2.90923e-06
5.97419e-05
-1.75643e-05
1.99617e-06
8.81608e-07
1.54008e-05
-8.94524e-05
-7.51677e-06
9.72232e-06
-2.02879e-06
9.13969e-05
-4.56076e-05
8.30105e-06
-1.05093e-05
4.78154e-05
-7.9365e-06
-1.25053e-07
-1.59135e-06
9.6689e-06
-1.10526e-05
-1.04086e-05
6.72457e-06
1.47308e-05
8.69927e-08
1.52185e-05
-0.000110537
-1.11203e-05
1.0407e-05
9.59446e-05
3.68613e-06
-0.000111772
-1.39816e-06
1.04535e-05
7.83173e-06
9.11983e-05
-4.31944e-05
-8.2928e-06
9.57962e-06
5.9963e-06
4.82385e-05
-1.23273e-05
-1.0318e-05
-2.67697e-06
-5.44814e-05
7.047e-06
9.6242e-06
5.08051e-05
1.33492e-05
1.02476e-05
0.000103143
-9.5954e-06
-1.11141e-05
-8.38639e-06
-4.46538e-06
-5.06411e-06
-1.30393e-05
-4.78824e-06
-1.1306e-05
-4.33289e-06
-4.66933e-06
6.93263e-05
-9.13508e-06
-5.1801e-06
-1.67913e-06
-3.73323e-06
-3.39043e-07
-8.37969e-06
0.000117512
-3.25737e-06
-3.73114e-06
-1.42228e-06
-3.0209e-06
-6.26536e-06
7.11607e-07
-1.19579e-06
-3.09812e-05
2.07847e-06
5.91427e-07
-2.71273e-06
3.0685e-05
5.45679e-08
-6.90055e-09
-4.90649e-09
-5.21318e-08
7.0759e-07
-1.86417e-07
4.29202e-07
-9.6039e-07
-6.46723e-06
-7.24253e-05
-3.02113e-06
9.47729e-06
1.53903e-06
7.08973e-05
1.55977e-05
-1.34125e-06
9.69324e-05
-9.77868e-06
-6.02666e-06
-1.09161e-05
-5.93958e-06
-2.34458e-05
-8.8341e-07
8.49966e-05
-1.41619e-05
-5.35055e-06
0.000187072
-5.98301e-06
-1.26188e-05
-6.33452e-06
-6.28565e-06
-3.36615e-06
-9.91466e-06
-2.75435e-05
-4.2467e-07
-1.30388e-05
6.59025e-06
2.02549e-05
5.36685e-08
-3.48254e-07
3.87323e-08
3.6301e-08
2.0384e-07
-1.51983e-05
-3.36255e-06
5.50152e-07
1.62642e-06
1.7453e-05
-1.06873e-06
1.69136e-05
-1.95279e-06
0.000244375
2.61508e-07
4.39823e-07
7.61774e-08
-7.9721e-07
-1.5593e-06
-7.8352e-07
-3.08995e-06
6.05805e-06
-1.77621e-06
0.000366609
8.656e-06
8.13664e-06
8.20849e-06
-9.54626e-07
-2.62295e-06
-1.79505e-06
-0.000101266
4.48639e-06
-3.98263e-06
0.00010147
-7.17023e-05
-7.67782e-07
-1.42629e-06
7.38966e-05
-1.37603e-05
3.28853e-06
-1.19819e-06
9.70877e-06
-9.23024e-05
-4.24332e-06
7.4919e-06
-2.41177e-07
8.75188e-05
-4.97778e-05
9.72038e-06
-9.79849e-06
4.98591e-05
-7.2172e-06
-4.19131e-08
3.6744e-06
3.59459e-06
-1.77155e-05
-9.0899e-06
7.23397e-06
1.95703e-05
-6.53767e-06
8.16534e-06
-8.87112e-05
-5.33382e-06
9.63388e-06
8.27834e-05
-2.79554e-06
-8.18679e-05
8.22472e-07
6.06871e-06
-2.03491e-06
7.98072e-05
-5.35278e-05
-7.53139e-06
7.89532e-06
5.66322e-06
5.59308e-05
-8.43013e-06
-8.02479e-06
-1.59172e-07
-4.59946e-05
2.78647e-06
9.40387e-06
4.19883e-05
2.36365e-05
-1.91127e-07
0.000111903
-6.5912e-06
2.70142e-06
-6.21454e-06
2.45777e-06
-3.10358e-06
-1.13998e-05
-1.61335e-06
-8.44228e-06
7.52899e-06
-1.57491e-05
8.92405e-05
5.70559e-06
-1.43701e-06
5.96077e-06
1.71298e-06
1.89433e-06
-9.43707e-06
0.000134943
-3.12181e-06
-2.9089e-06
-2.10011e-06
-2.41833e-06
9.42021e-07
3.76407e-06
3.48424e-06
-3.20525e-05
5.89687e-06
2.70433e-06
2.43346e-06
2.29122e-05
4.69021e-07
-1.72557e-06
9.22161e-07
-1.90091e-06
4.04725e-06
-1.81194e-06
7.49353e-07
-5.14126e-07
2.07067e-07
-4.82719e-07
-2.95678e-06
-6.71449e-05
-5.81847e-06
8.71145e-06
3.98637e-06
6.32223e-05
1.82034e-05
-1.41028e-06
0.000105711
-1.07143e-05
-4.62689e-06
-7.7776e-06
-2.64368e-06
-1.5773e-05
-7.54505e-06
0.000110769
-9.11093e-06
-6.32078e-06
0.000212675
-5.33237e-06
-4.47788e-06
-3.16196e-06
-9.29637e-06
-3.51875e-06
-9.5934e-06
-1.64045e-05
-2.57246e-06
-3.86731e-06
1.44801e-06
1.22853e-05
1.10573e-06
-3.31293e-06
-1.81704e-09
-3.94349e-07
1.86239e-06
7.40979e-07
-1.95711e-05
-2.01286e-06
4.03966e-07
2.39456e-06
2.10465e-05
-2.26103e-06
1.31814e-05
9.30346e-07
0.000219826
4.07703e-07
6.54145e-07
3.30109e-06
2.20522e-06
-1.36408e-06
2.79662e-06
1.02625e-06
5.56764e-06
-9.45791e-07
0.000342864
8.77113e-06
8.80605e-06
8.99562e-06
-2.74728e-06
1.13027e-06
-1.9584e-07
-0.000105285
5.05804e-06
-5.07631e-06
0.000104551
-6.62063e-05
-1.47615e-05
-4.54896e-06
8.43054e-06
7.70862e-05
1.14047e-06
3.70871e-07
-6.86116e-07
-8.25005e-07
-8.26899e-06
9.35353e-07
-3.8534e-06
1.20665e-05
-8.1244e-05
1.4063e-06
3.85006e-06
2.14618e-06
7.28957e-05
-4.90193e-05
9.63785e-06
-8.58304e-06
4.79641e-05
-2.25531e-06
-2.28316e-07
-6.01661e-07
3.08665e-06
-1.94925e-05
-5.09329e-06
5.47375e-06
1.91137e-05
-3.82246e-06
6.55839e-06
-7.43561e-05
-2.64752e-06
9.34577e-06
6.4922e-05
-2.3813e-06
-7.88642e-05
-1.63213e-06
6.42516e-06
1.62175e-06
7.48307e-05
-5.87495e-05
-6.23531e-06
6.55256e-06
5.90528e-06
6.09297e-05
-8.40271e-06
-5.89082e-06
4.73386e-06
-3.92377e-05
-3.75823e-06
8.31275e-06
3.58402e-05
1.59991e-05
3.98284e-06
0.000108573
-6.18454e-06
8.1383e-08
-4.91146e-06
2.05659e-06
-2.86534e-07
-5.62797e-06
4.55511e-07
-2.23536e-06
1.14792e-05
-9.11906e-06
0.000100039
9.66076e-07
-1.00229e-06
2.5163e-06
3.60747e-07
4.72288e-06
-9.035e-06
0.000149322
-4.09389e-06
-2.86062e-06
-2.86512e-06
-2.37145e-06
4.65147e-06
4.14903e-06
4.80269e-06
-2.25754e-05
-1.43853e-06
8.94145e-07
4.8621e-06
2.29806e-05
3.65506e-06
-2.66195e-06
3.11129e-06
-4.68735e-06
6.23597e-06
-5.65301e-06
1.1825e-07
-6.24259e-07
-2.36119e-07
7.18495e-07
-4.89032e-08
-6.05181e-05
-8.18654e-06
5.5401e-06
6.63216e-06
5.65813e-05
1.3654e-05
5.23472e-06
0.000111613
-7.96792e-06
-4.16336e-06
-5.55018e-06
-3.12687e-06
-7.07301e-06
-1.76387e-07
0.000122553
-2.37858e-06
-6.64465e-06
0.000232533
-1.56649e-06
-1.64393e-06
-2.78257e-07
-1.02709e-05
-3.28136e-06
-9.90214e-06
-1.13478e-05
-6.22926e-06
-2.17282e-08
2.30341e-06
1.29168e-05
-5.08733e-06
-5.40028e-06
-1.45366e-07
-2.57337e-07
4.30199e-06
6.58833e-06
-2.29827e-05
3.93917e-07
-1.86002e-06
2.32516e-06
2.5514e-05
-3.39034e-06
8.01557e-06
3.13394e-06
0.000194882
1.9562e-06
1.77393e-06
2.70935e-06
2.27684e-06
2.21723e-06
4.61142e-06
3.48396e-06
4.4498e-06
2.35616e-06
0.00031375
7.76708e-06
6.89964e-06
7.74478e-06
1.4617e-06
3.55423e-06
2.71977e-06
-0.000108443
5.23943e-06
-4.92941e-06
0.000105938
-7.98534e-05
3.82212e-06
-4.69717e-06
5.39627e-06
7.53322e-05
-4.52004e-06
-1.05263e-06
-5.80419e-06
2.62977e-06
8.7471e-06
-1.82363e-05
-6.18831e-07
-9.05663e-07
2.28736e-05
-6.34737e-05
6.14948e-07
2.79642e-06
3.38113e-06
5.90374e-05
-4.65472e-05
6.83195e-06
-5.84027e-06
4.55496e-05
-4.29039e-06
-5.54057e-08
-6.79914e-07
5.01681e-06
-1.9778e-05
-2.74481e-06
2.88216e-06
1.96406e-05
-8.03364e-07
3.3974e-06
-5.76667e-05
-2.44023e-06
4.16497e-06
5.33479e-05
-1.01553e-06
-7.1833e-05
-8.86542e-07
4.9676e-06
5.53551e-07
6.8214e-05
-6.24633e-05
-3.84757e-06
5.79036e-06
4.51265e-06
6.28488e-05
-6.84094e-06
-2.92361e-06
5.65838e-06
-3.22616e-05
-4.58808e-06
3.36644e-06
3.07485e-05
8.65951e-06
6.74868e-06
9.48952e-05
-3.67475e-06
6.08753e-07
-3.05604e-06
1.57882e-06
1.11172e-06
-7.65422e-07
1.70448e-06
7.62359e-07
6.18851e-06
-6.36092e-06
0.000110334
3.99882e-07
-1.59131e-06
7.40171e-07
-1.01234e-06
3.03299e-06
-4.09687e-06
0.000164388
-4.46404e-06
-2.22954e-06
-2.99841e-06
-3.54418e-06
3.41427e-06
5.15834e-08
1.95601e-06
-3.1335e-05
1.31136e-06
1.1185e-06
3.76193e-06
2.81762e-05
1.02744e-05
1.01276e-06
7.3489e-07
-4.78757e-06
-7.23444e-06
-2.5535e-06
-1.32662e-06
-5.31426e-07
4.40734e-06
3.07276e-06
-5.11147e-05
-5.76239e-06
1.79455e-06
6.30938e-06
4.57004e-05
9.06051e-06
1.15663e-05
0.000110247
-4.23883e-06
-3.37337e-06
-2.60099e-06
-2.29898e-06
-1.1086e-05
3.59123e-06
0.000132748
-2.14e-06
-5.15732e-06
0.000251039
-6.14528e-07
-2.25586e-06
-4.16205e-06
-7.23936e-06
-2.1821e-06
-9.93737e-06
-1.55855e-05
-6.89201e-06
2.07729e-07
1.29651e-06
1.88333e-05
-9.20578e-06
5.31874e-06
-2.58946e-06
5.05673e-06
-6.44771e-06
7.86748e-06
-2.88671e-05
6.10617e-07
-1.82826e-06
3.0906e-06
3.15102e-05
-4.51601e-06
9.18208e-06
3.60326e-06
0.000188843
3.14984e-07
6.23503e-07
-8.93764e-07
-9.71774e-07
2.34809e-06
2.03078e-06
1.36837e-06
2.45324e-06
2.19766e-06
0.000300765
6.04244e-06
4.36277e-06
5.44475e-06
1.98391e-06
1.75947e-06
1.51388e-06
-0.000108934
3.25116e-06
-4.06657e-06
0.000107045
-5.99599e-05
-2.49744e-06
-5.04167e-06
6.7499e-05
-2.75204e-05
-9.6253e-07
1.52125e-06
3.05633e-05
-5.97606e-05
-6.72733e-07
2.04796e-06
3.07422e-07
6.02756e-05
-4.53425e-05
5.43432e-06
-4.75035e-06
4.46586e-05
-4.95803e-06
4.49773e-07
-5.10593e-07
5.01885e-06
-1.79563e-05
-5.65281e-07
2.62378e-06
1.58979e-05
-1.25075e-06
1.58942e-06
-4.99681e-05
-2.09612e-06
4.16964e-06
4.75559e-05
-5.14226e-07
-6.46618e-05
-2.99207e-07
3.78701e-06
4.92458e-08
6.16389e-05
-6.29835e-05
-9.84755e-07
3.0139e-06
3.3433e-06
6.28155e-05
-5.20449e-06
-3.8105e-06
2.53956e-06
-3.0663e-05
-2.84446e-06
3.92422e-06
3.08541e-05
1.12306e-06
5.65717e-06
8.87429e-05
-3.11912e-06
1.15953e-06
-3.25417e-06
1.64075e-06
1.50968e-06
1.36537e-08
9.17484e-07
5.04267e-07
-4.29251e-06
-1.66605e-06
0.000119727
3.2007e-07
-2.54085e-06
1.22773e-06
-1.31814e-06
-2.2134e-06
-1.39038e-06
0.00018065
-4.28982e-06
-3.98074e-06
-2.69324e-06
-3.20064e-06
-1.04179e-06
-1.27925e-06
-4.64945e-07
-2.62816e-05
-2.18348e-06
1.00271e-06
2.52489e-05
-5.19044e-06
-1.49278e-06
8.59622e-07
5.82359e-06
6.63692e-07
-4.30735e-05
-4.66939e-06
1.04374e-06
4.45641e-06
4.1579e-05
5.46219e-06
1.01817e-05
0.00011036
-2.90427e-06
-2.88501e-06
-2.04464e-06
-2.26554e-06
-1.32745e-05
4.90359e-06
0.000144915
-4.30868e-06
-4.49113e-06
0.000272268
-4.70361e-06
-3.46486e-06
-1.46339e-06
-9.21343e-06
-7.08478e-07
-7.54048e-06
-3.42748e-05
-2.70808e-06
-2.33217e-06
-3.23662e-06
3.8243e-05
-3.24794e-05
-2.50598e-07
5.74671e-07
2.78841e-06
3.30708e-05
-3.70385e-06
1.05562e-05
2.1146e-06
0.000190879
-2.64109e-06
-1.38974e-06
-2.49553e-06
-1.9444e-06
1.38878e-06
1.44716e-06
1.10963e-06
1.12166e-06
1.38781e-06
0.000295031
5.04187e-06
4.31599e-06
5.02735e-06
1.50776e-06
1.44188e-06
1.34942e-06
-0.00010971
2.46845e-06
-3.27745e-06
0.00010715
-6.60206e-05
1.35511e-05
-3.12481e-06
5.55943e-05
-3.2636e-05
-1.14459e-06
1.21041e-06
3.46848e-05
-6.03842e-05
-7.06994e-07
2.15345e-06
-6.97811e-08
6.03954e-05
-4.39504e-05
5.06626e-06
-4.13515e-06
4.30193e-05
-5.11075e-06
1.95338e-07
-1.85156e-07
5.10057e-06
-1.48311e-05
-3.44707e-07
3.13353e-07
1.48624e-05
-6.56336e-07
1.43788e-06
-4.49542e-05
-1.26426e-06
3.26109e-06
4.21759e-05
-8.43705e-07
-5.97331e-05
-1.04916e-08
2.5546e-06
5.09377e-07
5.75233e-05
-6.35458e-05
1.33339e-06
-2.2554e-06
3.3351e-06
6.40452e-05
-2.91253e-06
-2.63967e-06
1.92232e-06
-3.07714e-05
-2.14315e-06
3.2473e-06
3.03846e-05
-1.38912e-06
3.58556e-06
8.78422e-05
-2.54601e-06
1.14896e-06
-2.34272e-06
1.39087e-06
6.7263e-07
-3.11825e-07
4.8047e-07
2.11887e-07
-8.28956e-06
1.23262e-06
0.000129768
-6.32182e-08
-2.66544e-06
-3.44823e-07
-1.29995e-06
-1.18224e-06
5.48453e-07
0.000185835
-4.10532e-06
-2.89306e-06
-2.76414e-06
-1.93848e-06
-1.58698e-07
-1.17659e-06
1.95729e-07
-2.34123e-05
6.78791e-07
-3.88492e-07
2.19395e-05
-6.44218e-06
-1.32087e-06
7.81518e-07
6.98153e-06
6.94178e-07
-4.02602e-05
-3.76912e-06
9.91783e-07
3.90298e-06
3.84404e-05
3.6671e-06
8.22565e-06
0.000112797
-2.94915e-06
-3.13334e-06
-2.23066e-06
-2.43137e-06
-1.27545e-05
5.78564e-06
0.000156783
-8.38327e-07
-3.25662e-06
0.000274445
9.95505e-07
-5.27762e-08
2.17989e-06
-7.13193e-06
1.98062e-07
-6.4771e-06
-4.09693e-05
-8.30483e-07
2.4458e-06
-6.78193e-06
4.52976e-05
-3.30098e-05
-7.70248e-07
1.47561e-06
3.00523e-06
3.29101e-05
-3.61089e-06
1.12228e-05
1.62039e-06
0.000193543
-3.69109e-06
-2.30101e-06
-2.69081e-06
-2.33839e-06
1.17175e-06
1.42418e-06
1.14389e-06
1.16232e-06
1.41929e-06
0.000290818
4.64241e-06
4.63836e-06
4.81916e-06
1.47876e-06
1.63975e-06
1.42185e-06
-0.000109178
4.48557e-06
-2.73546e-06
0.000105333
-5.41289e-05
8.67066e-06
-8.22022e-06
5.36785e-05
-3.60774e-05
-1.03155e-06
1.24587e-06
3.74835e-05
-6.07512e-05
-7.75287e-07
1.75714e-06
3.19739e-08
6.11566e-05
-4.19368e-05
4.62573e-06
-3.48272e-06
4.07881e-05
-5.21805e-06
-4.96227e-07
7.66783e-08
5.6376e-06
-1.5569e-05
-6.26554e-08
-8.54559e-07
1.64862e-05
8.30497e-07
2.2087e-06
-3.88946e-05
-1.87558e-06
2.23009e-06
3.55009e-05
-7.34374e-07
-5.36182e-05
-2.34156e-07
3.40117e-06
2.98945e-06
4.81961e-05
-6.46879e-05
2.12055e-06
-2.7964e-06
2.21899e-06
6.53407e-05
-2.19588e-06
-9.06032e-07
1.7571e-06
-2.95717e-05
-1.59342e-06
1.66971e-06
2.86444e-05
-2.61906e-06
2.51351e-06
9.14456e-05
-2.30796e-06
6.63624e-07
-2.11282e-06
1.09212e-06
3.82488e-07
-5.81741e-07
-5.17261e-08
-5.81869e-07
-9.23101e-06
2.95439e-06
0.000142064
-2.33109e-06
-2.90394e-06
-2.00708e-06
-1.39593e-06
-1.68397e-06
2.38844e-06
0.000186051
-4.02438e-06
-1.2436e-06
-2.0292e-06
-8.02627e-07
-2.37595e-07
-1.7293e-06
-8.43872e-08
-2.0861e-05
1.07888e-06
-2.05987e-06
2.01586e-05
-7.37365e-06
-1.10383e-06
8.39293e-07
7.63819e-06
7.41796e-07
-3.60318e-05
-2.48436e-06
1.19547e-06
3.75767e-06
3.28212e-05
2.04815e-06
7.79458e-06
0.000117072
-3.3334e-06
-3.15535e-06
-2.92529e-06
-2.19026e-06
-1.2269e-05
6.54599e-06
0.000167509
2.22987e-07
-2.64922e-06
0.000272558
2.58552e-06
6.4785e-07
2.86915e-06
-6.45398e-06
6.63596e-07
-5.87918e-06
-5.10173e-05
1.76192e-06
2.95256e-06
-1.01688e-05
5.66946e-05
-3.30472e-05
-1.16716e-06
1.57525e-06
3.10456e-06
3.33503e-05
-3.81567e-06
9.21078e-06
1.47455e-06
0.000197831
-3.46327e-06
-2.39227e-06
-2.35464e-06
-2.28325e-06
9.29048e-07
1.38654e-06
9.99204e-07
8.57576e-07
1.38799e-06
0.000288129
4.16962e-06
4.01553e-06
4.19408e-06
1.23219e-06
1.5807e-06
1.00783e-06
-0.000106957
4.76718e-06
-2.35677e-06
0.000102755
-5.3149e-05
9.76561e-06
-9.0995e-06
5.24828e-05
-3.86467e-05
-7.79306e-07
9.93086e-07
3.99074e-05
-6.18461e-05
-6.18917e-07
1.3171e-06
4.37478e-07
6.20985e-05
-3.98315e-05
4.01434e-06
-2.99494e-06
3.88121e-05
-6.19752e-06
-7.18612e-07
1.61764e-07
6.75437e-06
-1.72661e-05
1.09953e-06
-1.64642e-06
1.7813e-05
7.56856e-07
4.99985e-07
-3.24837e-05
-4.16165e-07
1.23845e-06
3.04046e-05
-1.01429e-06
-4.26024e-05
-1.11541e-06
3.87821e-06
3.05816e-06
3.77957e-05
-6.59142e-05
2.75117e-06
-4.53092e-07
1.00758e-06
6.54062e-05
-2.79765e-06
7.35329e-07
1.20056e-06
-2.75782e-05
-3.37446e-07
-1.90529e-07
2.61703e-05
-4.13808e-06
1.36032e-06
0.000100398
-1.34139e-06
5.2749e-07
-5.88667e-07
1.12716e-06
-5.45533e-07
-2.0473e-06
-1.24143e-06
-2.06537e-06
-9.8489e-06
3.78803e-06
0.000153884
-2.99656e-06
-3.09583e-06
-2.08093e-06
-1.72368e-06
-2.0468e-06
3.53093e-06
0.000184832
-3.28367e-06
-1.11548e-06
-1.72753e-06
-1.3064e-06
-3.73151e-07
-2.00631e-06
-3.01451e-07
-1.98237e-05
1.43111e-06
-3.73412e-06
2.00799e-05
-7.78459e-06
-1.02201e-06
1.02482e-06
7.78178e-06
2.12024e-07
-2.90283e-05
-1.22327e-06
1.71387e-06
2.76888e-06
2.55568e-05
-3.68122e-07
7.06034e-06
0.000122034
-3.5899e-06
-2.58316e-06
-2.54735e-06
-1.57328e-06
-1.33195e-05
6.97997e-06
0.000177268
4.38711e-07
-2.31854e-06
0.000268868
2.73285e-06
6.59036e-07
2.82735e-06
-5.84344e-06
7.26724e-07
-5.32163e-06
-6.23216e-05
4.36281e-06
3.78351e-06
-1.21003e-05
6.67143e-05
-3.38291e-05
-1.50718e-06
1.41386e-06
2.51176e-06
3.43473e-05
-2.93661e-06
6.44075e-06
1.41526e-06
0.000203063
-2.86428e-06
-2.23542e-06
-1.7961e-06
-2.11303e-06
7.8954e-07
1.30575e-06
8.85705e-07
-1.18943e-08
1.20422e-06
0.000288484
3.20643e-06
2.98738e-06
3.08136e-06
7.10543e-07
1.28284e-06
6.04678e-07
-0.000104334
4.1874e-06
-2.31359e-06
0.00010013
-5.16725e-05
9.81898e-06
-8.99326e-06
5.08467e-05
-4.10412e-05
-2.42903e-07
5.44188e-07
4.21552e-05
-6.23937e-05
-3.76138e-07
1.16349e-06
6.18654e-07
6.21919e-05
-3.77403e-05
3.79481e-06
-2.43133e-06
3.63769e-05
-7.29117e-06
-6.0953e-07
9.23508e-08
7.80834e-06
-1.8271e-05
1.36406e-06
-1.87679e-06
1.87837e-05
5.70079e-07
-1.07646e-06
-2.90598e-05
1.19465e-06
-5.49893e-08
2.84265e-05
-2.21772e-06
-3.41516e-05
-1.67704e-06
3.10173e-06
3.25223e-06
3.16924e-05
-6.42051e-05
3.11677e-06
8.59318e-07
1.27132e-06
6.1635e-05
-2.67735e-06
1.20568e-06
7.66452e-07
-2.42295e-05
5.27307e-07
-5.91011e-07
2.23211e-05
-7.37414e-06
-2.16422e-07
0.000110899
9.09357e-08
5.95723e-07
5.29516e-07
1.15486e-06
-9.11814e-07
-2.40374e-06
-6.53433e-07
-1.31198e-06
-1.03874e-05
3.84074e-06
0.000163995
-2.95014e-06
-3.60954e-06
-2.11338e-06
-2.2653e-06
-2.08532e-06
4.23653e-06
0.000184488
-3.51358e-06
-1.43949e-06
-2.88487e-06
-1.15856e-06
-7.0996e-07
-1.89972e-06
-5.88942e-07
-2.06973e-05
2.25358e-06
-5.65168e-06
2.20101e-05
-7.67686e-06
-9.16824e-07
1.03642e-06
7.55726e-06
-6.53204e-08
-2.28668e-05
-4.98359e-07
9.65749e-07
1.51082e-06
2.09539e-05
-2.63354e-06
4.57574e-06
0.000127343
-2.77124e-06
-2.11591e-06
-1.33627e-06
-1.24383e-06
-1.6137e-05
6.78431e-06
0.000187828
2.89282e-07
-2.27504e-06
0.000262852
2.50472e-06
4.53994e-07
2.49784e-06
-5.30737e-06
7.12546e-07
-4.76e-06
-7.06108e-05
6.25707e-06
4.27409e-06
-1.26088e-05
7.29777e-05
-3.47116e-05
-1.39348e-06
1.03462e-06
1.85906e-06
3.5013e-05
-1.80158e-06
4.74287e-06
1.20838e-06
0.000207467
-2.45236e-06
-2.00246e-06
-1.32067e-06
-1.84946e-06
4.66279e-07
9.56579e-07
4.22457e-07
-8.19226e-07
8.34693e-07
0.000291648
2.30728e-06
1.91537e-06
2.2154e-06
5.37424e-07
8.42862e-07
5.298e-07
-0.000101707
3.34694e-06
-2.4629e-06
9.77292e-05
-4.99038e-05
9.42799e-06
-8.39919e-06
4.8875e-05
-4.30154e-05
3.54881e-07
2.06667e-07
4.36623e-05
-6.1995e-05
-2.58372e-07
1.3057e-06
5.66538e-07
6.12158e-05
-3.48393e-05
3.78465e-06
-2.10152e-06
3.31562e-05
-8.31885e-06
-5.25213e-07
3.1251e-08
8.81281e-06
-1.92549e-05
7.10106e-07
-9.61356e-07
1.95062e-05
5.20458e-07
-1.39802e-06
-2.82037e-05
1.53165e-06
-7.95701e-07
2.83454e-05
-2.59713e-06
-3.0693e-05
-1.24525e-06
6.95781e-08
3.58691e-06
3.08789e-05
-5.72003e-05
3.01033e-06
-1.66688e-07
2.75863e-06
5.04793e-05
1.11878e-06
8.95716e-07
5.34096e-07
-2.08631e-05
-1.32248e-08
-8.10592e-07
2.02571e-05
-1.08478e-05
-1.94398e-06
0.000118951
9.63995e-07
7.20099e-07
1.23857e-06
1.35454e-06
1.77345e-07
-6.71931e-07
3.66851e-07
5.90032e-07
-1.03672e-05
3.70062e-06
0.000173343
-3.38091e-06
-4.34673e-06
-2.52047e-06
-3.2812e-06
-1.72643e-06
5.45306e-06
0.000184414
-5.67255e-06
-6.5725e-07
-4.81111e-06
-1.39549e-07
-7.6314e-07
-1.5025e-06
-4.74123e-07
-2.35891e-05
3.12619e-06
-6.85566e-06
2.55922e-05
-7.4791e-06
-7.94777e-07
8.40549e-07
7.43333e-06
8.77355e-08
-1.97027e-05
3.31656e-08
-2.69083e-07
8.15704e-07
1.90352e-05
-3.79897e-06
1.85946e-06
0.000132275
-1.43972e-06
-1.91097e-06
-5.09995e-07
-1.07632e-06
-1.8186e-05
6.34276e-06
0.000199573
1.24047e-07
-2.0088e-06
0.000254514
2.26354e-06
3.2383e-07
2.22428e-06
-4.546e-06
1.03223e-06
-3.80826e-06
-7.51255e-05
6.99695e-06
4.23259e-06
-1.21634e-05
7.61834e-05
-3.52102e-05
-6.78036e-07
1.26975e-07
1.34939e-06
3.5375e-05
-9.63179e-07
3.17383e-06
6.59073e-07
0.000211286
-2.00543e-06
-1.79687e-06
-8.34643e-07
-1.66723e-06
-5.27586e-08
4.69887e-07
9.50239e-08
-1.89998e-06
5.79952e-07
0.000297562
1.35366e-06
7.64851e-07
1.10302e-06
4.92418e-07
7.26225e-07
4.81703e-07
-9.91728e-05
2.38258e-06
-2.09156e-06
9.4973e-05
-4.78038e-05
8.55319e-06
-7.56068e-06
4.68113e-05
-4.40872e-05
7.71638e-07
-3.58984e-07
4.43336e-05
-6.03178e-05
7.14628e-08
1.32483e-06
5.25921e-07
5.89755e-05
-3.16212e-05
3.27195e-06
-1.981e-06
3.03302e-05
-9.22634e-06
-5.14361e-07
2.07847e-07
9.53286e-06
-1.95345e-05
-1.24029e-07
2.15165e-07
1.94433e-05
9.71209e-07
-1.0885e-06
-2.85113e-05
1.4619e-06
-1.46985e-06
2.86365e-05
-2.26198e-06
-3.19069e-05
-1.05433e-06
-1.50247e-06
3.75271e-06
3.2973e-05
-4.37452e-05
2.10802e-06
-1.66068e-06
1.95821e-06
3.81937e-05
3.14592e-06
1.5769e-07
-2.97497e-07
-2.03294e-05
1.73142e-08
-3.92727e-07
2.08446e-05
-1.32682e-05
-3.39352e-06
0.000127142
1.64205e-06
9.47801e-07
1.83921e-06
1.73203e-06
6.10223e-07
4.28411e-07
5.66751e-07
7.04396e-07
-8.30121e-06
3.10264e-06
0.00018034
-3.74514e-06
-5.15545e-06
-2.58755e-06
-3.57863e-06
-1.10332e-06
7.30945e-06
0.000179251
-5.60076e-06
6.34399e-08
-2.91651e-06
4.00432e-07
-3.7839e-07
-8.6353e-07
-4.85727e-08
-2.75253e-05
3.90449e-06
-7.24897e-06
2.97665e-05
-7.38495e-06
-6.99494e-07
7.51264e-07
7.33318e-06
-3.19032e-07
-1.8679e-05
-2.74571e-07
1.35389e-07
6.25558e-07
1.85116e-05
-3.77506e-06
-3.45885e-07
0.000138353
-1.34179e-06
-1.86413e-06
-1.03751e-06
-1.10657e-06
-1.69023e-05
4.70312e-06
0.0002111
2.10935e-07
-1.38554e-06
0.000245826
2.0601e-06
4.19046e-07
1.92288e-06
-3.35593e-06
1.69719e-06
-2.47344e-06
-7.71165e-05
6.98513e-06
4.4021e-06
-1.12505e-05
7.71907e-05
-3.55644e-05
-2.53074e-07
-4.45951e-07
1.1061e-06
3.57334e-05
-5.76127e-07
5.28403e-07
3.38974e-07
0.000214738
-1.47862e-06
-1.4925e-06
-3.45333e-07
-1.38195e-06
-3.25575e-07
3.57123e-07
1.20116e-09
-2.95584e-06
4.31817e-07
0.000304363