/*--------------------------------*- C++ -*----------------------------------*\
| =========                 |                                                 |
| \\      /  F ield         | OpenFOAM: The Open Source CFD Toolbox           |
|  \\    /   O peration     | Version:  5.x                                   |
|   \\  /    A nd           | Web:      www.OpenFOAM.org                      |
|    \\/     M anipulation  |                                                 |
\*---------------------------------------------------------------------------*/
FoamFile
{
    version     2.0;
    format      ascii;
    class       volScalarField;
    location    "0.5";
    object      Ksl;
}
// * * * * * * * * * * * * * * * * * * * * * * * * * * * * * * * * * * * * * //

dimensions      [1 -3 -1 0 0 0 0];

internalField   nonuniform List<scalar> 
10571
(
11946.4
10480.2
11008.7
1612.64
9145.89
9622.48
189.847
56.5318
119.257
8394.87
8174.47
5454.93
79.1818
97.316
280.704
6548.62
11267.4
176.166
134.209
5442.27
7128.46
10549.6
5494.55
6900.31
11490.4
12510.4
9253.58
2507.41
6696.2
11221.8
63.3669
38.1262
67.5311
1075.02
11358.2
6171.73
406.472
250.633
341.645
69.8335
10871.9
704.581
331.041
1169.89
5.14202
8784.11
391.307
74.668
11970.1
12281.9
10952.9
10558
3650.82
11100.3
324.959
163.856
81.1274
49.9945
11673.2
10682.6
445.693
355.72
275.644
8.18545
10446.3
423.466
319.593
770.163
30.4345
2998.43
53.2254
0
10009.6
11344.5
11454
10271.1
287.033
11570.1
802.722
918.56
120.293
20.1981
11661.3
11039.5
114.976
472.21
200.122
18.9549
10759.1
136.512
277.64
623.96
82.897
116.107
0
24.6332
153.377
12104.4
12840.2
92.1919
19.8756
12071.4
215.845
92.1782
33.9812
38.5551
10279.5
3514.35
18.347
513.845
102.047
50.102
78.0123
12.9427
257.254
707.798
10.9987
11.1265
7.87421
17.977
65.6246
3767.06
231.546
27.5495
12.4681
1701.64
20.3577
17.1644
11.1824
24.3663
1716.36
3515.03
45.1538
2.9233
329.991
63.3767
11.2119
5769.63
17.1896
6.93884
128.192
651.566
-3.47129e-16
0
6.67302
0
29.1298
999.642
3.59951
93.1789
5.54936
59.3001
5.62866
1.88447
7.60056
7.74951
0
36.1836
4.12712
3.76147
197.305
68.4
8.4483
3.21671
0
6.11728
99.4717
685.251
19.3956
0
9.09287
5.24527
0.658655
31.0407
77.7933
3.82083
68.6139
2.44195
9.75555
5.37689
5.15394
4.04044
12.6543
0
0
0
3.03259
133.785
76.4305
26.6235
3.22432
5.78601
5.74518
69.5943
735.885
21.0742
0
27.3452
0
35.4392
17.6205
29.0278
13.0894
7.04837
0
19.1015
7.49711
10.6648
9.77887
8.78505
0
16.4601
1.54218
5.60469
92.0542
67.6975
0
2.90479
8.61304
5.54567
42.6353
759.378
11.5671
27.6627
0.194817
14.1447
29.1517
24.7496
23.3458
5.6735
0.835414
13.0918
8.03086
23.7536
24.691
20.409
18.5861
-5.343e-15
3.43891
57.2991
40.1712
8.97227
2.41788
2.73429
42.8141
691.028
-8.02345e-15
0
5.15166
80.8835
19.6598
32.2797
65.0656
3.89113
7.38444
13.7222
16.92
3.60094
2.8368
3.08747
0
4.27219
5.98156
37.8429
52.2422
-5.78357e-15
0
5.1962
23.7395
744.159
8.07794
35.0592
5.5241
46.7329
42.298
13.6321
19.6673
42.5938
-5.93202e-15
-4.13819e-15
9.81011
3.56592
3.44106
-1.34598e-14
0
9.60943
7.1042
28.6991
50.1584
0
6.77215
2.424
22.0458
425.277
0.0784291
8.35186
9.60312
22.6544
26.5166
7.23338
10.6513
-5.09056e-15
-5.94538e-15
0
2.72622
1.29246
1.74255
9.05077
21.3023
6.60708
1.92883
24.1386
28.0609
0
6.84884
4.21685
18.9403
415.213
34.7354
15.7599
5.10051
44.329
21.7899
27.03
0
0
0
0
1.35664
0.757805
0.808554
0
0
8.55197
5.00362
15.2918
29.2786
0
0
3.31711
24.8734
357.719
19.7146
8.80006
10.9723
50.3655
0
7.74643
2.07264
0
0.331496
4.77597
6.67915
1.35892
0.803431
8.76332
0
0
14.2495
18.0907
40.5683
0.226159
2.39801
3.30967
27.8831
278.889
72.5109
0
8.02943
25.082
0
0
9.539
7.81403
8.14919
0
0.659057
-5.97419e-16
1.5846
0
24.7487
0
1.47062
13.8727
39.639
0
5.43073
2.46334
21.1653
127.239
260.033
0
10.0671
28.1561
7.58605
8.94315
16.2054
0
0
0
0.648407
0.673808
1.46035
0
0
0
0.829329
15.1929
27.8442
5.87961
0
0.819923
22.687
44.8617
553.148
5.67573
10.2043
33.4531
14.3234
18.333
-2.12019e-14
9.66915
0
0
0
1.8856
3.64179
0
20.72
0
0.349363
12.8861
35.3789
0
0
1.61509
21.0943
63.5188
1056.7
0.299722
0
10.4756
31.2827
9.18748
14.8943
6.07486
0
0
31.7408
5.90306
2.41231
17.4598
0
0
-2.51809e-16
7.49271
35.8555
6.55026
0
1.39087
19.1877
38.3635
1732.6
0
4.08352
1.57061
27.9948
33.8089
796.511
3.57342
0
0
187.136
31.1963
6.35695
1.00605
-1.7985e-14
0
0.0239983
11.3338
30.2089
24.072
0
1.00753
16.2993
37.1795
3152.6
0
4.48841
0
280.687
122.957
325.937
262.942
0.231759
16.4509
226.521
158.801
12.9445
8.87125
0
0
5.78893
15.5732
24.0893
0.381218
0
0.83088
11.9844
32.9089
5562.1
0
17.0339
7.88167
19.5239
11.0821
162.314
90.3821
591.943
17.3926
144.924
160.518
109.749
21.0967
0
0
21.9134
92.2623
30.5837
68.9933
0
1.66839
5.05261
31.4666
1462.38
0
8.47476
40.1289
0
0
103.62
43.0555
167.499
27.8938
68.8603
46.4659
198.418
265.928
0
0
32.5844
157.718
82.8036
173.687
0
4.92633
95.346
85.2247
394.702
0
14.9819
524.533
0
23.0242
99.2373
95.7339
85.3679
87.4784
31.1575
69.7768
172.218
44.5208
0
0
46.1691
107.752
142.186
550.806
0
42.9244
114.1
179.802
106.616
0
603.781
94.6826
72.6797
46.5263
209.436
58.5639
43.2756
58.1289
117.09
211.277
81.3718
119.155
0
29.8476
30.602
72.2371
126.746
42.9908
0
45.6907
28.289
110.373
82.1359
212.035
81.9354
10.4009
21.3034
106.436
53.4224
4.17527
23.569
288.036
120.865
180.826
34.9966
30.634
257.687
160.715
57.2113
67.1873
133.175
30.2649
7.43408
9.92578
28.9898
157.209
122.191
52.8951
48.6021
24.0427
10.6949
331.62
29.8645
33.5781
14.0754
19.2105
74.2015
122.822
21.9517
46.4699
247.103
236.297
64.0553
64.0518
77.2897
19.309
-1.24741e-15
36.9092
17.2112
124.353
89.7753
82.2198
58.5986
42.4969
0
26.5807
15.5924
70.0737
10.3639
12.6924
19.3291
46.7362
13.7607
37.3079
129.036
60.4611
49.4093
60.2093
65.8875
18.7325
24.5198
123.119
146.27
175.003
100.645
108.488
29.1272
11.487
0
27.6814
50.0885
13.4566
7.51773
6.23986
14.9018
30.3758
16.4513
35.2907
38.4276
42.4488
46.113
50.3146
55.0226
40.759
65.08
34.9556
35.5859
146.045
164.03
68.8822
22.9321
47.956
0
50.7668
17.6274
23.4579
10.5705
1.22725
10.6589
32.1449
18.8201
46.1512
2.96733
12.9978
59.0177
56.4831
70.3357
25.0294
49.1705
81.7514
109.802
139.015
161.677
44.8134
25.2152
19.0984
51.7818
19.4037
16.4912
13.2
15.3439
4.08901
7.63169
31.711
15.693
20.9608
-6.15632e-16
13.7789
60.5734
61.0887
67.9116
56.5197
30.0613
96.6501
48.7187
206.42
148.816
42.42
19.3076
66.3971
22.949
32.0324
3.59058
25.5419
0
7.89685
3.26897
17.9006
19.302
23.4929
14.2803
1.08201
9.41431
29.7782
76.2013
12.9382
82.8995
8.52088
34.8504
123.711
101.322
0.239876
19.1945
44.7832
1.43409
38.2783
11.344
25.7002
-3.50845e-15
-3.90105e-16
2.70504
17.0161
17.974
34.673
18.4334
7.39696
6.41281
19.2995
55.5034
40.8266
78.3607
8.15754
29.9549
115.493
175.652
20.7148
18.2555
188.064
-5.29388e-16
9.04169
5.60474
26.8738
3.85467
0
1.90652
16.3602
19.0727
30.8902
0
0
4.35659
22.3737
68.5615
52.6446
17.726
9.60908
31.2058
123.724
84.939
4.45126
33.6758
66.1279
0
0
0
0
24.2192
-5.71415e-15
2.60355
12.038
30.2482
14.7822
0
6.95061
6.14315
19.5823
77.621
106.905
13.8146
8.21576
29.4719
75.6794
77.6391
20.667
31.5146
31.8276
0
19.2172
0
9.19985
7.13847
3.02424
1.43785
10.2988
31.9647
11.9809
0
6.58539
5.47807
22.4215
99.5171
73.0474
5.74459
12.0969
28.2618
71.7744
96.6837
13.075
45.877
46.4487
0
0
0
2.09191
16.3512
-5.73551e-15
0.719776
5.01474
54.14
36.718
0
-1.92917e-16
6.7525
31.1122
67.2238
84.5392
0.296794
8.73671
35.7309
52.8261
61.4404
47.2532
44.8388
20.4026
-1.43785e-14
16.0339
0
0
0.189986
-1.97507e-16
2.86481
12.0202
32.9678
19.0151
0
19.6884
6.65311
38.5528
47.0937
34.6127
0.218353
8.77911
37.0529
11.7279
42.6211
26.4967
7.74462
7.3655
0
0
0
0
7.90257
0
3.98154
15.8154
30.1344
10.4657
20.2032
0
9.49624
40.2078
31.2557
13.0657
0
10.9401
31.8669
15.1519
63.0653
19.9722
15.2387
7.99246
0
0
0
0
13.2192
0
3.64695
14.3129
25.9919
6.51399
-6.08534e-15
0
15.3529
45.9182
25.2611
18.3684
0
16.1122
37.804
4.41244
23.7865
-4.76783e-15
13.2249
9.17539
0
0
0
0
5.59286
0
10.4326
19.235
27.0461
18.4289
0
0
14.2035
40.6951
21.9679
14.721
0
11.4266
19.4047
21.2797
12.8108
6.4851
4.48518
0
0
0
6.01868
15.6317
-6.7936e-16
0
7.88234
22.1824
17.6642
11.7263
0
0
10.304
26.1535
15.0722
10.9689
0
3.31796
12.1554
10.2543
30.9743
1.34497
4.60804
8.21969
0
0
0
6.28485
15.6553
0
10.2026
18.5985
12.1606
5.63902
0
0
12.4725
26.1124
19.1835
26.6994
0
5.70329
4.60441
4.69203
24.0761
0
4.75107
0
0
0
0
6.34022
7.17945
0
8.35923
12.6314
7.99772
11.8222
0
0
13.7118
14.7158
17.5324
44.9828
0
2.81081
9.32144
3.09126
7.61688
-3.74968e-15
1.64309
30.8567
0
0
0.987647
6.07803
13.8958
0
6.58974
4.85369
8.0521
22.6173
0
0
10.1398
10.8161
16.4455
19.8455
0
0.664647
8.62682
-4.60662e-15
20.8467
6.41732
3.05738
9.39413
0
0
0.518031
0
5.25475
0
6.78252
4.41991
6.95096
5.99583
0
0
2.56141
4.03243
8.101
21.2117
0
0.699515
11.6916
-3.72023e-15
7.24137
0
8.32779
0
0
0
11.9749
1.24243
6.22214
0
2.12572
4.67321
6.34949
12.1999
0
0
5.97194
7.84349
15.6045
17.6715
0
1.415
12.7712
7.00524
-1.26626e-14
0
24.3975
9.26647
22.3099
0
0
15.5435
5.20445
0
2.99693
3.68575
5.85313
12.6989
0
0
3.72443
3.10702
13.9569
6.49683
0
0.71171
5.63972
0
12.0997
0
41.7127
8.81233
0
0
11.1559
11.6729
3.4227
0
43.9918
36.1881
5.55276
11.9659
0
0
3.73085
1.21774
9.69265
38.6236
0
0
0.953325
19.3433
7.0093
0
29.0476
18.3837
22.0603
0
36.6669
0.318838
5.22263
0
14.6303
7.82758
4.65317
5.83366
0
0
2.20735
1.7676
11.8733
10.5874
0
0
1.41192
18.7505
0
0
14.18
17.6773
0
0
0
0.241723
1.03645
-5.25212e-15
-6.33232e-16
8.25862
3.75934
5.34663
0
6.19628
0.252515
1.73433
5.6628
15.2375
0
0
0.826223
2.9554
7.44813
0
-3.82177e-15
15.8916
0
0
0
0
0
0
0
4.75416
2.62583
5.72976
0
0
0
1.17363
5.39743
17.472
0
0
1.3113
0.880064
0
0
2.91262
-4.01987e-15
0
0
0
0
0
0
0
3.04635
9.89786
11.9436
0
0
0
0
5.90687
36.2518
0
0
1.63315
0
7.06985
0
0
0
0
0
0
0
0
0
0
0
7.06699
0.270466
0
0
0
0.0585656
9.37324
33.539
0
0
2.41522
0.296541
86.8829
0
0
0
0
0
0
0
0
0
0
0
11.4186
0.292068
0
0
0
0.613571
7.22911
21.8041
0
0
1.80535
-7.93659e-15
14.4576
0
0
0
0
0
0
0
0
0
0
0
6.51623
-1.69771e-16
0
0
0
0
7.676
23.0511
0
0
1.16784
4.34516
11.3191
0
0
0
0
0
0
0
0
0
0
0
6.56629
7.47424
0
0
0
0
3.40013
20.01
0
0
0
0
0
0
0
0
0
0
0
0
0
0
0
0
1.13138
5.60244
0
0
0
0
-8.61596e-17
5.85814
0
0
0
0
0
0
0
0
0
0
0
0
0
0
0
0
1.23035
5.42594
0
0
0
0
0.116976
13.5158
0
0
0
0
0
0
0
0
0
0
0
0
0
0
0
0
1.2525
0
0
0
0
0
0
15.1308
0
0
0
0
0
0
0
0
0
0
0
0
0
0
0
0
1.26967
0
0
0
0
0
0.391673
10.0746
0
0
0
0
0
0
0
0
0
0
0
0
0
0
0
0
0.0682521
7.39986
0
0
0
0
0.166085
5.51185
0
0
0
0
0
0
0
0
0
0
0
0
0
0
0
0
0
0
0
0
0
0
0
20.9765
0
0
0
0
0
0
0
0
0
0
0
0
0
0
0
0
0
0
0
0
0
0
0
0
0
0
0
0
0
0
0
0
0
0
0
0
0
0
0
0
0
0
0
0
0
0
0
0
0
0
0
0
0
0
0
0
0
0
0
0
0
0
0
0
0
0
0
0
0
0
0
0
0
0
0
0
0
0
0
0
0
0
0
0
0
0
0
0
0
0
0
0
0
0
0
0
0
0
0
0
0
0
0
0
0
0
0
0
0
0
0
0
0
0
0
0
0
0
0
0
0
0
0
0
0
0
0
0
0
0
0
0
0
0
0
0
0
0
0
0
0
0
0
0
0
0
0
0
0
0
0
0
0
0
0
0
0
0
0
0
0
0
0
0
0
0
0
0
0
0
0
0
0
0
0
0
0
0
0
0
0
0
0
0
0
0
0
0
0
0
0
0
0
0
0
0
0
0
0
0
0
0
0
0
0
0
0
0
0
0
0
0
0
0
0
0
0
0
0
0
0
0
0
0
0
0
0
0
0
0
0
0
0
0
0
0
0
0
0
0
0
0
0
0
0
0
0
0
0
0
0
0
0
0
0
0
0
0
0
0
0
0
0
0
0
0
0
0
0
0
0
0
0
0
0
0
0
0
0
0
0
0
0
0
0
0
0
0
0
0
0
0
0
0
0
0
0
0
0
0
0
0
0
0
0
6851.85
9391.61
8594.04
10613.8
10142.7
10577.5
10211.7
10344.4
2932.72
5230.29
6625.26
4408.18
9258.14
9841.25
8943.95
8452.52
1777.38
5608.44
6919.57
1232.93
1605.92
9258.31
9586.01
3594.28
7721.05
8302.01
2153.3
2774.1
5320.05
7426.92
9296.31
10216.6
5278.01
3116.93
939.443
1228.79
990.758
919.794
771.41
1082.41
949.869
1213.72
4140.82
1119.6
3865.09
8317.84
7962.84
8911.89
4067.76
9034.16
10254.2
8405.11
3229.77
8689.92
3350.84
1257.58
1740.23
1846.66
1792.2
2120.66
2621.59
2299.42
4824.33
3486.45
4854.29
8592.68
8842.95
8674.07
8358.54
9330.35
9843.81
10170.7
5707.09
10129.3
9329.36
2681.9
2019.04
5382.2
3260.45
2338.22
6355.17
2865.98
5983.05
9679.99
9725.7
9065.72
10296.2
10775.8
10171.1
9326.81
7892.36
9049.57
7633.01
8359.1
8719.55
8568.01
11481.7
12350.9
11742
11150.5
12503.9
11921.2
11521.5
12362.9
12147.9
11519.4
11736.6
11837.8
11083.4
11916.7
12772.9
8226.13
12265.4
10273.3
8887.76
9360.89
12049.6
11910
11784.3
9343.39
10877
752.577
7137.98
8042
11402.2
300.14
5108.74
10170
10302.4
7344.86
5854.68
8791.41
11220.5
12232.9
12021.9
5636.64
8054.53
6526.49
2745.63
6629.25
11417.5
11605.5
11743.3
12197.8
11312.2
7993.85
6936.75
1418.67
4750.76
1251.94
12397.2
12139.6
1673.26
12165.4
9937
10944.1
1327.68
12150.8
8763.19
3622.88
1658.6
4434.53
1478.59
418.415
122.276
196.431
611.36
11199
12034.3
7133.25
9482.36
10490.6
4911.07
11614.7
6047.96
9622.78
2782.43
1956.82
11189.2
929.185
12545.6
12128.5
11141.5
11064.4
11687.2
12073
11202.5
11389.4
11797.9
10816.9
11406.8
10761.9
10464.1
11487.1
10007.6
12273.9
12459.4
12157
12030.8
7592.06
12100.1
11495.7
11435.4
10129.4
10365.3
201.304
2226.56
3998.57
2995.3
249.127
405.97
4383.58
254.238
11418.6
11578.1
11693.6
11501.6
12118.3
11362.6
388.216
628.296
87.1299
23.5346
0
11819.9
11077.3
11613
11042.2
11013.4
184.437
27.5102
15.4726
16.4918
12.0137
12556.8
12027.3
3818.12
11561.8
9527.12
10509.3
4922.04
11493.5
8885.12
312.041
38.6327
229.179
874.963
433.258
23.1675
113.695
32.6996
11451.9
10850.5
2673.69
7486.93
5059.58
866.04
1600.08
135.312
2421.71
50.4155
55.6263
166.431
29.1248
11669.8
12043.8
10719.7
10999.8
11232.4
10915.4
11327.3
11439.3
9992.84
9600.65
10901.7
10387.5
9601.52
10035.9
10378.9
11996.2
12311.2
11267.2
11289.5
10829.7
12137.5
11492.9
11035.6
11078.3
802.445
426.648
118.253
2230.63
247.097
405.1
66.2994
74.8459
36.2902
11181.9
12363.3
11064.7
10984.2
11204.9
11374.1
8.64461
0
34.0738
30.5354
0
11555.7
10707.8
10556.9
10898.8
10659.3
0
7.88302
13.3736
0
13.147
11607.8
11785.5
7461.62
10921
8996.74
10383.9
8998.1
10712.5
11054.1
483.972
28.3011
140.565
673.012
480.477
36.1082
282.836
74.9514
10221.1
10318.4
284.523
400.372
475.083
76.2389
89.7446
4.97011
9.04172
33.9926
7.48164
65.6853
0
12050.2
12069.1
11237.8
11357.5
11675.7
9914.1
11265.4
12358.9
9321.07
3499.68
1508.44
1552.35
113.706
1123.3
23.6075
11314.1
11943.4
11478.6
11549.3
11277
11310.5
12169.8
11912.4
10627.4
37.7631
164.569
34.9132
10.221
62.8001
114.414
35.0378
10.1792
37.6669
10636.1
10676.6
11203
10892
10470.6
11716.1
36.1098
1.10277
64.4802
17.9275
26.1389
11128.6
10643.7
10377.8
10829.9
10366.9
0
42.4014
28.1038
23.4131
-2.29353e-14
12088.1
7997.15
4537.64
11136.6
10240
3368.73
584.702
2177.89
746.988
364.267
31.3075
154.005
725.181
387.397
57.0428
323.686
56.5133
2068.71
160.792
31.094
23.9081
94.5423
16.7158
34.9977
9.02875
0
0
18.0675
38.0922
-1.54425e-14
11293.3
13983.5
3447.05
11494.3
9300.5
321.323
8564.35
523.424
165.94
41.1176
32.8719
35.2331
13.3062
31.6266
11.8821
11664.2
11830.6
11849.8
12006.9
10897.6
13448.9
15326.4
15901.3
9856.69
20.9585
28.5022
19.0121
13.072
2.51538
25.81
0
19.2625
46.1781
10768.8
9979.97
11707.1
13144.9
12260.8
16410.3
29.2644
57.0613
71.0325
61.6588
386.23
11292.8
5851.51
17669
10755.8
826.605
6.05921
0
51.254
229.62
17.6444
330.569
159.307
43.371
23.6349
44.252
12.9149
15.3565
-1.62456e-15
5.8988
340.895
62.6486
188.881
777.69
310.675
61.1075
310.717
1.87865
44.364
1.96109
15.6584
-2.56794e-14
-1.46438e-15
0
0
-7.94426e-15
-2.27246e-14
-9.40771e-15
0
0
0
1769.49
138.867
176.301
498.013
90.0674
51.8656
63.7382
29.7763
30.9678
24.3027
11.4504
22.4779
-5.62933e-15
20.8754
12.8305
17544.2
4105.39
2829.42
6753.85
990.017
2316.93
314.855
1871.08
94.4307
0
10.9032
35.7326
20.3952
0
12.6768
0
7.18114
4.38013
11158.7
3186.12
4147.58
2207.75
412.947
493.503
352.143
7.84947
999.664
0.629372
6.90793
10.9434
6.99205
8802.94
5797.37
7432.29
12.3313
126.392
23.5032
238.262
1425.62
228.166
297.448
145.912
94.4124
760.138
5.88706
107.285
3.54055
5.67935
7.92084
6.71626
208171
1533.82
21725.8
31.1004
255.491
1.63756
183.544
51.9385
18.3349
-5.17153e-15
23.7448
17.2873
10.3535
0
11.1887
-5.70737e-15
215.22
64.5205
333.879
639.491
234.409
70.7283
467.552
22.0323
0
15.3724
0
0
0
0
0
0
0
6.27576
0
31.1398
25.9052
102.131
52.1106
7.16923
37.9252
8.90913
32.7038
8.15242
4.77735
9.79416
28.2027
33.1774
4.94813
4.60683
12.6941
4.77593
1678.89
212.976
159.677
511.661
27.5654
168.441
78.5828
64.7677
53.6013
0
6.31317
0
5.79432
0
6.35428
0
22.2016
13.6546
0
0
0
0
0
0
236.168
36.2914
34.0881
54.143
-1.24248e-14
26.7419
4.71943
6.91162
9.6781
16.039
5.40698
25.0016
5.77222
0.124476
-4.09179e-16
0
0
2.38646
0
0
31.3071
23.3204
9.1706
10.7614
-5.82257e-15
12.3529
26.3896
5.87471
1.16106
-5.24432e-15
14.7159
-1.8231e-15
0
5.58012
0
-9.06068e-16
0
2.75167
0
12.2931
0
0
0
13.0481
0
0
9.61555
20.2116
207.475
136.539
334.051
731.488
250.417
146.824
272.815
0
-2.64748e-15
0
0
0
0
32.0883
-1.44111e-14
10.7845
0
0
-6.83527e-15
0
0
36.9413
-5.00068e-15
0.824913
26.058
0
16.4031
23.6218
6.04348
18.6519
11.9573
0
10.7241
12.752
5.01788
0
22.2814
21.8038
8.01209
0
0
75.8416
32.3346
31.4319
28.1318
21.3967
45.3191
11.5464
22.4503
19.8796
0
15.4428
0
0
13.7236
-6.80279e-15
0
9.92355
0
0
0
0
0
0
0
35.6508
14.6708
20.6729
10.6916
15.2687
16.6681
0
22.2184
0.726701
7.8047
0
10.9551
0
0
1.53233
3.3602
3.00651
0
0
0
16.7988
0
17.1615
20.0576
0
14.7664
2.72245
0
0.222239
-5.63702e-15
4.21138
4.66757
0
0
0
0
0
0
0
0
0
4.55678
0.74184
8.8616
10.5775
0
24.53
0
237.645
140.069
369.788
640.871
369.365
109.032
370.582
0
0.594895
0
0
0
0
19.7904
-1.46094e-14
0
0
6.33701
8.16213
28.246
16.1829
27.592
8.56178
11.8331
0
14.9486
18.4881
20.4627
35.3435
5.07185
16.7302
45.5303
21.2725
11.7932
15.1953
10.5738
41.7684
23.7803
23.0611
27.4807
10.839
23.3398
18.5434
30.991
18.0527
31.9353
25.3693
14.0286
24.4159
17.9402
0
0
0
14.4945
0
7.63418
0
0
0
29.969
28.0615
9.8613
21.3612
-1.46313e-14
9.44011
11.2917
8.42382
0
16.196
7.2229
27.3385
7.29768
0
0
0
0
0
0
0
19.3476
7.66279
0.527892
5.35809
7.60983
13.4336
19.5175
0
0.158838
5.64555
-5.52274e-15
0
0
0
0
0
0
0
0
0
0
0
0
6.90084
23.7237
0
0
0
293.95
73.1559
390.489
756.158
266.521
69.6616
498.821
10.9174
0
0
-5.83344e-15
0
-1.16983e-15
6.71594
0
9.08233
25.9093
20.5487
8.37953
-2.17659e-14
10.9424
9.47413
21.0894
47.7898
15.8628
16.5612
48.5722
28.447
41.7963
6.28052
31.1894
39.6524
16.8791
22.2925
16.4195
0
-6.43073e-15
9.16917
4.43406
16.7141
30.057
2.56428
7.93314
14.9597
34.3476
0
8.22641
2.27328
7.80481
0
9.91782
-1.88086e-16
2.54586
15.4599
10.3722
0
22.3172
5.34033
0
32.2111
7.67525
0
-4.37091e-15
7.34017
0
3.49807
0
6.11005
7.63222
16.1835
45.0493
0
7.6294
-4.129e-14
0
0
14.9556
0
16.8307
0
0
0
-1.15693e-14
0
205.641
127.876
560.682
751.559
181.827
134.237
481.922
0
0
0
1.68143
0
9.11418
12.613
0
8.27368
0
0
12.8154
0
42.9602
10.3445
0
61.2334
3.35571
28.813
19.3103
5.92091
15.5613
49.1364
36.2267
9.44204
13.5948
41.6733
0
0.436206
19.704
9.60817
16.9881
15.186
35.7062
16.7633
-5.0874e-15
5.27484
19.4442
0
12.5479
0
14.4931
0
0
0
0
0
15.3415
0
0.222247
11.1447
0
10.2464
6.31205
0
19.0241
-3.58687e-15
31.9423
5.99738
-7.20311e-15
0
6.06896
0
0
0
0
22.9895
7.07143
-4.47235e-16
0
0
0
0
6.77719
6.98617
0
0.257114
132.57
203.757
553.689
582.463
114.81
135.266
644.857
7.82328
0
0
-4.09544e-15
10.6602
-7.95552e-15
6.81819
17.6358
16.5204
0
0.525795
47.8454
0
31.203
0
0
56.2288
11.9215
20.9583
0
14.9111
26.3514
10.896
27.1212
-1.62275e-14
33.3894
40.0398
49.8924
2.06442
0
29.1538
22.5861
13.8404
8.99771
2.16213
13.3065
12.3852
4.51266
0
-2.67801e-16
0
11.6955
0
0
0
0
0
15.1451
0.949766
10.7199
30.4721
18.3742
0.459625
0
-2.07837e-14
9.27626
2.76965
0
0
0
0
0
3.62035
0
0
0
0
0
19.6434
-1.39042e-14
-4.03431e-15
0
-1.83893e-16
0
0
4.55043
4.65178
136.71
114.696
642.384
415.759
186.313
75.3699
832.115
2.71283
1.03962
20.7926
13.4924
26.5893
0
5.94116
0
17.3791
24.334
11.9748
23.0885
41.5522
48.8703
17.4911
11.1167
2.42111
29.8848
18.3152
28.6584
14.9042
28.3381
12.0071
19.0772
13.7466
0
19.1069
0
16.7658
19.9817
10.0897
9.32191
4.43517
0
16.1088
1.64713
3.66495
4.97517
0
0
0
0
0
0
3.06825
0
0
3.78995
0
0
13.9514
19.0645
16.4955
4.24876
0
9.00497
6.58249
0
0
5.45349
-1.22116e-14
6.31944
0
0
8.04496
0
0
10.3468
0
0
0
0
2.98598
6.86317
0
0
4.61061
190.796
49.3385
618.338
386.525
266.847
32.6816
544.724
39.0793
-1.49893e-14
0
0
26.5252
10.6842
0
-8.34046e-16
24.3903
16.0951
9.1536
12.1609
0
41.8022
0
16.0055
0
6.40331
22.6078
20.5461
13.5236
31.0506
0
14.2184
-6.7227e-16
0
0
0
0
16.2061
3.3303
9.70835
13.4144
0
25.7248
6.04397
8.3378
0
0
0
4.83359
7.20165
0
0
0
0
0
6.14927
0
5.51674
6.09504
0
0
-1.0337e-15
23.4779
0
6.28285
0
0
0
0
0
0
0
7.10057
10.1948
0
7.30003
0
0
0
0
0
5.7577
0
0
0
323.956
52.8135
545.838
274.678
468.524
35.9947
589.796
28.2077
20.4196
16.4293
10.3937
0
0
2.1872
0
34.4653
63.176
12.5754
11.9837
-4.33024e-14
24.5357
0
11.3833
-1.76415e-14
13.2085
17.9073
0
8.66812
20.238
6.19743
0
0
0
8.65029
0
16.6581
0
6.75566
9.76879
9.297
5.07663
2.7056
27.9221
5.41885
7.09686
0
8.72025
7.21636
0
0
-6.21752e-15
0
0
21.006
0
0
16.6437
14.0205
0
-4.81037e-15
-3.57158e-15
0
0
0
0
6.27972
0
0
0
0
0
35.881
0
0
0.0977827
0
0
0
0
0
1.75667
0
0
8.64755
705.487
15.896
443.093
125.878
995.513
9.10904
256.681
171.57
0
0
18.5814
0
0
6.44811
32.1666
24.4934
1.11177
0.822471
32.3835
46.7355
17.2277
11.3725
2.14878
20.772
19.043
20.7499
0
10.0336
7.21558
6.29506
8.64907
1.03544
12.4586
0
0
0
31.489
-6.14128e-15
4.90758
4.45694
-4.40561e-15
0
14.695
0
0
0
0
0
0.246664
0
6.80295
0
-1.51063e-14
0
0
2.29567
0
16.5547
-7.57156e-16
0
6.04356
0
0
-4.21972e-15
0
0
0.319417
22.0785
0
8.07724
0
13.8136
5.88484
0
10.4851
15.0143
0
0
0
-6.2273e-15
0
0
0
0
1631.67
14.4397
191.928
71.8388
1676.17
15.4621
70.1101
363.826
16.2329
0
-1.17551e-15
-2.33564e-14
3.79469
6.28165
0
15.6034
-2.06367e-14
-4.86432e-15
4.36207
0
-2.09291e-14
0
0
20.0367
7.50896
8.44436
-1.08086e-14
12.2895
17.3267
29.2233
8.60696
37.3568
16.9933
0
0
0
0
38.1651
14.6639
4.46853
0
-6.41964e-15
9.88973
6.72485
0
0
0
0
0
0
0
6.81502
0
0
2.1561
0
0
6.49673
0
0
0
0
0
5.9799
0
0
0
0
0
0
0
15.2642
0.842643
26.1183
53.1127
0
0
0
0
0
0
0
0
0
1392.86
19.5109
48.9572
74.5853
1011.6
5.56608
38.7307
645.534
0
0
6.27071
52.7125
10.644
12.6803
-2.44898e-14
15.5176
0
10.7606
5.94938
0
20.4456
23.2748
2.62451
60.5936
6.42612
17.9043
50.8729
11.7036
14.5146
32.8286
0
30.1836
29.2088
0
0
0
0.388423
0
12.6776
13.9105
0
9.311
21.5716
9.47464
20.9859
0
0
0
0
0
0
0
0
0
-2.45787e-16
0.857222
0
6.50698
0
0
-5.12352e-15
0
0
6.48804
0
0
0
-6.67619e-15
0
0
36.2192
25.498
12.2185
-1.9097e-14
50.9884
0
0
0
0
0
0
0
0
0
866.867
12.8337
18.1733
38.801
855.942
22.5111
33.5083
1461.46
0
0
-5.58301e-15
0
0
0
0
9.8864
25.0186
11.2035
31.9619
0
165.147
11.6969
0
0
-6.05237e-15
4.56528
51.0843
20.8037
9.70183
19.7929
0
73.023
28.3032
10.8323
32.6439
-1.43965e-14
18.393
21.921
8.36107
6.63886
6.16653
19.534
18.0263
9.58348
33.3232
0
0
0
0
0.540527
5.94361
0
0
0
2.09432
0
7.43394
10.9463
0
-4.79955e-15
5.20288
10.4894
-7.80414e-15
5.95996
14.5634
0
0
42.1767
11.8616
0
0
74.7226
6.24881
21.127
107.311
0
0
0
0
0
0
0
0
0
527.147
8.47749
18.822
47.6618
433.235
16.3399
35.8031
2222.14
0
0
8.41597
0
0
-5.26647e-15
0
9.20004
24.111
-2.11151e-15
14.3365
0
-4.63941e-16
30.6937
39.971
0.604265
89.0722
51.3399
214.014
913.997
606.311
17.577
5.40218
90.7334
143.638
47.5141
0
64.8775
0
41.1298
56.7392
-4.33149e-15
58.6063
82.0322
382.07
77.8216
180.325
25.6242
0
0
16.4202
-1.09487e-14
0
0
0
0
5.01908
21.8407
0
21.5212
3.46051
0.170304
6.88212
21.5484
16.9494
0.512482
0
-5.09876e-15
0
0
4.7913
0
60.792
162.09
35.5407
22.0472
232.851
0
0
0
0
0
0
0
0
0
372.63
16.3445
17.2583
23.8376
276.209
16.4298
42.8566
3571.56
0
0
0
0
0
0
0
6.42186
0
-3.15567e-15
10.4822
0
9.0205
27.8241
0.698699
208.805
204.745
195.676
-3.31173e-14
95.5028
24.6193
411.774
69.5118
19.7862
214.201
107.402
14.9408
12.5407
43.1719
14.6006
225.806
152.768
403.812
44.8778
84.6323
75.5902
310.071
0
4.17815
0
33.3826
10.1616
35.926
15.902
0
17.9227
21.3355
19.9005
0
0
19.8043
5.60675
5.97081
0
0
0.28357
19.9636
1.99977
0
0
4.74639
0
19.4146
333.592
35.5883
0.667192
464.363
0
0
0
0
0
0
0
0
0
240.798
17.0007
61.0025
49.7306
238.625
30.517
227.901
4422.2
0
0
8.29171
0
0
5.56639
20.6012
10.5947
0
7.38867
16.4555
3.09333
13.6936
13.4516
23.461
0
136.678
97.2387
0
71.7945
119.623
48.7195
109.884
0
51.8544
72.3995
35.693
133.922
49.1427
19.6537
45.7118
44.1355
57.4532
-3.37513e-15
47.0033
53.3461
16.8795
413.11
667.188
316.151
744.848
343.37
665.955
426.26
102.619
266.682
31.9083
0
5.70715
22.8312
0
6.23755
11.7106
14.4419
95.0008
48.4035
7.89188
1.99557
7.51699
0
0
0
126.007
444.34
84.0982
45.866
415.406
0
0
0
0
0
0
0
0
0
217.43
60.4589
436.694
64.967
209.18
206.106
779.474
721.707
0
0
0
9.23334
0
5.13681
0
3.95253
0
12.788
1.05808
0
163.402
299.32
55.2524
0
55.861
100.394
0
86.5274
147.557
16.9567
104.705
0
13.8012
78.458
237.552
217.839
15.0333
50.2157
53.0394
18.0748
4.87388
58.0778
39.0252
217.617
6.94428
194.152
274.915
306.707
116.876
131.068
122.17
128.223
185.612
5.61956
-2.2187e-15
0
1.20478
20.6821
41.4573
22.8714
149.852
138.513
107.189
198.401
179.394
7.30888
0
0
6.19594
0
157.938
287.638
396.789
437.371
185.282
0
0
0
0
0
0
0
0
0
186.879
415.389
566.743
95.1289
143.481
251.679
159.179
218.174
16.2933
0
1.95136
0
0.748574
19.9044
34.3991
60.6421
0
225.755
489.13
31.4914
296.008
69.1142
43.5857
21.4882
145.143
88.5856
20.1526
106.856
49.3308
6.03135
79.6284
0
47.2192
95.3962
103.748
82.2186
46.6359
14.4049
59.8744
341.197
1.0678
23.969
70.1401
18.7122
7.24331
50.9054
51.1476
34.5273
50.1345
80.1809
35.1125
24.7549
84.9443
19.2179
32.1886
40.9018
12.1789
26.3012
-1.72906e-14
26.3027
223.041
162.276
92.4987
344.338
375.757
11.9433
0
0
20.5623
8.95141
481.495
80.5027
126.83
206.272
68.664
0
0
0
0
0
0
0
0
0
209.579
135.506
140.494
97.1715
107.941
58.128
117.226
92.6185
0
0
350.601
127.242
28.6741
336.845
294.75
249.594
185.81
178.594
96.5369
266.918
49.1066
20.7932
110.163
12.8036
128.743
12.3286
58.4064
94.6601
34.1693
170.809
111.4
22.2897
14.3501
33.7716
59.8753
27.1881
25.7892
3.00621
35.5689
6.86489
12.3187
-3.43689e-15
147.32
52.4897
382.795
21.2815
20.7528
16.452
60.0919
21.8869
13.8288
31.7792
40.9313
62.5024
55.1604
19.9566
21.0803
25.1144
59.7246
94.4409
114.726
192.026
86.4853
74.8627
84.6115
0.479574
0.270171
6.43639
17.022
0
149.391
49.8844
56.0534
55.5727
73.7801
0
0
0
0
5.53714
0
6.21167
0
7.32638
82.6023
57.1248
81.418
146.022
111.294
60.3883
82.982
88.9033
0
0
190.222
199.767
147.759
126.134
75.889
57.5834
104.16
55.3054
45.7357
79.5147
45.8054
176.433
143.857
8.31582
35.9039
20.6389
58.6916
53.3575
29.1414
-8.76548e-16
5.82378
20.9964
5.25736
25.7714
37.5772
35.8262
41.9956
621.602
187.624
254.287
277.303
129.61
59.5354
223.322
20.8507
12.6929
14.558
13.2066
20.075
40.0239
25.7647
25.2218
46.1187
3.25382
263.249
660.107
612.536
438.174
115.336
315.597
34.5735
187.895
28.3955
5.03873
55.7574
187.567
37.1152
294.431
188.5
74.1043
83.0817
61.2672
28.6908
18.0687
57.9986
0
0
8.58639
0
0
3.98593
0.243798
0
16.2581
137.379
67.4107
111.75
123.938
140.956
57.4974
74.6528
104.533
0
46.6307
160.662
83.8289
121.513
108.132
69.1674
26.6765
38.6898
23.8544
23.9611
54.2843
48.2498
78.794
139.679
44.2745
52.9432
11.3825
17.3239
44.8567
29.8172
12.3241
7.02726
25.7089
21.879
0.860518
28.362
22.9867
81.3468
17.8831
64.2861
45.1262
11.2967
116.929
56.8228
11.7668
18.449
48.4785
14.1606
10.9576
9.95622
-2.32313e-14
17.1469
18.9173
16.944
46.0963
22.4448
153.566
312.575
0
204.27
53.0827
15.8955
29.2976
34.4571
51.8814
35.243
374.803
17.1908
163.547
124.935
62.7729
5.49378
68.3318
10.2415
17.7553
43.2994
0
0
4.90116
0
8.56177
13.8558
15.9215
0
0
201.984
45.7031
119.695
89.5844
149.434
83.082
208.494
111.713
28.6049
110.736
88.3534
32.1045
95.8623
53.0507
81.1844
22.2803
93.038
35.3276
14.1832
56.3534
39.0205
89.9347
45.5386
4.40609
22.4871
31.9735
28.4206
23.1316
21.7676
79.6354
7.27514
22.3617
17.1894
9.24523
-9.54386e-15
0
-1.03015e-14
40.0436
51.8128
14.0966
10.6302
34.0702
48.3389
8.23696
22.3322
0
16.9419
21.147
11.8393
20.5056
8.46061
12.851
5.08288
57.9876
24.6864
53.5837
26.4545
9.88149
40.8094
28.122
41.5447
87.8754
41.5792
20.1661
70.3585
73.4084
51.141
76.5194
45.6383
16.7037
25.3287
15.4449
9.58126
0
17.2617
0
0
4.49687
5.97359
27.7177
28.8694
28.1703
-5.17029e-16
30.0582
203.843
136.463
339.027
213.072
208.171
167.754
402.124
89.614
58.9115
128.01
50.4263
40.3746
105.915
27.9937
73.8899
7.05059
9.79224
36.3434
17.492
59.453
42.8439
21.7023
10.4158
44.0366
6.50097
15.3471
-4.80335e-15
40.1502
27.2165
11.4213
5.90882
0
17.8694
0
12.7167
0
13.3351
48.572
3.22842
18.5503
24.7851
7.24728
14.9318
4.64876
5.77471
-9.95254e-15
27.4301
15.7854
15.8967
21.8594
10.3274
17.894
55.0033
19.7926
5.10733
-1.77561e-14
23.2849
27.6697
0
12.3129
44.2502
72.1745
52.7529
13.4203
51.7422
55.9212
22.8249
37.9579
81.767
242.208
56.4167
30.6079
14.9034
33.3374
44.5556
0.534943
9.99523
52.9054
0
62.7874
64.677
55.8928
12.3888
29.0134
233.442
131.992
394.693
110.605
221.53
74.5463
241.99
130.65
125.54
69.8085
31.9058
19.2372
35.2372
23.6032
55.7316
45.6206
1.17132
30.1938
13.4944
18.4983
23.2191
13.5649
0
46.5724
26.3461
44.1033
58.7703
4.35815
37.3449
22.1474
16.3558
46.4145
7.93985
7.79789
23.1048
10.9526
43.275
27.3599
33.9291
17.944
22.0719
16.9478
29.0103
31.5084
1.33912
21.4638
10.6686
9.44349
17.3262
4.81674
5.91988
5.77227
48.2055
59.6552
8.22476
0
4.22208
7.75856
0
0
18.6976
121.537
46.3884
6.88148
85.2494
22.022
253.538
3.86269
21.2072
14.6618
95.5357
42.5111
41.3883
103.075
54.8649
83.0467
51.5086
46.307
12.8587
100.58
41.7818
16.1009
29.138
157.138
251.262
106.032
267.279
286.664
229.578
142.479
305.692
145.195
86.4098
30.1516
28.262
55.0124
40.3751
17.9884
74.1054
19.9428
58.5699
16.9415
51.5115
79.4931
69.5631
13.9501
3.45701
42.6355
13.2581
18.4122
47.0105
6.62826
34.3575
15.5841
11.3326
-2.38586e-14
12.2628
21.5812
13.0638
3.43144
47.9529
22.0692
6.82153
45.9046
6.24999
9.36239
10.2579
25.1947
0
15.905
6.25975
7.83701
5.40552
36.9994
2.20519
28.2721
8.9138
16.0358
30.4075
0
1.02392
0.264074
39.3987
5.03452
27.7768
132.893
36.2374
30.7252
36.2356
9.69734
13.2408
0
9.69579
16.991
33.7212
96.0753
26.5623
28.488
88.1318
4.20577
21.391
88.0266
108.731
185.686
285.933
394.85
130.461
126.168
231.003
110.004
355.684
181.623
218.975
86.1241
176.134
194.922
100.534
100.019
13.6943
36.3572
42.6505
6.71229
54.46
51.0656