/*--------------------------------*- C++ -*----------------------------------*\
| =========                 |                                                 |
| \\      /  F ield         | OpenFOAM: The Open Source CFD Toolbox           |
|  \\    /   O peration     | Version:  5.x                                   |
|   \\  /    A nd           | Web:      www.OpenFOAM.org                      |
|    \\/     M anipulation  |                                                 |
\*---------------------------------------------------------------------------*/
FoamFile
{
    version     2.0;
    format      ascii;
    class       volScalarField;
    location    "0.5";
    object      voidfraction;
}
// * * * * * * * * * * * * * * * * * * * * * * * * * * * * * * * * * * * * * //

dimensions      [0 0 0 0 0 0 0];

internalField   nonuniform List<scalar> 
10571
(
0.45581
0.469384
0.498878
0.856647
0.508407
0.542588
0.978332
0.990741
0.982213
0.517838
0.554574
0.703795
0.988408
0.983878
0.966969
0.594417
0.462991
0.977835
0.980836
0.679798
0.565598
0.46802
0.638706
0.561864
0.422857
0.415363
0.46696
0.717335
0.513729
0.435465
0.992584
0.995191
0.990861
0.803551
0.431657
0.53899
0.952472
0.969565
0.951812
0.988074
0.433708
0.905527
0.959849
0.824742
0.99874
0.474198
0.925056
0.986739
0.409999
0.406395
0.423117
0.44921
0.620084
0.420547
0.961893
0.981425
0.990655
0.992546
0.413594
0.433449
0.945328
0.958644
0.961786
0.998593
0.436387
0.935202
0.961353
0.870301
0.995973
0.667931
0.991895
1
0.43443
0.422015
0.414758
0.442262
0.938521
0.414997
0.898836
0.89163
0.985496
0.997167
0.420289
0.421906
0.985274
0.944663
0.970321
0.997399
0.426853
0.978424
0.964734
0.882274
0.990132
0.977484
1
0.99797
0.962184
0.421574
0.425891
0.975228
0.996749
0.416942
0.968244
0.988416
0.99587
0.995335
0.450675
0.580805
0.997686
0.932128
0.982969
0.992237
0.973998
0.998286
0.963611
0.860682
0.998542
0.998219
0.999124
0.997968
0.982629
0.473904
0.926646
0.994345
0.998248
0.6537
0.996782
0.997867
0.998653
0.997299
0.706111
0.515942
0.984917
0.999664
0.94539
0.987482
0.998469
0.530453
0.996692
0.999158
0.977511
0.856587
1
1
0.999124
1
0.993624
0.715341
0.998819
0.980357
0.999307
0.973539
0.999148
0.999775
0.999153
0.999113
1
0.989553
0.999493
0.999551
0.960103
0.985211
0.998998
0.999232
1
0.999195
0.979335
0.845455
0.997655
1
0.998877
0.999245
0.99993
0.994284
0.975298
0.998987
0.986491
0.9997
0.997431
0.999144
0.999323
0.999491
0.998551
1
1
1
0.999625
0.967872
0.984486
0.996262
0.999193
0.999188
0.999215
0.983632
0.839435
0.997387
1
0.99667
1
0.99595
0.996702
0.992998
0.997064
0.998815
1
0.995843
0.99886
0.998245
0.99873
0.998989
1
0.996921
0.999729
0.999323
0.975669
0.986568
1
0.999174
0.998827
0.9993
0.989397
0.826302
0.998276
0.996631
0.99997
0.99832
0.995163
0.995127
0.995176
0.999019
0.999819
0.997094
0.99882
0.996298
0.996775
0.997688
0.997801
1
0.999552
0.98392
0.991814
0.999074
0.999669
0.9996
0.988572
0.831397
1
1
0.999154
0.990402
0.996812
0.993616
0.986578
0.999358
0.999129
0.997061
0.997378
0.999465
0.999607
0.99965
1
0.999358
0.999218
0.988273
0.989419
1
1
0.999256
0.993421
0.840971
0.997977
0.995664
0.999124
0.994049
0.993623
0.9972
0.996156
0.993074
1
1
0.998435
0.999459
0.999572
1
1
0.99858
0.999115
0.991319
0.988907
1
0.999128
0.999665
0.993636
0.868441
0.99993
0.998955
0.999124
0.99636
0.996921
0.998432
0.998045
1
1
1
0.999557
0.999777
0.999766
0.998876
0.996811
0.99902
0.999754
0.993096
0.993593
1
0.999128
0.999414
0.994692
0.865902
0.9923
0.997987
0.999064
0.993769
0.996811
0.994904
1
1
1
1
0.999779
0.999889
0.999883
1
1
0.998716
0.999335
0.995861
0.993191
1
1
0.999532
0.993164
0.893864
0.995659
0.998877
0.998279
0.992719
1
0.998376
0.999663
1
0.99994
0.999358
0.998894
0.999777
0.999883
0.998876
1
1
0.997861
0.995555
0.990418
0.99997
0.999699
0.999532
0.99282
0.916767
0.979697
1
0.998732
0.995939
1
1
0.998146
0.99902
0.999159
1
0.999889
1
0.999762
1
0.997031
1
0.999777
0.99679
0.990759
1
0.999308
0.999649
0.99434
0.961204
0.924877
1
0.999124
0.995659
0.9989
0.998376
0.997067
1
1
1
0.999889
0.999885
0.99977
1
1
1
0.999888
0.996682
0.993377
0.999123
1
0.999883
0.994134
0.981806
0.847838
0.999264
0.998248
0.997969
0.997801
0.996752
1
0.998615
1
1
1
0.99967
0.99941
1
0.996921
1
0.999962
0.997375
0.992396
1
1
0.999766
0.994817
0.980705
0.76522
0.999961
1
0.99797
0.996702
0.998432
0.997034
0.99902
1
1
0.995559
0.998998
0.999596
0.997752
1
1
1
0.99854
0.992433
0.999154
1
0.999806
0.995395
0.989151
0.71748
1
0.999215
0.99972
0.995383
0.994624
0.876397
0.99946
1
1
0.971645
0.995138
0.99897
0.999845
1
1
0.999996
0.997828
0.993896
0.996342
1
0.999847
0.996329
0.989285
0.64034
1
0.999124
1
0.957672
0.982195
0.932687
0.96298
0.99997
0.997771
0.962889
0.97497
0.998029
0.998837
1
1
0.999219
0.997158
0.995152
0.99994
1
0.999883
0.997554
0.991721
0.63705
1
0.996739
0.99839
0.996812
0.998376
0.962956
0.986624
0.928715
0.9974
0.973587
0.97365
0.984621
0.997441
1
1
0.997073
0.984683
0.994524
0.989692
1
0.999766
0.998985
0.992623
0.76739
1
0.998279
0.9916
1
1
0.974652
0.993853
0.974766
0.996117
0.986841
0.992133
0.971961
0.965537
1
1
0.995623
0.973713
0.986511
0.973369
1
0.999334
0.983627
0.982642
0.89038
1
0.997071
0.88954
1
0.996584
0.977516
0.985206
0.985761
0.987946
0.993968
0.988145
0.974351
0.993604
1
1
0.993804
0.98167
0.977525
0.91775
1
0.994444
0.980227
0.966585
0.97557
1
0.906771
0.9797
0.988893
0.993001
0.952941
0.990644
0.992581
0.991626
0.978948
0.964785
0.987222
0.983176
1
0.995945
0.995842
0.987637
0.979345
0.99202
1
0.993976
0.994995
0.980105
0.98327
0.972396
0.984844
0.9979
0.996811
0.984043
0.98918
0.999324
0.995914
0.959275
0.978669
0.967794
0.994358
0.995426
0.963599
0.978776
0.992296
0.988694
0.978044
0.994589
0.999128
0.998659
0.994975
0.971359
0.97599
0.992682
0.990701
0.99524
0.99857
0.950953
0.994135
0.994427
0.997597
0.997062
0.986735
0.9771
0.996466
0.993216
0.964381
0.968705
0.991503
0.989337
0.986673
0.996524
1
0.995046
0.997008
0.976466
0.98229
0.987999
0.989343
0.99202
1
0.995409
0.997034
0.988347
0.998258
0.998075
0.996482
0.990847
0.997799
0.994418
0.979222
0.991213
0.993311
0.989794
0.988473
0.996796
0.996843
0.983502
0.975602
0.965717
0.97921
0.983973
0.994626
0.9979
1
0.995184
0.991068
0.997703
0.998829
0.999021
0.997326
0.99409
0.997403
0.994534
0.993623
0.993613
0.99373
0.991176
0.990163
0.993168
0.991793
0.995135
0.993924
0.970023
0.96535
0.988464
0.995984
0.99153
1
0.991602
0.996697
0.995913
0.998288
0.999865
0.998195
0.99366
0.99704
0.992594
0.99945
0.99804
0.991938
0.990049
0.987237
0.995798
0.993687
0.988666
0.981476
0.96969
0.95954
0.992645
0.995622
0.99664
0.992633
0.996752
0.997067
0.997703
0.997566
0.999358
0.998688
0.993848
0.997512
0.99651
1
0.99804
0.9915
0.988922
0.987228
0.990266
0.996182
0.986021
0.991543
0.953099
0.964649
0.992916
0.996739
0.9881
0.996811
0.994624
0.99936
0.995777
1
0.998818
0.999447
0.996669
0.996935
0.9962
0.997801
0.999831
0.998661
0.994641
0.985445
0.997521
0.989026
0.998829
0.993964
0.970157
0.97144
0.999961
0.9968
0.99174
0.99978
0.993505
0.998045
0.995743
1
1
0.999557
0.996822
0.99708
0.994184
0.996812
0.998919
0.999108
0.996461
0.989073
0.992745
0.989507
0.998829
0.994918
0.971859
0.952889
0.996632
0.997011
0.96563
1
0.998432
0.999022
0.995608
0.999399
1
0.999702
0.997026
0.996923
0.994766
1
1
0.999404
0.995977
0.986345
0.990055
0.997384
0.998603
0.994571
0.968521
0.97816
0.999613
0.994535
0.98572
1
1
1
1
0.996214
1
0.999584
0.997782
0.995045
0.997402
1
0.99902
0.99915
0.996457
0.984213
0.980201
0.997956
0.998801
0.994793
0.981206
0.97865
0.996631
0.994746
0.991949
1
0.996752
1
0.99902
0.998828
0.999561
0.999779
0.998154
0.994778
0.997751
1
0.99902
0.999246
0.995977
0.979321
0.985701
0.999128
0.998231
0.994898
0.982041
0.97522
0.997832
0.992179
0.99013
1
1
1
0.999662
0.997416
1
0.999889
0.999102
0.990889
0.993292
1
1
0.999065
0.994393
0.985453
0.982675
0.99997
0.998688
0.993697
0.98628
0.984668
0.99214
0.99233
0.99601
1
0.997312
1
1
0.99997
1
0.999557
0.997874
0.994318
0.996627
1
0.997094
0.999085
0.993015
0.989506
0.992411
0.99997
0.998684
0.993196
0.997096
0.989219
0.995548
0.998581
0.99797
1
1
1
1
0.999129
1
0.999397
0.997175
0.994734
0.998139
0.996811
1
0.998685
0.992593
0.992806
0.99743
1
0.998336
0.994134
0.996328
0.98537
0.996592
0.997192
0.99797
1
1
1
1
0.997927
1
0.999443
0.997436
0.995331
0.998876
1
1
0.997861
0.991509
0.994504
0.995919
1
0.997557
0.993067
0.998665
0.99447
1
0.997645
0.99797
1
1
1
1
0.999129
1
0.998413
0.996569
0.995202
0.996744
1
1
0.998019
0.99238
0.995047
0.996675
1
0.998211
0.996317
0.995026
0.99678
0.998877
0.999124
1
1
1
0.999022
0.997399
1
1
0.998783
0.99607
0.996793
0.997752
1
1
0.998538
0.99499
0.996705
0.997642
1
0.999491
0.997712
0.99793
0.99202
0.999768
0.999124
0.99797
1
1
1
0.99902
0.997567
1
0.998428
0.99665
0.997803
0.998953
1
1
0.998177
0.994893
0.995691
0.994075
1
0.999104
0.999135
0.998965
0.99398
1
0.999124
1
1
1
1
0.998987
0.998829
1
0.998695
0.997709
0.998534
0.997752
1
1
0.998023
0.997146
0.99619
0.990418
1
0.999568
0.99825
0.999366
0.99797
1
0.999698
0.99797
1
1
0.999865
0.99902
0.997747
1
0.998966
0.99911
0.998558
0.995658
1
1
0.998508
0.997855
0.996332
0.995374
1
0.999883
0.998379
1
0.993979
0.998877
0.999426
0.99797
1
1
0.999933
1
0.999129
1
0.998932
0.999198
0.998748
0.998876
1
1
0.999619
0.999187
0.998237
0.99489
1
0.999883
0.997793
1
0.99797
1
0.99843
1
1
1
0.998045
0.999797
0.999159
1
0.999664
0.999133
0.998885
0.99779
1
1
0.999108
0.998505
0.996612
0.995827
1
0.999766
0.997587
0.998398
1
1
0.99538
0.99797
0.996811
1
1
0.997466
0.999129
1
0.999527
0.999332
0.998966
0.997596
1
1
0.999446
0.999384
0.996928
0.998428
1
0.999879
0.998921
1
0.996639
1
0.991877
0.99804
1
1
0.998044
0.998074
0.999399
1
0.99303
0.993453
0.999002
0.997751
1
1
0.999442
0.999756
0.997856
0.990445
1
1
0.999802
0.995794
0.99797
1
0.994081
0.99594
0.996811
1
0.993899
0.999932
0.999099
1
0.997631
0.998557
0.999176
0.998876
1
1
0.999665
0.999663
0.997345
0.997249
1
1
0.999729
0.995827
1
1
0.99707
0.99587
1
1
1
0.999966
0.99982
1
1
0.998461
0.999326
0.998914
1
0.99902
0.999962
0.999663
0.998731
0.99601
1
1
0.999826
0.999366
0.99797
1
1
0.99636
1
1
1
1
1
1
1
0.999106
0.999503
0.998914
1
1
1
0.999775
0.9988
0.995315
1
1
0.999737
0.9998
1
1
0.999366
1
1
1
1
1
1
1
1
0.999424
0.998187
0.997713
1
1
1
1
0.998679
0.990327
1
1
0.999689
1
0.99804
1
1
1
1
1
1
1
1
1
1
1
0.998675
0.999961
1
1
1
0.999977
0.997892
0.990629
1
1
0.999531
0.999967
0.99804
1
1
1
1
1
1
1
1
1
1
1
0.997843
0.999961
1
1
1
0.999884
0.998371
0.993561
1
1
0.999644
1
0.99594
1
1
1
1
1
1
1
1
1
1
1
0.998752
1
1
1
1
1
0.998286
0.992987
1
1
0.999766
0.999032
0.99664
1
1
1
1
1
1
1
1
1
1
1
0.998748
0.998527
1
1
1
1
0.999226
0.993954
1
1
1
1
1
1
1
1
1
1
1
1
1
1
1
1
0.999762
0.998876
1
1
1
1
1
0.998156
1
1
1
1
1
1
1
1
1
1
1
1
1
1
1
1
0.999766
0.999109
1
1
1
1
0.999959
0.996524
1
1
1
1
1
1
1
1
1
1
1
1
1
1
1
1
0.999766
1
1
1
1
1
1
0.996499
1
1
1
1
1
1
1
1
1
1
1
1
1
1
1
1
0.999766
1
1
1
1
1
0.999923
0.998013
1
1
1
1
1
1
1
1
1
1
1
1
1
1
1
1
0.999992
0.998826
1
1
1
1
0.999959
0.999123
1
1
1
1
1
1
1
1
1
1
1
1
1
1
1
1
1
1
1
1
1
1
1
0.9973
1
1
1
1
1
1
1
1
1
1
1
1
1
1
1
1
1
1
1
1
1
1
1
1
1
1
1
1
1
1
1
1
1
1
1
1
1
1
1
1
1
1
1
1
1
1
1
1
1
1
1
1
1
1
1
1
1
1
1
1
1
1
1
1
1
1
1
1
1
1
1
1
1
1
1
1
1
1
1
1
1
1
1
1
1
1
1
1
1
1
1
1
1
1
1
1
1
1
1
1
1
1
1
1
1
1
1
1
1
1
1
1
1
1
1
1
1
1
1
1
1
1
1
1
1
1
1
1
1
1
1
1
1
1
1
1
1
1
1
1
1
1
1
1
1
1
1
1
1
1
1
1
1
1
1
1
1
1
1
1
1
1
1
1
1
1
1
1
1
1
1
1
1
1
1
1
1
1
1
1
1
1
1
1
1
1
1
1
1
1
1
1
1
1
1
1
1
1
1
1
1
1
1
1
1
1
1
1
1
1
1
1
1
1
1
1
1
1
1
1
1
1
1
1
1
1
1
1
1
1
1
1
1
1
1
1
1
1
1
1
1
1
1
1
1
1
1
1
1
1
1
1
1
1
1
1
1
1
1
1
1
1
1
1
1
1
1
1
1
1
1
1
1
1
1
1
1
1
1
1
1
1
1
1
1
1
1
1
1
1
1
1
1
1
1
1
1
1
1
1
1
1
1
1
1
0.565761
0.505628
0.532111
0.490863
0.49114
0.498616
0.493024
0.473447
0.720402
0.609471
0.592932
0.678554
0.545674
0.534846
0.566781
0.57116
0.828954
0.682229
0.617194
0.856174
0.832416
0.518668
0.484028
0.768105
0.554336
0.509394
0.806431
0.754196
0.634066
0.591163
0.542792
0.514533
0.691974
0.802918
0.86696
0.841756
0.854232
0.865
0.883915
0.8411
0.851
0.84404
0.720379
0.833622
0.69919
0.524163
0.537793
0.499839
0.6854
0.514514
0.491295
0.572104
0.781624
0.56409
0.779865
0.825569
0.791684
0.803314
0.785767
0.755909
0.711375
0.741512
0.619152
0.686809
0.638388
0.515493
0.507894
0.519433
0.51768
0.498178
0.490805
0.502979
0.674462
0.471497
0.517662
0.77799
0.773744
0.685076
0.76504
0.743809
0.564601
0.765366
0.584299
0.484627
0.481856
0.485257
0.46981
0.468289
0.47184
0.501103
0.55445
0.501196
0.556269
0.522102
0.511888
0.495201
0.454969
0.427193
0.469279
0.476026
0.452949
0.432965
0.44957
0.424145
0.453245
0.456737
0.431911
0.427138
0.440609
0.438441
0.412569
0.524437
0.427734
0.496032
0.527547
0.557275
0.431464
0.441398
0.444264
0.501924
0.447197
0.916251
0.559514
0.496902
0.427405
0.957704
0.584838
0.466653
0.43967
0.568003
0.635856
0.537676
0.455058
0.430632
0.439167
0.631332
0.528191
0.532471
0.714972
0.52674
0.47123
0.461522
0.440498
0.430019
0.439608
0.535784
0.58031
0.813041
0.604313
0.832338
0.435729
0.422549
0.847076
0.433575
0.488849
0.439542
0.839006
0.413388
0.483
0.76064
0.826857
0.683015
0.812988
0.944811
0.981785
0.973466
0.904444
0.449896
0.420342
0.570162
0.486118
0.443727
0.602824
0.422539
0.604248
0.48585
0.712334
0.779267
0.432296
0.859559
0.412639
0.406676
0.432617
0.434076
0.419735
0.409493
0.421969
0.421912
0.420228
0.435321
0.415684
0.42498
0.435174
0.41848
0.438179
0.422063
0.406635
0.41847
0.423867
0.511362
0.413619
0.419428
0.419735
0.437136
0.43425
0.969492
0.712447
0.604409
0.64913
0.966134
0.926964
0.587902
0.941931
0.439706
0.429603
0.425455
0.416148
0.411556
0.424934
0.920862
0.872362
0.984637
0.996056
1
0.420042
0.430862
0.417215
0.425934
0.429568
0.959149
0.994631
0.997243
0.996849
0.9989
0.40886
0.406539
0.641862
0.415613
0.455374
0.435522
0.581256
0.41372
0.467356
0.947175
0.994514
0.958786
0.85975
0.929714
0.996503
0.9826
0.995346
0.414717
0.429927
0.693132
0.493513
0.562282
0.848717
0.763501
0.97374
0.690082
0.991201
0.991803
0.966571
0.995142
0.415561
0.408276
0.427041
0.42182
0.42093
0.432086
0.42026
0.416655
0.43669
0.442845
0.431022
0.42909
0.443757
0.443784
0.445933
0.407947
0.411112
0.418696
0.420185
0.425826
0.405773
0.417607
0.422853
0.424577
0.852173
0.947119
0.981892
0.710438
0.95356
0.948986
0.989946
0.987592
0.994421
0.424899
0.405607
0.422039
0.427585
0.42209
0.419005
0.998533
1
0.995322
0.995623
1
0.417359
0.427919
0.4312
0.422041
0.431777
1
0.998886
0.997798
1
0.998338
0.418032
0.412556
0.497767
0.432133
0.464044
0.429997
0.464288
0.42208
0.442778
0.917162
0.996071
0.977891
0.885589
0.916218
0.995036
0.957052
0.994063
0.445563
0.467808
0.946462
0.93423
0.903298
0.986473
0.985862
0.999231
0.998361
0.99509
0.998879
0.990356
1
0.412782
0.417331
0.420637
0.425539
0.418497
0.461973
0.418935
0.417511
0.449825
0.622889
0.762568
0.73629
0.967064
0.786329
0.992748
0.41771
0.415043
0.415947
0.415853
0.423947
0.419633
0.411742
0.414304
0.427412
0.994159
0.977878
0.995437
0.998016
0.990944
0.984104
0.995482
0.998672
0.995246
0.430963
0.42853
0.416855
0.424126
0.440297
0.41342
0.995339
0.99989
0.991833
0.997717
0.996609
0.417918
0.430169
0.434694
0.427402
0.434727
1
0.994414
0.995742
0.99672
1
0.412274
0.478627
0.574941
0.4291
0.477379
0.621035
0.857474
0.696998
0.835508
0.931479
0.995596
0.97542
0.860155
0.925205
0.99227
0.949137
0.992786
0.708998
0.965791
0.995325
0.996819
0.984554
0.997644
0.996817
0.9988
1
1
0.997753
0.996818
1
0.430034
0.438274
0.65729
0.43285
0.516335
0.938535
0.515219
0.816326
0.948262
0.992061
0.989666
0.993303
0.997365
0.992604
0.997975
0.431776
0.438277
0.418727
0.416468
0.434441
0.445596
0.419743
0.435252
0.481414
0.99741
0.995862
0.997382
0.99819
0.999662
0.996471
1
0.99806
0.994708
0.434653
0.45188
0.425586
0.446962
0.458116
0.437873
0.996456
0.993211
0.991877
0.992234
0.947233
0.435496
0.546293
0.466917
0.475545
0.785857
0.999383
1
0.992202
0.965785
0.997796
0.883652
0.945448
0.990079
0.995332
0.991314
0.996392
0.997163
1
0.999122
0.933844
0.99183
0.968462
0.847372
0.934543
0.991751
0.943047
0.999146
0.992794
0.99965
0.997946
1
1
1
1
1
1
1
1
1
1
0.693644
0.943327
0.969212
0.865186
0.975951
0.985156
0.982039
0.992094
0.992422
0.995504
0.996922
0.995362
1
0.995951
0.997837
0.46995
0.498352
0.596111
0.447233
0.746793
0.531457
0.886274
0.616456
0.961827
1
0.998496
0.99562
0.997252
1
0.998246
1
0.998943
0.999397
0.459813
0.496804
0.485174
0.610319
0.861002
0.848088
0.948948
0.999116
0.854628
0.99993
0.998792
0.998955
0.999004
0.446489
0.550593
0.393133
0.99595
0.943247
0.99006
0.901674
0.708515
0.930525
0.894433
0.952243
0.976104
0.879817
0.998892
0.980145
0.99946
0.999485
0.998984
0.998786
0.38855
0.710268
0.426543
0.985875
0.903462
0.999021
0.934093
0.987513
0.996023
1
0.9964
0.997548
0.997925
1
0.998369
1
0.953916
0.99097
0.939974
0.858665
0.948264
0.98996
0.906157
0.998242
1
0.997971
1
1
1
1
1
1
1
0.999124
1
0.997476
0.998038
0.968909
0.985431
0.997911
0.989703
0.998183
0.992304
0.997716
0.99894
0.997636
0.995662
0.993185
0.999121
0.998877
0.998677
0.999304
0.667142
0.925109
0.947974
0.857681
0.991042
0.904945
0.976144
0.980179
0.988468
1
0.999023
1
0.999429
1
0.999023
1
0.997278
0.997848
1
1
1
1
1
1
0.923549
0.988343
0.988428
0.98378
1
0.994638
0.999177
0.998684
0.998452
0.998183
0.999
0.997009
0.999088
0.999925
1
1
1
0.999148
1
1
0.992303
0.99512
0.996811
0.998061
1
0.99817
0.996614
0.99915
0.999794
1
0.997808
1
1
0.99857
1
1
1
0.999179
1
0.997977
1
1
1
0.998244
1
1
0.998369
0.997366
0.95578
0.980233
0.926668
0.841249
0.945512
0.978488
0.9271
1
1
1
1
1
1
0.995942
1
0.999124
1
1
1
1
1
0.99572
1
0.999922
0.996818
1
0.995957
0.997769
0.99912
0.994387
0.997547
1
0.997755
0.997365
0.999061
1
0.995823
0.996182
0.998838
1
1
0.98342
0.992546
0.991968
0.99088
0.994136
0.991766
0.995055
0.994933
0.995309
1
0.998046
1
1
0.998434
1
1
0.998691
1
1
1
1
1
1
1
0.991523
0.996811
0.994365
0.997406
0.996811
0.996486
1
0.997298
0.999556
0.999098
1
0.998625
1
1
0.999582
0.999029
0.999266
1
1
1
0.996667
1
0.996701
0.996515
1
0.99816
0.99962
1
0.999965
1
0.999379
0.999163
1
1
1
1
1
1
1
1
1
0.999373
0.999887
0.998819
0.998556
1
0.996737
1
0.949292
0.978225
0.907421
0.858858
0.925235
0.981266
0.914186
1
0.999857
1
1
1
1
0.997971
1
1
1
0.999226
0.999154
0.996817
0.997828
0.996818
0.999154
0.998565
1
0.998253
0.994075
0.997909
0.995382
0.998839
0.99679
0.991863
0.995549
0.997728
0.997333
0.998528
0.992964
0.99597
0.996785
0.997282
0.998675
0.994636
0.995751
0.993137
0.996096
0.992932
0.994455
0.996884
0.994785
0.996027
1
1
1
0.998252
1
0.999033
1
1
1
0.99311
0.996811
0.998001
0.995161
1
0.998243
0.998346
0.998937
1
0.998116
0.998764
0.996555
0.999019
1
1
1
1
1
1
1
0.996758
0.998838
0.99989
0.999121
0.998877
0.99792
0.996962
1
0.99997
0.999055
1
1
1
1
1
1
1
1
1
1
1
1
1
0.999122
0.996842
1
1
1
0.936837
0.985704
0.900325
0.826195
0.93576
0.987354
0.873837
0.998386
1
1
1
1
1
0.999124
1
0.998836
0.996818
0.998248
0.998875
1
0.998669
0.998048
0.995818
0.991423
0.996633
0.996971
0.991533
0.994466
0.992702
0.999
0.995778
0.993624
0.997364
0.997019
0.997977
1
1
0.99798
0.999101
0.996484
0.993455
0.99944
0.998232
0.996722
0.992545
1
0.998937
0.999606
0.999008
1
0.99871
1
0.999758
0.998276
0.997755
1
0.996002
0.998878
1
0.994336
0.999074
1
1
0.99911
1
0.999455
1
0.9989
0.998818
0.997754
0.995844
1
0.999079
1
1
1
0.997977
1
0.998369
1
1
1
1
1
0.94652
0.974723
0.866885
0.817246
0.944931
0.972424
0.871693
1
1
1
0.999819
1
0.998877
0.99849
1
0.998837
1
1
0.998178
1
0.994818
0.997979
1
0.989334
0.999536
0.995064
0.996701
0.998878
0.997305
0.9927
0.995123
0.998681
0.997971
0.994504
1
0.99993
0.995612
0.99798
0.996735
0.996842
0.992481
0.996752
1
0.998808
0.995704
1
0.998417
1
0.998258
1
1
1
1
1
0.996904
1
0.999939
0.997755
1
0.998243
0.999393
1
0.997753
1
0.996813
0.999121
1
1
0.999121
1
1
1
1
0.996816
0.998878
1
1
1
1
1
0.999128
0.999077
1
0.99997
0.956465
0.955085
0.84921
0.879247
0.961385
0.967778
0.827182
0.997975
1
1
1
0.998902
1
0.999124
0.997915
0.997598
1
0.99994
0.993105
1
0.99594
1
1
0.990544
0.997756
0.996488
1
0.997446
0.995488
0.998395
0.9964
1
0.995124
0.994697
0.993935
0.999721
1
0.99401
0.995657
0.99717
0.998113
0.999608
0.997544
0.997438
0.999056
1
1
1
0.998558
1
1
1
1
1
0.99702
0.99989
0.998243
0.994156
0.996921
0.999879
1
1
0.998876
0.999697
1
1
1
1
1
0.999613
1
1
1
1
1
0.997977
1
1
1
1
1
1
0.999438
0.999425
0.949643
0.970697
0.841777
0.874937
0.925961
0.976805
0.833206
0.9993
0.99986
0.997971
0.998248
0.996817
1
0.999124
1
0.997366
0.996817
0.997977
0.99663
0.99572
0.993489
0.997979
0.997979
0.99978
0.994738
0.996881
0.995712
0.997408
0.995307
0.998243
0.997368
0.998021
1
0.997523
1
0.997978
0.99589
0.99798
0.998263
0.999136
1
0.997256
0.9997
0.999255
0.999056
1
1
1
1
1
1
0.999697
1
1
0.999265
1
1
0.997368
0.996811
0.997365
0.999425
1
0.998876
0.999122
1
1
0.999264
1
0.999121
1
1
0.998761
1
1
0.998219
1
1
1
1
0.999697
0.999128
1
1
0.999425
0.919233
0.983673
0.818143
0.863589
0.900891
0.989663
0.82158
0.993209
1
1
1
0.996817
0.998645
1
1
0.99663
0.997915
0.999124
0.998102
1
0.993909
1
0.997143
1
0.998878
0.996336
0.996811
0.997911
0.995065
1
0.998142
1
1
1
1
1
0.996657
0.999303
0.998263
0.997408
1
0.995408
0.998922
0.998302
1
1
1
0.999425
0.999129
1
1
1
1
1
0.998878
1
0.999122
0.998878
1
1
1
0.996809
1
0.999122
1
1
1
1
1
1
1
0.998877
0.999153
1
0.998877
1
1
1
1
1
0.999429
1
1
1
0.888533
0.983703
0.816489
0.907181
0.857626
0.987169
0.822932
0.993419
0.997971
0.997971
0.99855
1
1
0.999698
1
0.994849
0.993635
0.997947
0.998102
1
0.996359
1
0.997979
1
0.997717
0.997093
1
0.998568
0.99673
0.999122
1
1
1
0.998877
1
0.997978
1
0.998677
0.998263
0.998272
0.999056
0.999552
0.995088
0.998868
0.998666
1
0.999044
0.999123
1
1
1
1
1
0.997971
1
1
0.997365
0.997368
1
1
1
1
1
1
1
0.999121
1
1
1
1
1
0.994386
1
1
0.999845
1
1
1
1
1
0.99982
1
1
0.999122
0.801622
0.994223
0.866962
0.957098
0.754857
0.996899
0.913135
0.955332
1
1
0.997372
1
1
0.999124
0.996817
0.996243
0.99989
0.999849
0.994732
0.993744
0.99727
0.997979
0.999582
0.996811
0.996634
0.996488
1
0.99822
0.998819
0.999122
0.998877
0.99989
0.998274
1
1
1
0.99394
1
0.999131
0.999136
1
1
0.997394
1
1
1
1
1
0.99997
1
0.999044
1
1
1
1
0.99978
1
0.99702
1
1
0.999122
1
1
1
1
1
0.999961
0.996811
1
0.998877
1
0.997754
0.999123
1
0.998064
0.998047
1
1
1
1
1
1
1
1
0.722582
0.996047
0.94128
0.973491
0.734937
0.995348
0.973551
0.876709
0.997971
1
1
1
0.999613
0.999124
1
0.997521
1
1
0.999264
1
1
1
1
0.996811
0.998646
0.998547
1
0.997756
0.997063
0.995911
0.998877
0.994833
0.997638
1
1
1
1
0.992965
0.997395
0.999136
1
1
0.998262
0.998749
1
1
1
1
1
1
1
0.999123
1
1
0.999613
1
1
0.998839
1
1
1
1
1
0.999123
1
1
1
1
1
1
1
0.997289
0.999879
0.996154
0.991174
1
1
1
1
1
1
1
1
1
0.75331
0.993523
0.980103
0.97626
0.773211
0.99772
0.984913
0.81254
1
1
0.999124
0.993633
0.998916
0.998248
1
0.998877
1
0.998249
0.998877
1
0.99594
0.995958
0.999721
0.993624
0.998839
0.996852
0.990432
0.997794
0.997365
0.995397
1
0.995711
0.99591
1
1
1
0.99993
1
0.997694
0.997409
1
0.998376
0.996375
0.998272
0.996225
1
1
1
1
1
1
1
1
1
1
0.99989
1
0.998878
1
1
1
1
1
0.999032
1
1
1
1
1
1
0.994724
0.99547
0.998126
1
0.990669
1
1
1
1
1
1
1
1
1
0.798606
0.995957
0.991863
0.988146
0.824075
0.993462
0.989091
0.731949
1
1
1
1
1
1
1
0.99938
0.996818
0.999185
0.993647
1
0.998109
0.997979
1
1
1
0.999122
0.990542
0.996169
0.998122
0.997063
1
0.988453
0.99588
0.998877
0.995957
1
0.996726
0.99603
0.998503
0.998779
0.999057
0.996752
0.996735
0.998302
0.994793
1
1
1
1
0.999944
0.999077
1
1
1
0.999613
1
0.999122
0.998142
1
1
0.999213
0.9989
1
0.999122
0.997909
1
1
0.993622
0.998243
1
1
0.985329
0.999123
0.996812
0.977153
1
1
1
1
1
1
1
1
1
0.845881
0.997264
0.99288
0.986509
0.869841
0.99553
0.988808
0.655062
1
1
0.999124
1
1
1
1
0.99818
0.996818
1
0.996862
1
1
0.997422
0.993727
0.99989
0.985375
0.992249
0.964592
0.862045
0.904856
0.997335
0.999265
0.985374
0.980642
0.99396
1
0.991842
1
0.995333
0.990266
1
0.990045
0.988464
0.941587
0.989094
0.97185
0.996797
1
1
0.998257
1
1
1
1
1
0.99911
0.997362
1
0.996439
0.99945
0.99997
0.999274
0.99692
0.997829
0.999939
1
1
1
1
0.999424
1
0.99088
0.966632
0.994678
0.996812
0.947491
1
1
1
1
1
1
1
1
1
0.903161
0.995653
0.994349
0.993789
0.916309
0.995986
0.986377
0.634825
1
1
1
1
1
1
1
0.998645
1
1
0.997753
1
0.997969
0.995331
0.999791
0.966359
0.963479
0.967334
1
0.981076
0.995579
0.944395
0.991097
0.996811
0.969346
0.986646
0.998048
0.998675
0.993662
0.99798
0.964751
0.97766
0.936563
0.993335
0.984991
0.988558
0.951088
1
0.999374
1
0.995613
0.998932
0.994925
0.998547
1
0.998391
0.996633
0.996812
1
1
0.996811
0.999122
0.999123
1
1
0.99997
0.99791
0.999697
1
1
0.999424
1
0.997033
0.92134
0.994587
0.99989
0.890412
1
1
1
1
1
1
1
1
1
0.930459
0.995744
0.981127
0.987344
0.937056
0.992915
0.936013
0.679571
1
1
0.999094
1
1
0.999154
0.997915
0.997754
1
0.99855
0.99663
0.999122
0.997479
0.997979
0.995748
1
0.973112
0.982108
1
0.983901
0.978862
0.992489
0.986181
1
0.992094
0.990671
0.995817
0.983199
0.992897
0.997004
0.991404
0.993506
0.988907
1
0.991103
0.991776
0.99655
0.950326
0.912
0.960372
0.912119
0.958525
0.914573
0.948375
0.987478
0.968377
0.995318
1
0.999122
0.996594
1
0.999061
0.998275
0.99758
0.987672
0.992979
0.9989
0.999697
0.998877
1
1
1
0.98143
0.891688
0.987391
0.993075
0.910587
1
1
1
1
1
1
1
1
1
0.939731
0.985712
0.880151
0.985507
0.94328
0.95399
0.819232
0.836284
1
1
1
0.998902
1
0.999426
1
0.999109
1
0.997644
0.999768
1
0.966388
0.955399
0.991079
1
0.988664
0.981533
1
0.981387
0.973168
0.997214
0.986336
1
0.99794
0.989781
0.970857
0.971766
0.998398
0.993035
0.989848
0.99714
0.999024
0.991488
0.99272
0.967077
0.999024
0.974092
0.957202
0.959551
0.981643
0.982018
0.979863
0.981875
0.977682
0.9993
1
1
0.999818
0.997097
0.993623
0.996608
0.979333
0.980859
0.985152
0.972551
0.975025
0.999122
1
1
0.999121
1
0.975276
0.937173
0.941005
0.931739
0.964413
1
1
1
1
1
1
1
1
1
0.954371
0.911568
0.864103
0.981267
0.967079
0.946175
0.958341
0.945802
0.997971
1
0.999698
1
0.999845
0.997372
0.996817
0.988266
1
0.962309
0.915045
0.994842
0.940199
0.988571
0.992542
0.996811
0.969042
0.983618
0.996811
0.976476
0.990766
0.999182
0.989278
1
0.992882
0.986994
0.98494
0.988985
0.993592
0.99798
0.988799
0.950996
0.999837
0.996192
0.987028
0.996603
0.998666
0.992526
0.990808
0.994525
0.991437
0.988367
0.993837
0.996248
0.988949
0.997551
0.995511
0.993622
0.998244
0.996362
1
0.996154
0.968864
0.976898
0.986935
0.951972
0.94774
0.998243
1
1
0.997121
0.998916
0.92495
0.984632
0.977866
0.966474
0.986795
1
1
1
1
1
1
1
1
1
0.955774
0.970908
0.965644
0.982268
0.978398
0.988049
0.973546
0.980533
1
1
0.950805
0.983097
0.997251
0.953334
0.96082
0.955039
0.970479
0.967987
0.981405
0.958403
0.989706
0.996585
0.981879
0.9989
0.971945
0.997668
0.991535
0.979455
0.993854
0.9748
0.984401
0.996812
0.997759
0.994968
0.990659
0.996026
0.996379
0.999582
0.993441
0.998868
0.997528
1
0.973158
0.991091
0.931107
0.996741
0.996244
0.99764
0.989634
0.99674
0.997528
0.995037
0.994614
0.991954
0.992299
0.996811
0.996911
0.996555
0.991533
0.986644
0.982238
0.972608
0.987323
0.988197
0.986137
0.999939
0.999961
0.9989
0.998243
1
0.974177
0.990361
0.989628
0.990437
0.986176
1
1
1
1
0.999304
1
0.999241
1
0.999122
0.983072
0.987445
0.982201
0.972985
0.978429
0.987502
0.981912
0.982634
1
1
0.970193
0.972231
0.980836
0.979491
0.988367
0.988615
0.982661
0.989279
0.991013
0.987378
0.990757
0.970243
0.975606
0.9989
0.992649
0.996337
0.991534
0.989474
0.995034
1
0.999226
0.996812
0.999182
0.996207
0.994003
0.994005
0.994149
0.919834
0.967177
0.958175
0.952796
0.980509
0.989275
0.964336
0.996225
0.998033
0.997529
0.998034
0.996425
0.993987
0.99565
0.996157
0.993844
0.99944
0.964856
0.911691
0.9202
0.94199
0.98252
0.95421
0.994432
0.969858
0.995968
0.999122
0.990538
0.974613
0.995199
0.958994
0.973886
0.990357
0.985166
0.989084
0.994769
0.996702
0.989119
1
1
0.998879
1
1
0.999429
0.999967
1
0.998426
0.972885
0.986989
0.975307
0.976759
0.971198
0.988475
0.983268
0.978923
1
0.994333
0.972458
0.987268
0.983276
0.981092
0.989135
0.994772
0.993635
0.99547
0.99539
0.99111
0.990687
0.985923
0.975118
0.993621
0.990094
0.998153
0.997471
0.991488
0.994974
0.998092
0.998877
0.996372
0.996911
0.999884
0.995957
0.995956
0.987604
0.998258
0.98826
0.992315
0.998048
0.981349
0.989964
0.998093
0.996746
0.992921
0.997595
0.998245
0.998257
1
0.997166
0.997125
0.997692
0.993913
0.996711
0.976361
0.952397
1
0.969101
0.990944
0.997398
0.99472
0.994805
0.991557
0.993619
0.948477
0.997754
0.975366
0.982032
0.991596
0.999011
0.987574
0.998095
0.996812
0.992062
1
1
0.999374
1
0.998941
0.998256
0.997988
1
1
0.958153
0.990941
0.972821
0.982502
0.96891
0.98367
0.954384
0.976892
0.996152
0.985937
0.983543
0.994952
0.985829
0.990183
0.987158
0.995895
0.984526
0.993537
0.997366
0.990781
0.992507
0.983135
0.991288
0.99934
0.995898
0.994731
0.996812
0.996053
0.996639
0.988066
0.998878
0.996812
0.997365
0.998645
1
1
1
0.99401
0.990626
0.997736
0.998113
0.994287
0.991762
0.99857
0.996225
1
0.997101
0.996763
0.998077
0.996965
0.99855
0.998336
0.999301
0.992233
0.996633
0.991095
0.995064
0.998529
0.993622
0.994699
0.993162
0.984049
0.993681
0.99658
0.987348
0.988399
0.993224
0.987353
0.992546
0.997754
0.995605
0.997097
0.998246
1
0.996747
1
1
0.999374
0.999437
0.996519
0.996362
0.996471
1
0.996277
0.956567
0.973097
0.924338
0.958526
0.953654
0.966458
0.906959
0.980533
0.992585
0.983628
0.99085
0.992975
0.983583
0.995137
0.987928
0.998722
0.998244
0.993719
0.996862
0.990123
0.992297
0.996098
0.997979
0.993623
0.998801
0.997548
1
0.993111
0.995397
0.998244
0.99911
1
0.997364
1
0.997979
1
0.997911
0.992686
0.999371
0.99711
0.995868
0.998712
0.997394
0.999315
0.998991
1
0.995552
0.99758
0.997386
0.99674
0.998352
0.997216
0.992516
0.997271
0.999187
1
0.995912
0.995626
1
0.997668
0.992647
0.987129
0.991665
0.9977
0.990428
0.990518
0.99698
0.993622
0.986063
0.968323
0.99044
0.994387
0.997339
0.994394
0.991945
0.99993
0.998744
0.993274
1
0.99201
0.991942
0.992909
0.998369
0.996125
0.945252
0.972914
0.902527
0.976792
0.946972
0.983883
0.934657
0.968559
0.983142
0.990414
0.994382
0.996817
0.994231
0.995742
0.990453
0.992254