/*--------------------------------*- C++ -*----------------------------------*\
| =========                 |                                                 |
| \\      /  F ield         | OpenFOAM: The Open Source CFD Toolbox           |
|  \\    /   O peration     | Version:  5.x                                   |
|   \\  /    A nd           | Web:      www.OpenFOAM.org                      |
|    \\/     M anipulation  |                                                 |
\*---------------------------------------------------------------------------*/
FoamFile
{
    version     2.0;
    format      ascii;
    class       volScalarField;
    location    "2.25";
    object      Ksl;
}
// * * * * * * * * * * * * * * * * * * * * * * * * * * * * * * * * * * * * * //

dimensions      [1 -3 -1 0 0 0 0];

internalField   nonuniform List<scalar> 
10571
(
0
28.6946
17.2929
3.46996
151.13
838.705
470.713
87.5204
96.309
466.34
2031.57
4763.52
3723.48
3365.99
1029.41
540.973
11169.2
645.249
946.104
3197.89
399.529
9357.16
625.408
11093.1
0
133.227
2.21338
4.99168
83.0767
26.0856
79.9541
66.1269
199.859
1342.14
9330.34
415.084
800.86
317.554
511.955
204.881
11832.9
3658.01
1094.67
269.066
217.35
9093.45
3516.15
1906.66
0
654.397
74.3757
58.2498
51.0858
163.094
108.232
57.8004
573.137
4381.76
11690.4
375.351
118.557
77.6397
856.552
94.693
8685.37
713.977
437.459
1321.18
179.531
7680
9294.04
1077.73
0
126.531
443.353
1290.24
22.1789
469.434
166.862
135.454
665.19
6967.11
12711.3
303.654
82.2364
99.8703
2067.54
1916.66
8578.77
586.137
714.71
1839.71
83.1589
10528.4
7692.56
4293.26
0.328208
57.7669
100.581
3712.13
25.4179
14.7897
151.466
251.192
1386.76
8943.53
1247.39
273.733
99.1174
190.619
3496.49
9194.04
7335.2
480.941
1964.65
5054.75
6638.64
12302.7
8820.78
9470.74
0
1029.81
952.372
1564.28
7.91742
488.354
163.118
510.166
2497.83
9682.66
14015.9
132.403
286.925
142.255
344.886
4113.15
6288.5
11361.3
1479.85
694.731
2108.72
6949.31
1482.54
13656.3
8498.63
11430.5
31.9544
206.584
798.67
242.029
18.258
123.34
373.082
440.641
586.223
1841.5
15.4331
195.772
39.7604
253.851
244.303
2502.02
10143.9
149.105
458.009
1419.73
2149.47
3457.02
544.117
342.164
10658
8334.2
8982.65
88.8646
13.6738
137.744
19.9804
59.094
93.37
279.918
245.607
158.424
16.1791
0
346.071
322.892
601.437
314.43
238.016
273.535
0.225526
1219.93
2277.48
2096.62
4640.48
4631.26
11.1039
10026.1
8543.28
2084.96
28.8846
26.3973
35.3656
0.0659498
170.492
6.94306
51.1102
49.9196
22.9001
3.57726
0
0
36.1551
284.445
3.86811
4.18855
4.06041
0
179.22
323.931
490.837
116.674
2196.3
8285.76
3378.82
8193.67
143.685
9.12455
54.9319
195.205
110.087
6.87181
1.43048
1.23194
0.433703
0
20.2519
10.283
2.08953
3.44175
0.470635
0.227312
59.6453
46.216
121.574
3.11588
102.889
1164.01
9849.72
6123.99
52.0555
9.45817
48.5801
54.3905
0
0
0
1.32421
0
0
0
0
1.89269
2.12753
0.373396
0
50.2633
6.15506
11.1568
8.27281
0
2039.42
1397.39
354.798
37.6592
0
8.20154
10.9393
4.06298
0
0.266961
1.31834
0
0
0
14.9259
1.44739
1.11439
3.0825
3.18674
39.44
3.77208
1.06576
0.464659
0
549.63
7.59878
0.730293
17.4247
0
7.63358
0
0
8.53354
1.13133
1.30274
0
0
0
0
1.06027
1.5898
1.14212
4.29228
14.2435
3.98026
0.743909
2.70805
0
23.0041
0
4.73962
27.1499
0
0
0
0.552782
0
1.33809
1.70437
0
0
0
0
0.991631
2.15762
0.820719
3.33269
17.5421
1.06235
0.349848
0
0
6.93815
0
2.65649
0
0
6.01015
5.74557
0
7.37434
0.659831
0.23028
0
0
0
0
0.562862
0.616189
0
0
2.7252
0.307898
0.739143
0
0.330172
3.18896
0.552164
4.68994
9.44754
0
0
0
0
6.62126
1.31496
1.23444
0.509612
0
0
0
2.29574e-14
1.17844
0.789926
0
4.46307
0
0.792986
0
0
2.21393
0
0
0
0
6.56437
2.16415e-13
0
5.20809
0.6582
1.76475
0
0
0
0
1.02261
1.72615
0.390083
0
4.70261
1.19088
0.4323
0
6.27551
3.30389
0
0.133114
0
0
6.74324
0
0
0
0.650944
0.930432
0.324274
0
0
0
0.509946
0
0
1.46502
0
0.382953
0.457483
6.43913
0
0
0
0
0
0
13.4849
0
0
0
1.06741
1.34438e-14
0.478865
0
0
0
0
0.457287
0.447152
0
3.48307
0
0
5.42832
9.42576
0
0
0
17.9412
0
13.8842
0
0
0
0.634947
0.527427
0
0
0
1.9684
0.53191
0.462297
0.415028
0
0.237533
0
1.22421
0
0
0
0
0
0
0
0
0
0
0
0
0
0.51284
0
0
0
0
0.459214
0
0
3.13854
0
0
0
0
0
0
0
0
0
5.82899
0
0
0
0.662121
0
0
0
0
0
0.5298
0.871943
0.565881
3.1317
0
0.34579
0.41164
3.11145
0
2.36238
2.55171
0
0
2.80503
6.6919
0
0
0
0
0.492588
0.495554
0
0
0
0.522306
0
0.274793
0
2.58189e-14
0
0.401251
2.58734
0
0
0
6.14372
0
0
0
0
0
0
0
1.0052
0
0
0
0
1.01703
0.877896
1.24541
0
2.83202
0.373868
0.748115
0
0
0
0
6.18468
0
0
0
0
0
2.47984e-14
0
0
0
0
0
0
0
0.397625
0
0
2.8899
0.787904
0.0221508
0
0.272699
0
0
0
0
0
3.7232
0
0
0
0
0
0
0
0
0
0
0.417899
0.446724
0
5.97417
0
1.80188
0
0
0
0
0
0
3.35673
0
0
0
0
0
0
0
0
0
0
0.486513
0.54711
0.896583
0
3.17736
0
2.27939
0
13.0986
0
0
2.35665
0
4.23331e-14
0
0
0
0
0.540863
0
0
0
13.4531
0
0.479442
1.43774
0.46783
0
0
0.472837
2.82978
0
15.1743
4.04569
3.39923
16.0363
0
0
0
0
0
6.53246
0
0
0
0
31.5073
0
0.469782
0
2.03217e-15
0
0
0.282282
0.957454
3.95794
0
0
1.24981
8.1883
0
0.968697
0
0
0
0
0
0
0
0
0
0
0.459173
0
1.01449
0
0
3.19726e-14
1.54694
0
0
0
0
0
0
0
4.84573
0
0
0
0
0
0
0
9.97638
4.21517
0.858518
0
0
0
0
1.12653
0.532267
0
0
0
0
0
0
0
0
0
0
4.97929
0
0
0
0
0
0
0.861944
0.517527
0
0
0
0.954645
0
0
0
0
0
0
0
0.292992
1.73667
0
0
0
0
0
0
0
0
0
0
0
0
0
0
1.09848
0.524518
0
0
0
15.6456
0
0
0
0
0
0
0
0
0
0
0
0
0
0.390695
0.49984
0
0
0
0.00966892
0
0
0
0
0
0
0
0
0
0
0
0
0
0
0
0
0
0
0
0.480718
0
0
0
0.652606
0
0
0
0
0
0
0
0
0
0
0
0
0
0
0
0
10.9584
0
0
0
0
0
0
0.722951
0
0
0
0
0
0
0
0
0
0
0
0
0.419636
0
0
0
9.68898
0
0
0
0
0
0
0.779322
0
0
0
0
0
0
0
0
0
0
0
0
0
0
0
0
0
0
0.802847
0
0
0
0
1.26978
0
0
0
0
0
0
0
0.441322
0
0
0
0
0
0
0
0
0
0
0
0
0
0
0
0.204083
0
0
0
4.19844e-13
0
0
0
0
0
0
0
0
0
0
0
0
0
0
0.436953
0
0
0
0
0
0
0
0
4.01436e-13
0
0
0
0
0
0
0
0
0.956948
0
0
0
0
0
0
0
0
0
0.202826
0
0
0
0
0
0
0
0
0
0
0
0
0
0.941987
0
0
0
0
0
0
0
0
0
1.92906
1.29277
0
0
0
0
0
0
0
0
0
0
0
0
0
0
0
0
0
0
0
0
0
0
0
0.905863
0
0
0
0
0
0
0
0
0
0
0
0
0.452525
0
0
0
0
0
0
0
0
0
0
1.11945
0
0
0
0
0
0
0
0
0
0
0
0
0.903483
0
0
0
0
0
0
0
0
0
0
0
0
0
0
0
0
0
0
0
0
0
0
0.131406
0.434006
0
0
0
0
0
0
0
0
0
0
0
0
0
0
0
0
0
0
0
0
0
0
0
0.826376
0
0
0
0
0
0
0
0
0
0
0
0
0
0
0
0
0
0
0
0
0
0
0
0.379865
0
0
0
8.7467
0
0
0
0
0
0
0
0
0
0
0
0
0
0
0
0
0
0
0
0.371488
0
0
0
0
0
0
0
0
0
0
0
0
0
0
0
0
0
0
0
0
0
0
0
1.22444
0
0
0
0
0
0
0
0
0
0
0
0
0
0
0
0
0
0
0
0
0
0
0.819008
0.602399
0
0
0
0
0
0
0
0
0
0
0
0
0
0
0
0
0
0
0
0
0
0
0
0
0
0
0
0
0
0.46327
0
0
0
0
0
0
0
0
0
0
0
0
0
0
0
0
3.83547
0.186323
0
0
0
0
0
0
0
0
0
0
0
0
0
0
0
0
0
0
0
0
0
0
0
0.168864
0
0
0
0
0
0.467402
0
0
0
0
0
0
0
0
0
0
0
0
0
0
0
0
0
0
0
0
0
0
0
0
0
0
0
0
0
0
0
0
0
0
0
0
0
0
0
0
0
0
0
0
0
0
0
0
0
0
0
0
0
0
0
0
0
0
0
0
0
0
0
0
0
0
0
0
0
0
4.49775
0
0
0
0
0
0
0
0
0
0
0
0
0
0
0
0
0
0
0
0
0
0
0
0
0.507918
0
0
0
0
0
0
0
0
0
0
0
0
0
0
0
0
0
0
0
0
0
0
0
0.521819
0
0
0
0
0
0
0
0
0
0
0
0
0
0
0
0
0
0
0
0
0
0
0
0
0
0
0
0
0
0
0
0
0
0
0
0
0
0
0
0
0
0
0
0
0
0
0
0
0
0
0
0
0
0
0
0
0
0
0
0
0
0
0
0
0
0
0
0
0
0
0
0
0
0
0
0
0
0
0
0
0
0
0
0
0
0
0
0
0
0
0
0
0
0
0
0
0
0
0
0
0
0
0
0
0
0
0
0
0
0
0
0
0
0
0
0
0
0
0
0
0
0
0
0
0
0
0
0
0
0
0
0
0
0
0
0
0
0
0
0
0
0
0
0
0
0
0
0
0
0
0
0
0
0
0
0
0
0
0
0
0
0
0
0
0
0
0
0
0
0
0
0
0
0
0
0
0
0
0
0
0
0
0
0
0
0
0
0
0
0
0
0
0
0
0
0
0
0
0
0
0
0
0
0
0
0
0
0
0
0
0
0
0
0
0
0
0
0
0
0
0
0
0
0
0
0
0
0
0
0
0
0
0
0
0
0
0
0
0
0
0
0
0
0
0
0
0
0
0
0
0
0
0
0
0
0
0
0
0
0
0
0
0
0
0
0
0
0
0
0
0
0
0
0
0
0
0
0
0
0
0
0
0
0
0
0
0
0
0
0
0
0
0
0
0
0
0
0
0
0
0
0
0
0
0
0
0
0
0
0
0
0
0
0
0
0
0
0
0
0
0
0
0
0
0
0
0
0
0
0
0
0
0
0
0
0
0
0
0
0
0
0
0
0
0
0
0
0
0
0
0
0
0
0
0
0
0
0
0
0
0
0
0
0
0
0
0
0
0
0
0
0
0
0
0
0
0
0
0
0
0
0
0
0
0
0
0
0
0
0
0
0
0
0
0
0
0
0
0
0
0
0
0
0
2475.59
736.589
1836.8
1224.26
683.038
1050.93
2316.14
3528.64
8266.4
6433.38
3702.67
6813.08
7321.17
1752.46
1053.05
2384.99
1081.28
1236.76
2211.29
1192.76
1801.48
2609.58
3366.57
1754.98
2702.1
3410.8
8129.01
3311.9
9039.24
5617.84
6703
6334.31
5509
4360.57
1915.57
6631.81
3054.26
1354.69
1319.11
1547.07
909.38
1133.79
1735.02
1024.75
1013.76
3516.58
3291.99
2128.91
1036.29
4926
7091.74
5451.91
5918.76
6928.4
4551.55
8480.29
6257.75
7363.01
7879.2
3288.2
1435.58
6791.87
4433.82
1339.74
1286.67
4111.28
3412.15
2585.6
2034.8
2489.91
7621.82
7531.79
4169.83
7513.17
4391.23
3171.25
6238.5
3564.74
1742.98
5447.5
6456.9
4775.29
8543.34
7816.68
6393.09
7591.57
9443.1
3658.9
6919.65
8196.92
8551.66
4027.56
7602.38
8101.83
4505.94
8157.55
8.68947
13.6032
0
15.6619
0.143367
0
2.18207
6.89511
0
33.4348
0
0
15.2649
116.344
75.6588
1366.78
105.959
38.225
421.294
372.438
24.0464
15.0198
24.7014
220.87
128.182
123.144
129.007
70.5893
193.123
60.2568
131.211
301.385
380.308
6307.32
6758.72
11736.1
570.136
10056.1
5636.38
442.732
21.978
563.878
546.756
47.2193
6205.31
7861.24
7700.48
10284.6
9946.77
112.571
306.628
413.134
33.6834
128.427
11374.9
12439.5
8095.39
11292.2
6110.03
11975.1
10606
12101.7
10140
696.169
5259.47
3662.7
728.918
202.779
668.786
435.106
206.114
6169.32
10047.3
7735.78
953.082
9799.81
5060.46
941.402
5248.34
82.231
422.68
6082.43
143.43
5713.46
5.15289
291.494
13.193
5.02791
8.22784
13.886
16.3387
0
0
3.90453
0
0
5.87516
64.3917
51.825
64.2871
337.662
4.33595
45.3233
27.2204
325.106
194.522
118.619
17.4043
192.854
92.4961
213.879
102.172
187.854
119.935
319.009
722.213
1020.31
238.889
9694.65
2003.84
386.38
10313.4
1554.22
813.543
29.1349
2123.07
1165.82
0
9689.15
10350.2
8845.38
9157.9
9728.68
68.5085
161.773
113.711
35.1853
89.8813
11726.3
10363.3
7887.49
8360.6
6773.64
10124.1
1929.46
6129.03
2994.2
162.352
126.72
269.655
832.637
305.472
162.739
196.266
153.101
11669.1
8788.58
5959.98
3563.66
8058.41
6593.79
6808.28
6541.23
1030.31
7651.21
4711.4
4697.37
975.305
2130.08
1139.48
14.3774
405.431
8.61758
24.7562
2864.6
370.413
0
11.2451
18.9359
14.3772
7.23725
60.7034
70.8713
458.812
563.281
499.667
265.85
353.631
305.877
310.814
286.615
390.841
188.323
74.8608
295.174
47.0426
135.667
71.1078
170.148
2197.14
3546.83
636.382
12193.2
1786.4
635.464
13471.5
1904.22
1927.41
47.0699
6428.56
3586.9
417.406
10398.9
10363.4
12348.2
9975.3
10535.9
17.7098
160.265
352.362
313.691
277.377
10694.2
12177.4
901.724
4968.39
1897.02
8458.28
859.367
4041.16
2586.08
293.311
215.799
165.317
1551.5
238.237
344.527
152.608
116.6
8541.74
8021.27
6672.89
9299.94
7928.17
6479.12
8796.55
3887.14
9283.42
8583.45
4962.06
9723.66
1973.9
276.692
3.8471
752.289
2712.7
3560.05
2176.02
1187.24
5898.73
216.593
0
28.3339
383.552
8.51302
14.908
50.0753
678.116
64.378
36.8209
167.33
127.895
38.3351
45.8994
161.166
94.1654
80.978
15.4408
184.031
20.1116
100.389
20.292
257.034
5768.16
7771.56
492.783
10765.2
725.705
40.804
3204.6
205.659
6866
2948.56
8978.12
9216.7
6590.35
6578.03
8900.42
4565.41
1101.62
3739.12
1109.72
255.175
6336.52
4073.68
1209.38
14545.4
10936.5
852.514
3819.18
3147.37
8784.31
1047.02
5996.52
5132.47
268.063
760.51
269.234
2802.89
1236.44
2106.13
1962.32
2128.08
9103.02
9970.84
7555.32
9927.65
9911.33
8795.91
9180.2
7051.73
9447.1
8132.28
7687.78
9640.63
6699.88
71.25
1109.47
1129.88
1140.44
3972.29
157.458
2181.4
1356.64
437.944
0
26.9787
304.772
5.17393
18.6875
18.8149
0
35.2237
10.4948
22.169
16.2914
251.716
133.384
44.5825
8.98383
115.487
25.4053
391.598
13.761
164.039
8.32783
759.921
8640.09
10008.1
17.4139
1849.96
569.989
533.995
819.601
858.901
9424.14
7559.3
9580.81
9591.88
2623.27
566.097
1688.47
427.719
370.932
426.311
6056.22
3964.64
9654.8
2651.7
1977.38
8934.09
3509.52
1226.11
9171.22
7342.39
3880.5
1821.62
10574.2
8408.57
4464.97
4212.56
5675.29
6765.8
5082.6
6220.48
9034.64
4429.88
11088.6
13086.9
11206.2
8792.25
12758.9
11506.4
11728
7748.09
9684.37
9289.48
8333.34
11492
10869.3
2590.59
413.018
57.1542
916.111
387.983
2.28152e-12
128.771
101.254
162.475
6.18505
6.97327
79.476
5.81945
17.1064
29.2488
133.77
560.517
1121.82
423.695
225.852
1188.14
618.249
662.744
334.882
129.611
775.352
1869.72
2.75806
176.151
2169.87
2540.66
10118.8
6147.47
663.484
242.004
312.415
254.188
177.832
30.5022
3057.2
10382.8
8521.44
7775.82
1184.3
8401.74
1904.02
18069.5
9479.85
20276.6
387.532
6398.88
660.921
4815.23
222.927
187.435
161.068
86.1907
218.615
5177.25
620.403
1796.72
7168.85
719.235
595.103
307.092
12438.3
17356.9
14399.8
886.946
4541.18
1426.24
3157.91
1348.01
1270.03
2732.65
11187.6
9602.38
581.311
3217.08
12258.5
9667.43
1784.82
6180.95
6832.99
5115.16
521.921
2048.87
1534.61
702.73
12881.6
13341.7
12231.4
10863.4
11819.3
10671.6
10908.2
7924.85
12272.1
8719.33
8005.79
11661.5
11416.7
92.0634
60.9939
59.1215
28.0085
15.0995
92.8243
21.6556
47.4168
27.5042
10.0117
12.7497
15.5396
2.4621e-14
28.3492
0
855.971
128.707
293.97
337.45
242.807
90.5667
264.833
91.0499
231.098
251.715
669.367
1548.7
5.5875
242.451
181.633
550.894
4919.95
77.7431
505.705
26.0162
0.219089
0
0
0
153.33
231.164
43.192
84.9105
109.856
60.5543
266.011
1153.29
302.575
182.117
21.4396
51.9401
37.1529
23.5117
43.6332
18.956
0
0
4.98236
0
62.3715
308.69
395.126
113.943
427.478
857.198
1353.7
303.653
3729.89
469.089
5259.23
365.998
16.6833
303.557
11.8457
29.94
2.11486
62.8855
0
1716.52
2769.05
1463.88
17388.4
9604.32
661.565
396.624
13229.4
9702.64
482.364
737.085
1202.76
4205.99
1246.79
521.923
943.495
578.676
907.138
393.607
0
75.9118
0
13281.5
12692.7
11258.1
9796.92
10234
11149.6
10698.9
7356.45
11307.7
8350.56
6374.09
11618.7
3657.23
61.4227
113.884
172.803
1.11509e-14
35.6668
48.7198
2.64201
87.8133
71.7677
15.0833
1.10432e-13
68.9956
31.5847
0.504689
276.058
28.0887
0
168.251
74.6753
140.151
37.4473
107.374
28.7319
67.1438
238.936
51.9267
208.022
356.193
169.257
59.6871
197.245
78.8309
4.27464
28.8053
0
0
0
0
0
59.8481
88.3567
128.028
59.7379
37.7786
46.7651
6.05874
0
0.0693084
5.681
0
2.6586
0.678373
0
0
0
0
0
0
0
271.581
572.826
55.4733
216.121
160.654
61.6752
5043.73
365.239
6.9903
8.54324
209.961
90.7998
0
14.7487
0
0
0
0.746681
0
2052.75
786.918
324.954
9947.93
7724.04
559.773
215.22
6974.14
3846.51
4176.56
1052.52
1428.01
801.924
3688.42
3349.44
8311.3
591.851
5495.25
280.046
0
3.96094
0
11912.9
10509.8
10736.2
11025.8
9381.15
12115.9
10127.6
5383.85
11373.7
8274.43
4959.82
12829.6
3139.5
53.8683
40.8049
65.8991
8.38639
93.3891
31.6735
11.2856
57.6027
73.5483
25.4026
117.979
84.3083
199.135
264.459
122.997
0.561457
0
66.7419
6.46245
6.99257
33.1378
54.9723
4.92944
19.3724
167.479
163.533
74.2961
105.542
30.6603
176.152
31.6376
11.6195
4.83251
14.6772
20.7496
12.2644
0
0
0.21197
0
0
0
0
0
0
0
0
0
0
0
0
0
0
33.8207
64.5488
0
0
32.0102
1.47529
48.7458
8.78972
6.60925
7.33262
14.4245
0
0
0
0
0
0
0
0
456.126
273.974
48.2462
3653.26
1596.78
100.036
5.46182
2496.06
860.689
952.436
8159.11
14560.6
36.3453
275.455
6325.85
39465.1
383.817
10481.6
4295.81
10718
10460.9
61041.3
8670.19
8855.65
5560.57
10230.9
15819
9759.26
11989.7
24804.8
42.5514
46.5636
56.0161
12.7698
97.5318
48.4303
35.6283
155.745
191.972
451.65
41.9492
144.817
153.964
95.3894
37.2593
0
0
26.118
5.32236
7.10066
0
19.8865
0
6.6121
18.5419
56.7752
6.04623
11.3055
0
12.7565
0.0555454
0
0
0.286945
0
6.36681
0
0
12.4083
0
0
0
0
0
5.56318
30.0759
12.6684
2.18082
23.9845
0
4.09405
3.3658
11.9459
0
308.19
130.692
0.128856
2136.15
621.506
49.2782
0.170532
1134.14
378.603
78.6349
1780.45
1579.49
5.59231
24.9014
317.819
490.356
13.1302
8543.88
49458.4
25043.4
7793.98
19404.5
15721.2
16471.6
13638
10592.3
6551.63
4374.7
14694.1
18671.6
37.8295
85.1493
58.3165
21.3287
87.205
40.2491
36.4025
38.5433
57.7602
0
53.2699
27.393
8.97703
0
0
0
0
45.2569
0
25.6686
0.235782
19.5173
0
8.36296
0
0
0
2.39498
0
0
0
0
0
0
0
6.38938
0
0
6.18329
0
0
0
0
0
0
18.5503
0
7.13896
28.2194
5.44732e-13
0
0
0
0
178.598
104.046
3.90325
787.323
217.119
26.5159
0.79158
375.004
139.298
2.19871
33.9438
14.1872
0
0
1.11845
0
0
2322.66
6272.68
1465.03
2673.9
2088.17
984.771
6021.28
952.422
37066.3
260.974
84.8057
1505.72
7.34608
45.7358
0.36628
52.2155
28.9315
44.6145
238.949
66.0711
56.8925
21.88
23.3917
21.0603
26.0333
3.05644
0
0
0
0
16.8138
0
6.49992
0
10.3467
5.93831
0
0
0
0
0
0
0
0
0
0
0
0
0.220551
0
0
6.06456
0
0
0
0
0
5.99948
27.9652
0
7.21754
16.1076
0
3.7839
5.49757
0
0
107.315
56.0799
0
249.282
97.5554
14.7746
7.94425e-14
153.658
85.5186
6.4255
5.80774
8.48717
0
5.08257
0.0932455
4.24532
0
2529.18
551.041
298.021
229.505
166.167
33.6249
7.13129
8.90515
47.6645
1.92037
2.71603
7.75966
3.69353
0
0
27.3022
10.1142
31.3972
25.7224
0
0
0.218346
0
0
0
0
0
0
0
0
5.60633
0
0
0
5.6051
0
18.8454
0
0
0
0
0
0
0
0
0
7.70174
0
8.83443
0
0
4.30578
0
0
0
0
0
0
6.40726
0
5.66681
13.2209
0
3.6483
0
0
0
22.1279
30.7897
6.68628
101.669
72.5729
16.4318
6.71133
78.9478
18.9127
1.84742
1.75486
7.35516
0
0.305067
7.16702e-15
0
0
72.4056
4.56652
7.51737
0
9.61082
8.35061e-15
0
0.879936
0
2.15831
1.68587
0
0
0
0
0
0
0
0
0
0
13.0278
17.0992
5.1712
4.67382
8.21275
0
0
0
0
0
0
6.14249
10.8565
0
5.88001
13.8671
0
3.58569
0
0
0
1.76672e-13
0
0
0
0
0
6.4607
0
0
6.43525
0
0
0
0
0
8.23213
13.5095
0
9.38397
6.51643
0
2.31889e-14
0
0
3.70776
12.2719
19.9699
3.58408
31.7772
12.2298
9.68888
0
16.4986
5.16893
2.20969
0.459536
0.217694
0
2.73875
0
0
0
6.28594
12.8934
0
0
9.14997
2.17873
0
0
0
1.24155
0.105013
0
0
0
0
52.4982
0
9.00295
0
0
11.1062
3.67647
3.10101
44.5997
0
8.15996
9.60836
4.83366
0
0
5.59693
0
9.94945
0
5.66345
5.12626
5.79636
0
0
0
0
0
0
0
0
0
0
0
2.45332e-14
0
0
0
0
0
0
0
0
9.09835
0
0
1.71118
0
0
2.33778
0
0
1.22323
34.2827
10.9486
4.50714
7.41034
6.78852
14.1904
2.92014
0.338469
1.04535
2.12918
0
0
0
0
1.94684
0
0
9.80996
6.56372
2.32188
8.5761
0
2.27713
3.25582e-14
0
0
0
0
0
0.527513
0
0
0
0
6.57889
0
0
19.6944
4.75438e-13
0
26.0244
3.91419e-14
0
0
0
0
0.413108
0
2.26843e-13
11.8594
0
0
5.54226
0
0
0
0
0
0
0
0
0
0
0
0
5.06528
1.78351
0
7.85902
0
0
0
0
0
6.16078
7.17524
0
0
0
0
3.565
0
0
0
0
0
0
7.77055
0
0
0
15.4266
10.7408
2.62634
0
0
0
0.0806635
0
3.91102
5.88085
6.80439
0
1.49899e-14
0
4.73097
0
0
3.21751
0
0
0
0
4.57902
0
0
0
0
0.231669
0
0
6.52035
0
7.96714
30.0434
3.52031
0
0
0
0
0
0
0
5.89014
0
4.57406e-14
5.56972
0
0
0
0
0
0
0
0
0
0
6.43974
0
0
0
0
0
0
0
0
0
0
0
0
0
0
0
0
0.183786
0
0
3.34128
0
0
0
0
3.3798
0
0
0
0
5.25231
3.74406
0
0
0
1.75959
4.01247
0
0
0
0
0
0
0
0
2.5818
0
0
0
0
0
0
0
0
0
6.36528
0
0
6.43767
5.5612
0
0
0
0
0
0
0
0
0
2.1829
9.42201
0
0
0
14.1274
0
0
0
0
0
0
0
0
0
0
0
0
0
0
2.2541
0
0
0
0
0
0
0
0
0
0
0
3.525
1.99831
0
1.2553e-13
0
11.7044
4.10843
0
0
4.58135
0.156085
6.74546
3.17253
5.38155
0
1.81411e-14
0
0.519873
0
4.15258
0
0
0
0
0
0
0
0
0
0
0
2.27442
0
0
0
14.0247
25.4642
0.238496
0
0
0.581315
10.1957
0
0
5.86215
3.8099
0
0
0
0
0
0
5.77493
3.96709
0
0
2.12896
0
0
0
0
0
0
0
0
0
0
0
0
4.00639
7.87142
0
0
0
0
0
0
0
0
6.75022
0
0
0
0
4.63728
0
0
0
0
0
3.95588
6.40461
0
5.17774
0
0
2.86603
8.17539
0
4.56699
0
0.881062
0
0
0
0
5.90756
0
0
0
0
9.01209
0
0
0
0
0
0
0
0
0
0
17.2901
24.3432
0
7.60558
5.23214
0
0
0
0
0
0
0
14.3374
0
3.79249
0
11.4489
6.41461
0
0
0
0
0
0
0
0
0
0
0
0
20.2265
0
0
0
0
0
0
0
0
0
4.51072
1.27918
0
0
0
0
0
0
0
0
1.02757e-13
0
1.84248
11.3879
0
0
0
5.18199
0
0
2.84972
0
3.24648
5.32047
0
0
0
0
0
0
0
0
0
0
0
0
0
0
0
0
0
0
0
0
11.3014
0.679433
0
1.30867e-13
0
0
0
0
0
0
0
0
0
1.4682e-13
0.223298
6.4488
0
0
11.5077
0
0
0
0
0
0
0
0
0
0
0
0
0
0
0
0
0
0
0
0
0
0
0
0
0
4.98016
0
0
0
0
3.66213
0
0
0
0
0
0
0
0
0
0
0
0
0
0
0
0
0
0
0
0
3.75174e-14
0
0
9.14805
0
0
2.57048
0
0
0
0
0.548675
19.9024
3.0118
0
0
0
5.34525
0
0
0
0
0
0
0
0
0
0
0
0
11.9915
4.9086
0
0
0
0
0
0
0
0
0
0
0
0
0
4.16574
0
0
2.08147
0
0
0
0
0
4.73835
0
0
6.10724e-14
0
0
7.31792e-14
0
0
0
0
0
0
0
0
0
0
0
0
2.8295
0.104878
0
0
0
2.45907
0
0
0
0
0
8.96861
3.60126
0
0
0
0
7.84902
3.19888
0.759269
5.99833
0
0
0
0
15.6732
0
0
5.20571
0
0
0
0
0
0
0
0
0
0
6.53109
0
0
0
10.1191
0
0
0
0
0
0
0
0
0
0
0
0
4.83944
0
0
0
0
0
0
0
0
3.8557e-13
0
0
8.03285
4.29267
0
0
0
0
0
0
0
0
0
0
0
0
0
0
0
0.635395
0
0
0
0
4.86652
0
0
0
0
0
0
0
0
0
0
0
0
0
0
0
0
0
6.6721
13.6417
0
0
1.77971
0
0
0
0
0
0
0
0
9.46878
1.26525
2.31558e-13
0
0.385799
4.74043
0
0
0
0
0
0
0
0
0
0
0
0
0
0
0
0
0
8.0366e-14
0
0
3.35894
0
0.0657425
4.06666
0
0
1.59111e-13
0
0
0
0
0
6.47529
0
0
4.83558
0
2.78721
0
4.67407
0
0
2.75174
0
0
0
5.67312
0
0
0
0
0
0
0
0
0
3.44902
0
0
0
0
0
0
0
0
0
0
0
0
9.71249
0
0
0
0
0
0
0
19.5152
0
0
0
0
0
0
0
0
0
0
0
0
0
0
0
0
0
0
0
3.11466
0
0
6.28589
0
0
0
0
0
0
4.05165
0
0
0
0
7.62202
0
0
0
6.63154
0
0
0
0
0
0
0
0
1.2767e-13
0
0
0
3.00385
3.07077
5.59612
14.0633
0
0
0
0
0
0
0
0
0
0
2.82942e-14
0
6.71388
0
0
0
0
4.92609
0
0
4.82295
0
0
0
0
0
0
0
0
26.7421
1.26821
0
0
17.9481
0
0.908952
0
0
0
0
0
0
0
0
0
0
0
0
4.16035
0.59807
0
0.859851
0
0
0
0
0
3.89685
0
0
2.54705
4.21985
0
3.7483
0
0
0
0
0
0
0
3.17045
2.07604
0
2.54892
0
0
5.47973
7.97208
3.1851
5.93334
2.44925e-13
8.1429
10.4753
4.48455
0
0
0
0
0
0
0
0
0
0.784096
0
1.71768
0
0
0
0
0
0
6.20008
0
0
0
0
0
0
0
0
0
13.8117
0
0.460653
0
11.6693
0
5.34506
0.257226
0
0
0
0
0
0
0
0
0
0
0
0
0
0
5.22539
0
0
0
0
0
1.25918
0
0
0
4.25244
0
0
0
0
6.38367
0
0
0
0
2.96609
0
0
0
2.88191
7.93149
9.96528
9.67298
3.3069
8.91739
4.72444
26.8087
39.3964
0
0.585219
0
0
1.00527e-13
0
0
3.39947
11.8034
3.45404
0
0
0
10.7513
0
0
0
5.67
0
0
0
0
0
0
0
0
0
0
0
0
0.155249
0.207367
0
0
0
4.65724
1.63074
0
0
0
0
0
0
0
0
0
0
16.1853
5.29374
0
16.0691
0
0
0
0
0
0
0
0
8.38918
4.02225
9.59714e-14
0
7.19119
0
0
4.66798
0
0
0
5.97073
1.04108e-14
0
0
5.14821
0
16.9606
5.35265
8.66131
3.78832
5.73573
7.28355
3.42268
15.5293
0
0
0
0
3.90749
3.17309
0
4.32579
0
5.87147e-14
4.33902
0
8.60795
19.9399
0
0
0
0
0
0
0
0
0
0
0
0
0
0
0
0
0
4.64914
0
0
0
7.11125
0
0
0
0
0
0
0
0
0
0
2.5006
0
2.91822
9.65743e-14
0
0.202669
0
0
0
0
0
0.860982
5.86292
6.24921
2.77044
0.984774
0
1.76973
0
0
2.60288
0
13.5753
0
0
0
2.84577
0
0
0
3.58071
5.78957
13.1003
0
3.60956
5.89335
2.49229
0
0
0
0.0762783
0
1.80569
8.1924e-15
0
7.5506
0
0
9.15969
0
0
9.4576
0
0
0
0
0
0
0
0
0
0
0
0
0
0
0
0
4.33258
1.35898e-13
0
0
0
0
0
0
0
0
0
0
0
0
0
0
0
0
4.46088
0
0
0
0
0
0
0
0
0
0
0
0
0
0
0
0
0
0
6.83359
0
2.06253
0
0
0
0.768412
0
2.45464
3.67503
0
0
0
3.71919
4.55473
0
0
0
0
0
0
0
0
0
1.1926
0
0
0
0
6.78959
0
0
0
0
0
0
0
0
0
0
0
0
0
0
0
0
0
5.00027
0
0
0
0
0
0
0
0
0
0
0
0
0
0
0
0
0
0
0
0
0
0
0
0
0
0
0
0
0
0
0
0
0
0
0
0
0
0
0
0
0
0
0
0
0
3.8448
3.81236
0
0
3.55809
0
0.501383
0
3.68735
1.16822
3.36113
0
0
0
0
5.03696
0
0
0
14.5352
0
0
2.35549
0
0
0
0
0
0
0
0
0
0
0
0
0
0
0
0
0
0
0
4.74698
0
0
0
0
0
0
0
0
0
0
0
5.50566
0
0
0
0
0
0
0
0
0
0
0
0
0
0
0
0
0
0
0
0
0
0
0
4.54468
0
0
0
0.12088
0
3.82754
0
0
0
0
0
0
0
0
0
0
0
3.62326
0
0
5.04807
0
3.91187
1.15012e-13
0
0
8.71615
0
0
0
0
0
0
0
0
0
0
0
0
0
0
0
0
0
4.62517
0
0
0
0
0
0
0
0
0
0
0
0
0
0
0
0
0
0
0
0
0
0
0
0
0
0
3.85194
0
0
0.190497
0
0
0
0
0
0
0
0
0
2.49773
0
0
0
0
0
0
0
0
0
0
0
0
2.37715e-14
0
0
0
0
0
0
10.0719
8.1489
0
0
2.97154
8.75122
11.3914
0
0
0
0
0
0
0
0
0
0
0
0
0
0
22.4423
0
2.19708e-14
0
0
17.7212
0
0
4.56907
0
0
0
0
0
0
0
0
0
0
0
4.5054
0
0
0
0
0
0
0
0
3.35052
0
0
0
0
0
0
0
0
0
0
0
0
0
0
0
5.13603
5.10902
0.0626128
0
0
0
0
0
0
0
0
0
6.08332
3.23668
0
0
0
0
0
0
0
0
0
0
0
7.80676
0
0
0
0
0
0
0
0
0
0
0
0
0
0
0
0
0
0
0
2.06379
0
0
0
0
0
0
0
0
0
0
0
0
0
0
0
0
0
0
0
0
0
0
0
0
0
0
0
0
0
0
0
0
0
0
0.17758
0
0
0
0
3.51346
0
0
0
0
0
0
0
0
0
0
0
3.12024
0
3.37795
0
0
0
0
0
0
0
0
0
0
0
0
0
0
0
0
0
0
0
0
0
0
0
0
7.02785
0
0
4.68682
0
0
1.91566
0
0
0
0
0
0
0
0
0
0
0
0
3.08064e-13
6.08978
4.11955
3.82226
0
0
0
0
0
0
0
0.365209
0
0
0
0
0
0
0
0
0
0
1.51841
0
0
3.15992
0
0
0
0
0
0
0
0
0
0
0
0
0
0
0
0
0
0
0
0
0
0
0
0
0
0
0
0
0
0
0
0
0
0
0
0
0
0
0
10.9533
0
0
0
8.80033
0
4.64401
0
0
0
0
0
0
0
0
0
0
0
7.92987
0
0.914715
0
0
0
0
0
0
0
3.45872
0
0.395845
3.12511
5.43769
0
0
0
0
0
0
0
3.35719
0
0
0
0
0
0
0
0
0
0
0
0
0
0
0
0
0
0
0
0
0
0
0
0
0
0
0
0
0
0
0
0
0
0
0
0
0
0
0
0
0
0
0
0
0
0
0
0
0
0
4.81487
0
0
0
0
0
0
0
0
0
9.138
0
0
4.8212
0
0
0
0
0
0
0
0.102985
9.72032
0
0
3.25499
0
0
0
0
0
6.73932
8.33778
1.23353
0
0.0782117
5.66055
1.60118
0
6.19102e-14
0
0
0
0
0
0
0
0
0
3.30858e-13
0
0
0
0
0
0
0
0
0
0
0
0
0
0
0
0
0
0
0
0
0
0
0
0
0
0
0
0
0
4.46373
4.64622
0
0
3.00247
0
0
0
0
0
0
0
0
0
0
0
0
0
0
0
0
0
0
0
0
0
0
10.371
0
0
1.99858
0
0
0
0
0
6.38382
21.003
0
0
1.70685
0
0
0
6.1938
0
0
0
0
0
0
0
0
3.18344
0
0
0
2.04616
0
0
0
0
0
0
0
0
0
0
0
0
0
0
0
0
0
0
0
0
0
0
0
12.6703
0
0
1.32342
0
0
0
0
0
0
0
0
0
0
0
0
0
0
0
0
3.41812
0
0
0
0
0
0
0
0
0
0
0
0
0
0
0
0
0
0
0
0
0
0
0
0
0
0
4.40682e-14
0
0
0
0
0
0
0
0
0
3.46996e-13
0
0
3.75284
0
0
0
0
0
0
0
0
0
0
0
0
0
0
0
0
0
0
0
0
0
0
0
0
0
0
0
0
0
0
0.089881
0
0
0
0
0
0
0
0
0
0
0
0
0
0
0
0
0
0
0
0
0
0
0
0
0
0
0
0
0
0
0
7.26881
6.48903
0
0
0.823211
0
0
0
3.03663
0
0
0
0
0
0
0
0
4.3299
0
0
0
0
0
0
0
0
0
0
0
0
0
0
0
0
0
0
0
0
0
0
0
0
0
0
0
0
0
0
2.73929
0
0
0
0
0.600654
0
0
0
0
0
0
0
0
0
0
0
0
0
0
0
0
0
0
0
0
0
0
0
0
3.502
0
0
0
0
0
0
6.05126
0
0
0
0
1.31082
0
7.59014e-15
0
0
0
0
0
0
0
0
0
0
0
0
0
0
0
0
0
0
0
0
0
0
0
0
0
0
0
0
0
0
0
0
0
0
0
0
0
0
0
0
1.74862
0
0
0
0
0
0
0
0
0
0
0
0
0
0
0
0
0
11.0857
0
0
0
0
0
0
0
0
0
3.2987
4.34545
0
0
0
0
0
0
0
1.47114
0
0.42245
0
0
0
0
0
0
0
0
0
0
0
0
0
0
3.47647
0
0.398002
0
0
0
0
0
0
0
0
0
0
0
0
0
0
0
0
0
0
0
0
0
0
0
0
9.25729
0
0
2.90458
0
0
1.63733
0
0
0
0
0
0
0
0
0
0
0
0
0
0
0
0
0
0
0
0
0
0
0
0
0.951628
1.71004
0
0
0
0
0
0
0
0
0
0
0
0
0
0
0
0
0
0
0
0
0
0
0
0
0
0
0
0
0
0
0
0
0
0
0
0
0
0
0
0
0
0
0
0
0
0
0
0
0
0
0
0
0
0
0
0
0
0
0
0
0
0
0
0
0
0
0
0
0
0
0
0
0
0
0
0
0
0
0
0.396572
0.886671
0
0
0
0
0
0
0
0
0.264475
3.99187
0
0
0
0
0
0
0
0
0
0
0
0
0
0
0
0
0
0
0
0
0
0
0
0
0
0
0
0
0
0
0
0
0
0
0
0
0
0
0
0
0
0
0
0
0
0
0
0
0
0
0
0
0
0
0
0
0
0
0
0
0
1.53658
0
0
1.83325
0
0
0
0
0
0
0
0
0
0
0
0
0
0
0
0
0
0
0
0
0
0
0
0
0
0
0
0
0
0
0
0
0
0
0
0
0
0
0
0
0
0
0
0
0
0
0
0
0
0
0
0
0
0
0
0
0
0
0
0
0
0
0
0
0
0
0
0
0
0
0
0
0
0
0
0
0
0
0
0
4.19175
0
3.53801
0
0
0
0
0
0
0
0
0
0
0
0
0
0
0
0
0
0
0
0
0
0
0
0
0
0
0
0
0
0
0
0
0
0
0
0
0
0
0
0
0
0
0
0
0
0
0
0
0
0
0
0
0
0
0
0
0
0
0
0
0
0
0
0
0
0
0
0
0
0
0
0
0
0
0
0
0
0
0
0
0
0
0
0
0
4.81843
0.137717
0
0
0
0
0
0.926115
0
0
0
0
0
0
0
0
0
0
0
0
0
0
0
0
0
0
0
0
0
0
0
0
0
0
0
0
0
0
0
0
0
0
0
0
0
0
0
0
0
0
0
0
0
0
0
0
0
0
0
0
0
0
0
0
0
0
0
0
0
0
0
0
0
0
0
0
0
0
0
0
0
6.75097
2.63036
0
0
0
0
0
0
0
0
0
4.99116
0
0
0
0
0
0
0
0
0
0
0
0
0
0
0
0
0
0
0
0
0
0
0
0
0
0
0
0
0
0
0
0
0
0
0
0
0
0
0
0
0
0
0
0
0
0
0
0
0
0
0
0
0
0
0
0
0
0
0
0
0
0
0
0
0
0
0
0
0
0
0
0
0
0
0
0
0
0
0
0
0
0
3.74934
0
0
2.4665
0
0
0
0
0
0
0
0
0
0
0
0
0
0
0
0
0
0
0
0
0
0
0
0
0
0
0
0
0
0
0
0
0
0
0
0
0
0
0
0
0
0
0
0
0
0
0
0
0
0
0
0
0
0
0
0
0
0
0
0
0
0
0
0
0
0
0
0
0
0
0
0
0
0
0
0
0
0
0
0
0.895619
0
0
0
0
0
0
0
0
0
0
0
0
0
0
0
0
0
0
0
0
0
0
0
0
0
0
0
0
0
0
0
0
0
0
0
0
0
0
0
0
0
0
0
0
0
0
0
0
0
0
0
0
0
0
0
0
0
0
0
0
0
0
0
0
0
0
0
0
0
0
0
0
0
0
0
0
0
2.46602e-13
0
0
0
0
0
0
0
0
4.07402e-13
0
0
0
0
0
0
0
0
0
0
0
0
0
0
0
0
0
0
0
0
0
0
0
0
0
0
0
0
0
0
0
0
0
0
0
0
0
0
0
0
0
0
0
0
0
0
0
0
0
0
0
0
0
0
0
0
0
0
0
0
0
0
0
0
0
0
0
0
0
0
0
3.35874
0
0
0
0
0
0
0
0
3.845
0
0
0
0
0
0
0
0
0
0
0
0
0
0
0
0
0
0
0
0
0
0
0
0
0
0
0
0
0
0
0
0
0
0
0
0
0
0
0
0
0
0
0
0
0
0
0
0
0
0
0
0
0
0
0
0
0
0
0
0
0
0
0
0
0
0
0
0
0
0
0
0
0
0
0
0
0
0
0
0
0
0
0
1.21294
2.65869
0
0
0
0
0
0
0
0
0
0
0
0
0
0
0
0
0
0
0
0
0
0
0
0
0
0
0
0
0
0
0
0
0
0
0
0
0
0
0
0
0
0
0
0
0
0
0
0
0
0
0
0
0
0
0
0
0
0
0
0
0
0
0
0
0
0
0
0
0
0
0
0
0
0
0
0
0
0
0
0
0
0
0
0
0
5.05544
0
0
0
0
0
0
0
0
0
0
0
0
0
0
0
0
0
0
0
0
0
0
0
0
0
0
0
0
0
0
0
0
0
0
0
0
0
0
0
0
0
0
0
0
0
0
0
0
0
0
0
0
0
0
0
0
0
0
0
0
0
0
0
0
0
0
0
0
0
0
0
0
0
0
0
0
0
0
0
0
0.353376
0
0
0
0
0
0
0
0
0
0
0
0
0
0
0
0
0
0
0
0
0
0
0
0
0
0
0
0
0
0
0
0
0
0
0
0
0
0
0
0
0
0
0
0
0
0
0
0
0
0
0
0
0
0
0
0
0
0
0
0
0
0
0
0
0
0
0
0
0
0
0
0
0
0
0
0
0
0
0
0
0
0
0
0
0
0
0
0
0
0
0
0
0
0
5.53865
0
0
0
0
0
0
0
0
0
0
0
0
0
0
0
0
0
0
0
0
0
0
0
0
0
0
0
0
0
0
0
0
0
0
0
0
0
0
0
0
0
0
0
0
0
0
0
0
0
0
0
0
0
0
0
0
0
0
0
0
0
0
0
0
0
0
0
0
0
0
0
0
0
0
0
0
0
0
0
0
0
0
0
0
0
0
0
0
0
0
0
0
0
0
0
0
0
0
0
0
0
0
0
0
0
0
0
0
0
0
0
0
0
0
0
0
0
0
0
0
0
0
0
0
0
0
0
0
0
0
0
0
0
0
0
0
0
0
0
0
0
0
0
0
0
0
0
0
0
0
0
0
0
0
0
0
0
0
0
0
0
0
0
0
0
0
0
0
0
0
0
0
0
0
0
0
0
0
0
0
0
0
0
0
0
0
0
0
0
0
0
0
0
0
0
0
0
0
0
0
0
0
0
0
0
0
0
0
0
0
0
0
0
0
0
0
0
0
0
0
0
0
0
0
0
0
0
0
0
0
0
0
0
0
0
0
0
0
0
0
0
0
0
0
0
0
0
0
0
0
0
0
0
0
0
0
0
0
0
0
0
0
0
0
0
0
0
0
0
0
0
0
0
0
0
0
0
0
0
0
0
0
0
0
0
0
0
0
0
0
0
0
0
0
0
0
0
0
0
0
0
0
0
0
0
0
0
0
0
0
0
0
0
0
0
0
0
0
0
0
0
0
0
0
0
0
0
0
0
0
0
0
0
0
0
0
0
0
0
0
0
6.02151e-13
0
0
0
0
0
0
0
0
0
0
0
0
0
0
0
0
0
0
0
0
0
0
0
0
0
0
0
0
0
0
0
0
0
0
0
0
0
0
0
0
0
0
0
0
0
0
0
0
0
0
0
0
0
0
0
0
0
0
0
0
0
0
0
0
0
0
0
0
0
0
0
0
0
0
0
0
0
0
0
2.61482
0
0
0
0
0
0
0
0
0
0
0
0
0
0
0
0
0
0
0
0
0
0
0
0
0
0
0
0
0
0
0
0
0
0
0
0
0
0
0
0
0
0
0
0
0
0
0
0
0
0
0
0
0
0
0
0
0
0
0
0
0
0
0
0
0
0
0
0
0
0
0
0
0
0
0
0
0
0
0
0
0
0
0
0
0
0
0
0
0
0
0
0
0
0
0
0
0
0
0
0
0
0
0
0
0
0
0
0
0
0
0
0
0
0
0
0
0
0
0
0
0
0
0
0
0
0
0
0
0
0
0
0
0
0
0
0
0
0
0
0
0
0
0
0
0
0
0
0
0
0
0
0
0
0
0
0
0
0
0
0
0
0
0
0
0
0
0
0
0
0
0
0
0
0
0
0
0
0
0
0
0
0
0
0
0
0
0
0
0
0
0
0
0
0
0
0
0
0
0
0
0
0
0
0
0
0
0
0
0
0
0
0
0
0
0
0
0
0
0
0
0
0
0
0
0
0
0
0
0
0
0
0
0
0
0
0
0
0
0
0
0
0
0
0
0
0
0
0
0
0
0
0
0
0
0
0
0
0
0
0
0
0
0
0
0
0
0
0
0
0
0
0
0
0
0
0
0
0
0
0
0
0
0
0
0
0
0
0
0
0
0
0
0
0
0
0
0
0
0
0
0
0
0
0
0
0
0
0
0
0
0
0
0
0
0
0
0
0
0
0
0
0
0
0
0
0
0
0
0
0
0
0
0
0
0
0
0
0
0
0
0
0
0
0
0
0
0
0
0
0
0
0
0
0
0
0
0
0
0
0
0
0
0
0
0
0
0
0
0
0
0
0
0
0
0
0
0
0
0
0
0
0
0
0
0
0
0
0
0
0
0
0
0
0
0
0
0
0
0
0
0
0
0
0
0
0
0
0
0
0
0
0
0
0
0
0
0
0
0
0
0
0
0
0
0
0
0
0
0
0
0
0
0
0
0
0
0
0
0
0
5.31901
0
0
0
0
0
0
0
0
0
0
0
0
0
0
0
0
0
0
0
0
0
0
0
0
0
0
0
0
0
0
0
0
0
0
0
0
0
0
0
0
0
0
0
0
0
0
0
0
0
0
0
0
0
0
0
0
0
0
0
0
0
0
0
0
0
0
0
0
0
0
0
0
0
0
0
0
0
0
0
0
0
0
0
0
0
0
0
0
0
0
0
0
0
0
0
0
0
0
0
0
0
0
0
0
0
0
0
0
0
0
0
0
0
0
0
0
0
0
0
0
0
0
0
0
0
0
0
0
0
0
0
0
0
0
0
0
0
0
0
0
0
0
0
0
0
0
0
0
0
0
0
0
0
0
0
0
0
0
0
0
0
0
0
0
0
0
0
0
0
0
0
0
0
0
0
0
0
0
0
0
0
0
0
0
0
0
0
0
0
0
0
0
0
0
0
0
0
0
0
0
0
0
0
0
0
0
0
0
0
0
0
0
0
0
0
0
0
0
0
0
0
0
0
0
0
0
0
0
0
0
0
0
0
0
0
0
0
0
0
0
0
0
0
0
0
0
0
0
0
0
0
0
2.86284
0
0
0.958885
0
0
0
0
0
0
0
0
0
0
0
0
0
0
0
0
0
0
0
0
0
0
0
0
0
0
0
0
0
0
0
0
0
0
0
0
0
0
0
0
0
0
0
0
0
0
0
0
0
0
0
0
0
0
0
0
0
0
0
0
0
0
0
0
0
0
0
0
0
0
0
0
0
0
0
0
0
0
0
0
0
0
0
0
0
0
0
0
0
0
0
0
0
0
0
0
0
0
0
0
0
0
0
0
0
0
0
0
0
0
0
0
0
0
0
0
0
0
0
0
0
0
0
0
0
0
0
0
0
0
0
0
0
0
0
0
0
0
0
0
0
0
0
0
0
0
0
0
0
0
0
0
0
0
0
0
0
0
0
0
0
0
0
0
0
0
0
0
0
0
0
0
0
0
0
0
0
0
0
0
0
0
0
0
0
0
0
0
0
0
0
0
0
0
0
0
0
0
0
0
0
0
0
0
0
0
0
0
0
0
0
0
0
0
0
0
0
0
0
0
0
0
0
0
0
0
0
0
0
0
0
0
0
0