/*--------------------------------*- C++ -*----------------------------------*\
| =========                 |                                                 |
| \\      /  F ield         | OpenFOAM: The Open Source CFD Toolbox           |
|  \\    /   O peration     | Version:  5.x                                   |
|   \\  /    A nd           | Web:      www.OpenFOAM.org                      |
|    \\/     M anipulation  |                                                 |
\*---------------------------------------------------------------------------*/
FoamFile
{
    version     2.0;
    format      ascii;
    class       volVectorField;
    location    "6.15";
    object      U;
}
// * * * * * * * * * * * * * * * * * * * * * * * * * * * * * * * * * * * * * //

dimensions      [0 1 -1 0 0 0 0];

internalField   nonuniform List<vector> 
10571
(
(-0.0119261 0.147006 0.576703)
(0.0232883 0.0547297 0.457032)
(-0.0185059 0.0253648 0.654546)
(-0.0499617 0.00588341 0.711759)
(-0.0507564 -0.0382739 0.566805)
(-0.00547748 0.051514 0.64639)
(-0.187257 -0.0544489 0.870835)
(-0.317997 -0.258376 1.73713)
(-0.296494 -0.295848 1.55768)
(-0.0516846 0.0129413 0.710057)
(0.205729 0.0687128 0.755751)
(0.0290487 -0.0226236 0.621774)
(-0.1995 0.277698 0.969212)
(-0.160432 0.231257 0.981591)
(-0.0600537 0.217996 0.903878)
(-0.0284023 0.11554 0.692401)
(0.12863 -0.0326605 0.625464)
(0.0444721 0.0748288 1.27122)
(-0.0887794 0.273374 1.01654)
(-0.110434 0.110361 0.798313)
(-0.0965998 0.0264767 0.577283)
(0.0700714 -0.0871219 0.61861)
(-0.00936901 -0.0420802 0.590584)
(-0.0782857 -0.0483711 0.546858)
(-0.0830837 -0.00719939 0.660485)
(-0.111733 0.0686552 0.440237)
(-0.183367 0.0540231 0.533353)
(-0.192133 -0.00866766 0.860745)
(0.00175966 -0.021077 0.559108)
(-0.0956396 0.219674 0.513274)
(0.0344162 0.0508749 0.247897)
(0.0556982 0.0652463 0.27594)
(0.0135133 0.0333959 0.302511)
(-0.123319 -0.00809542 0.541405)
(0.144496 0.53899 0.940832)
(0.193941 0.551845 0.593685)
(0.0356687 0.00467746 0.291345)
(0.0207143 -0.0105711 0.154364)
(-0.00185371 -0.0453915 0.226728)
(-0.0247997 0.00814465 0.322989)
(0.359109 0.603597 0.782908)
(-0.00545657 0.0511608 0.352833)
(0.0189455 0.0121989 0.256414)
(-0.0483456 0.178824 0.572612)
(-0.0880643 0.319474 0.682402)
(0.529895 0.709761 1.25385)
(-0.26992 0.935872 1.75582)
(-0.423288 0.680384 0.895442)
(-0.0303308 -0.0409171 0.390194)
(-0.0326944 -0.0190518 0.266096)
(-0.120113 -0.00120512 0.39767)
(0.0514479 0.0173171 0.585828)
(0.155808 0.0422263 0.364073)
(-0.00560196 -0.0840732 0.337229)
(0.147809 0.149848 0.618144)
(0.0265263 0.185522 0.642843)
(0.00125382 0.0386625 0.680292)
(-0.00472815 -0.00177384 0.409737)
(-0.0108788 -0.0365954 0.30344)
(-0.054232 -0.099681 0.485792)
(0.227455 -0.0514914 0.384955)
(0.0281015 -0.0550968 0.499551)
(-0.0194091 -0.108572 0.543838)
(-0.00492805 -0.0476787 0.232613)
(-0.18271 -0.0354337 0.910721)
(0.151875 -0.196511 0.288016)
(-0.0171099 -0.181986 0.222501)
(-0.0251518 -0.152639 0.277617)
(0.081469 -0.0569333 0.394542)
(0.0601048 -0.695197 1.77092)
(0.111408 -0.998337 2.45274)
(0.0533189 -0.182055 1.31046)
(-0.00148579 -0.0268197 0.800783)
(0.0293397 0.00238849 0.16699)
(0.267162 0.0756035 0.61471)
(-0.0512793 0.0278284 0.777849)
(-0.232572 -0.0633162 0.286677)
(0.0577312 0.211276 0.470123)
(0.372788 0.50938 0.875912)
(-0.168754 0.35851 0.873502)
(-0.278845 0.275007 0.563987)
(0.0446536 0.0570697 0.260125)
(0.00215478 0.10638 0.786306)
(0.114888 0.285846 0.804129)
(0.256979 0.315671 1.14087)
(-0.219603 0.234062 0.740587)
(-0.320363 -0.133934 0.690413)
(-0.2815 0.114785 -0.159625)
(0.126944 0.0809435 1.22373)
(0.314006 -0.271234 1.48117)
(-0.403321 -0.0258018 1.16657)
(-0.378288 0.230534 0.335974)
(-0.0845294 0.171371 0.379069)
(0.0354447 -0.0497152 1.64098)
(0.023608 -0.00199366 2.00695)
(-0.133682 0.142466 1.52896)
(-0.0121291 0.00229414 0.49282)
(-0.0119451 0.045902 0.144773)
(0.020986 0.0872247 0.223369)
(-0.00608534 0.0915677 0.334681)
(0.0211143 0.134071 -8.30361e-05)
(0.0395321 0.0376044 0.133242)
(0.175068 0.18379 0.399319)
(-0.0569281 0.144936 0.518112)
(-0.0567364 0.149372 0.328876)
(-0.00329888 0.0762042 0.245788)
(0.0244032 0.0262696 0.46027)
(0.0463426 0.0177141 0.341672)
(0.135341 0.0854923 0.678222)
(0.00899544 0.0971928 0.554776)
(-0.0369249 -0.073511 0.347876)
(0.0604277 -0.0716315 -0.268064)
(-0.014447 0.0611707 0.506425)
(0.142072 -0.137339 0.736786)
(-0.00323213 -0.0406309 0.600207)
(0.303887 -0.101587 -0.00248061)
(0.00271293 -0.0719608 -0.0735969)
(-0.108738 -0.30652 0.403089)
(-0.00776745 -0.170871 0.788284)
(0.0493226 -0.0415157 0.857005)
(-0.00266603 0.00131854 0.41854)
(0.0035145 0.0237681 0.0688592)
(0.0100182 0.119571 0.156045)
(-0.0140369 0.10814 0.268749)
(0.0169673 0.0570252 -0.0755699)
(0.0509505 -0.0701543 0.191717)
(0.160471 0.130479 0.583404)
(-0.0441502 0.107068 0.685408)
(-0.0421964 0.120857 0.431632)
(0.0637121 0.0301716 0.166885)
(-0.143 0.0400292 -0.000251985)
(0.025367 -0.0533662 0.308431)
(0.0658196 -0.135087 0.250547)
(0.135327 0.0515221 0.91304)
(0.0375936 0.0720886 0.755089)
(0.0396147 -0.120362 0.465631)
(0.069512 -0.12485 -0.00396735)
(0.105716 -0.0284582 0.137775)
(-0.0697079 -0.109979 0.391482)
(0.159324 -0.153093 1.01915)
(0.0117196 -0.082084 0.825757)
(0.264664 -0.130068 0.217295)
(0.119221 -0.0887302 -0.0756174)
(0.0653872 0.0959097 0.522373)
(-0.0295714 -0.155744 0.752908)
(0.193879 -0.109939 0.658449)
(0.0278398 0.0190904 0.392576)
(0.0943161 -0.0943201 0.0436762)
(0.0722316 0.0693414 0.0818735)
(-0.00228182 0.10616 0.26949)
(-0.0493786 0.00449254 -0.0718799)
(0.0900807 -0.148515 0.241069)
(0.157326 0.100876 0.563289)
(-0.0208712 0.0559054 0.703508)
(-0.0383553 0.0250033 0.456148)
(-0.0815407 -0.0778105 0.128547)
(-0.0134232 0.0126205 0.0151786)
(-0.011919 -0.186007 0.272693)
(0.0570757 -0.236012 0.280897)
(0.175358 -0.00766875 0.952001)
(0.0498967 0.0163179 0.865847)
(0.0824852 -0.144087 0.544327)
(0.00548799 -0.162747 0.081282)
(0.0480874 -0.0509466 0.140778)
(-0.0645864 -0.150097 0.283297)
(0.173011 -0.165766 0.967314)
(0.0126905 -0.110218 0.820897)
(0.154629 -0.155241 0.326487)
(0.0312979 -0.0824683 -0.0490185)
(-0.0703725 -0.0465728 -0.0968512)
(0.0970511 0.0737894 0.471301)
(0.00585837 -0.126399 0.579929)
(0.171715 -0.0700391 0.367885)
(0.0571601 0.0272183 0.355156)
(0.113655 -0.112527 0.0567962)
(0.109929 -0.0106577 0.0900373)
(0.00800234 0.0928344 0.263525)
(-0.0516233 -0.024024 0.00159315)
(0.106783 -0.171484 0.247945)
(0.14086 0.0497135 0.59656)
(-0.0171636 -0.0287188 0.757509)
(0.0081013 -0.0431954 0.506763)
(-0.0578123 -0.0804952 0.171517)
(0.0676041 -0.0251686 0.0419652)
(-0.0133202 -0.157306 0.247485)
(0.078091 -0.191052 0.275842)
(0.156953 -0.064317 0.93669)
(0.051962 -0.0295173 0.897725)
(0.113861 -0.112348 0.588203)
(0.00992171 -0.161269 0.145078)
(0.000544027 -0.0239782 0.128626)
(0.0409191 -0.0707142 0.0986525)
(0.162478 -0.1893 0.902723)
(0.00292885 -0.143425 0.796507)
(0.116574 -0.11865 0.377048)
(0.0456154 -0.0723676 -0.00894332)
(-0.0346178 0.0196532 -0.10794)
(-0.0154807 0.00851047 0.360713)
(0.0650609 -0.189167 0.463722)
(0.156631 -0.0536709 0.292922)
(0.0629499 0.0189234 0.346781)
(0.0746963 -0.0624692 0.0586266)
(0.0916117 -0.0477167 0.143096)
(-0.0255359 0.0559119 0.272857)
(-0.0466383 -0.0477154 0.0750962)
(0.116462 -0.132465 0.229767)
(0.0483497 -0.0366163 0.665793)
(-0.0270787 -0.0996975 0.776588)
(0.0574873 -0.103856 0.536988)
(-0.032217 -0.0909855 0.194492)
(0.115616 -0.0626818 -0.0316814)
(-0.000694238 -0.0631036 0.173613)
(-0.0127271 -0.0825622 0.240103)
(0.105417 -0.0766487 0.94129)
(0.0315582 -0.0390849 0.913062)
(0.137805 -0.0570509 0.604592)
(0.0595014 -0.136311 0.192939)
(0.0671197 0.0192928 0.0781714)
(0.0679781 -0.00144112 0.0256188)
(0.143626 -0.208662 0.863826)
(-0.0251949 -0.137907 0.792451)
(0.087639 -0.055443 0.382062)
(0.0409217 -0.066348 0.0468475)
(-0.0405275 0.0416034 0.291853)
(0.0479912 -0.0566407 0.363416)
(0.10753 -0.0422272 0.259758)
(0.0432415 0.00735388 0.347844)
(-0.0233537 0.0079479 0.0521488)
(0.0395728 -0.0974777 0.222451)
(-0.0318116 0.0127654 0.297403)
(-0.0519272 -0.0627369 0.149875)
(0.0790769 -0.0867386 0.240333)
(-0.0241496 -0.0912009 0.684628)
(-0.0399332 -0.130616 0.730858)
(0.0709715 -0.123846 0.510954)
(-0.0414851 -0.0727923 0.20938)
(0.0114156 0.0338219 0.124103)
(-0.0582008 -0.0501137 0.213985)
(0.0151877 -0.0464294 0.936603)
(0.015977 -0.0320712 0.900189)
(0.132596 -0.0247966 0.554259)
(-6.2974e-05 -0.0419053 0.198814)
(0.0489385 0.0522982 0.029483)
(0.0989218 -0.191999 0.795276)
(-0.0459133 -0.0914258 0.763683)
(0.0719308 -0.00330517 0.381952)
(0.0305858 -0.0913116 0.117378)
(-0.0142239 0.0868777 0.236364)
(0.021506 0.0243361 0.304635)
(0.039481 -0.016593 0.181157)
(0.0292208 0.00550813 0.373148)
(-0.0573268 0.0379367 0.0801378)
(0.0339344 -0.150611 0.308675)
(-0.0194926 0.0155458 0.323658)
(-0.0512124 -0.0473296 0.223662)
(0.0500593 -0.077312 0.247652)
(-0.0450952 -0.126504 0.648459)
(-0.0344313 -0.143951 0.662868)
(0.0713799 -0.120577 0.505248)
(-0.0383999 -0.031594 0.235963)
(0.00868619 0.109262 0.0967399)
(-0.0316643 -0.0254754 0.213812)
(-0.0265351 -0.0236904 0.893846)
(0.00657847 -0.0236436 0.838391)
(0.130649 -0.0229091 0.534817)
(0.0459376 -0.0269662 0.249648)
(0.0302208 0.0819297 0.0835719)
(0.00637918 -0.0870659 0.71532)
(0.00345586 -0.0413916 0.71687)
(0.0689411 -0.0111194 0.372709)
(-0.00228766 -0.0465408 0.160591)
(-0.00436738 0.099179 0.217125)
(-0.00444243 0.0394018 0.308258)
(0.0108686 0.0113912 0.134683)
(0.0310918 0.00560164 0.386369)
(-0.0683747 0.0732449 0.0705214)
(0.0260826 -0.164458 0.393412)
(-0.00615352 0.0206214 0.363823)
(-0.0423828 -0.0301154 0.292726)
(-0.0380191 0.0285462 0.206623)
(-0.0559454 -0.170411 0.624875)
(-0.0157307 -0.142726 0.618434)
(0.0637901 -0.111551 0.507663)
(-0.0380073 0.00384753 0.239681)
(0.00566225 0.1445 0.129149)
(-0.0101834 0.0571415 0.240778)
(-0.055686 -0.0574246 0.811643)
(0.0425246 -0.0413802 0.739475)
(0.125173 -0.042911 0.522951)
(0.0416713 0.0104174 0.293523)
(0.0245054 0.0929156 0.162507)
(-0.0474745 0.0295044 0.634351)
(0.0849153 -0.0403656 0.653535)
(0.0639473 -0.0464295 0.363137)
(-0.0322513 0.0210605 0.20026)
(-0.00797419 0.086505 0.258743)
(-0.0287348 0.0440984 0.336994)
(-0.0153032 0.0159082 0.14181)
(0.0366954 0.00226285 0.394802)
(-0.0918814 0.0909857 0.0542259)
(-0.0123708 -0.136512 0.460349)
(0.012856 -0.00586323 0.413909)
(-0.0375677 -0.0213352 0.351951)
(-0.0908408 0.114225 0.129953)
(-0.0500699 -0.203697 0.620003)
(-0.0096806 -0.128554 0.59066)
(0.039538 -0.106456 0.508223)
(0.0211895 0.0371222 0.282992)
(0.000665501 0.153692 0.209233)
(-0.0356989 0.0898383 0.244791)
(-0.0598219 -0.133852 0.700633)
(0.0696575 -0.0757325 0.657658)
(0.0936759 -0.0743067 0.515532)
(0.0147301 0.0449801 0.314079)
(0.0263634 0.0861021 0.232204)
(-0.0275089 0.0537188 0.550542)
(0.0961426 -0.0571459 0.602139)
(0.0581617 -0.0440405 0.360355)
(-0.048068 0.092515 0.249243)
(-0.018839 0.0592713 0.343903)
(-0.0618549 0.0335012 0.358738)
(-0.0493807 0.0272451 0.176153)
(0.0446509 -0.0113985 0.428829)
(-0.108125 0.100812 0.0647882)
(-0.0251429 -0.117648 0.472378)
(0.0486917 -0.0168862 0.453456)
(-0.0369647 0.0169424 0.377968)
(-0.129055 0.146079 0.113749)
(-0.0307614 -0.204163 0.613251)
(-0.0196417 -0.102949 0.584827)
(0.0145851 -0.0959181 0.500208)
(0.0459536 0.103903 0.309452)
(-0.00142747 0.119274 0.315356)
(-0.0524956 0.101861 0.249879)
(0.00295789 -0.173396 0.591993)
(0.0545109 -0.105926 0.606203)
(0.051512 -0.0852475 0.50503)
(-0.00922477 0.0978226 0.321332)
(0.0183212 0.0565251 0.287402)
(0.0153039 -0.0100507 0.480671)
(0.0457565 -0.040926 0.557493)
(0.0196843 -0.0130967 0.360308)
(-0.0573373 0.113255 0.295678)
(-0.0251342 0.0246963 0.419748)
(-0.0834035 0.0290602 0.374254)
(-0.0637584 0.0419554 0.209753)
(0.00284676 -0.00832465 0.491896)
(-0.110769 0.0957617 0.0933687)
(-0.0972319 -0.0820361 0.422985)
(0.0850652 0.0239058 0.478861)
(-0.0248374 0.056504 0.374978)
(-0.112059 0.157104 0.153718)
(0.0243327 -0.168233 0.601928)
(-0.0300419 -0.0751271 0.611225)
(-0.00638271 -0.054718 0.496668)
(0.00625322 0.136526 0.258772)
(0.00236941 0.0470811 0.369431)
(-0.0388454 0.10061 0.287249)
(0.0820627 -0.131786 0.515169)
(0.0299792 -0.115094 0.592758)
(0.0165542 -0.0742743 0.500497)
(-0.0358182 0.0936068 0.344279)
(-0.00360351 -0.0144645 0.331164)
(0.0435005 -0.0768177 0.433408)
(-0.00433006 -0.00817536 0.510825)
(-0.0132946 0.00197636 0.372883)
(-0.0574205 0.0998754 0.296186)
(-0.0159254 -0.0157121 0.441983)
(-0.0829378 0.0443846 0.377691)
(-0.0531937 0.0425745 0.2263)
(-0.0226139 0.0192253 0.419774)
(-0.073885 0.0562672 0.136912)
(-0.1329 0.0401274 0.289773)
(0.0840028 0.0285933 0.50152)
(0.0261121 0.0578177 0.35525)
(-0.00582808 0.100305 0.257202)
(0.0762938 -0.056331 0.602824)
(-0.0351223 -0.0843825 0.663001)
(-0.0378868 0.0180238 0.501978)
(-0.0456396 0.0724283 0.217243)
(-0.00197949 0.00254292 0.361114)
(-0.0190847 0.0853434 0.333808)
(0.123443 -0.034736 0.49586)
(0.0202524 -0.113168 0.59982)
(-0.0191572 -0.0258804 0.507617)
(-0.0253431 0.029394 0.349587)
(-0.018362 -0.0575852 0.34735)
(0.0536348 -0.0933489 0.407473)
(-0.0105549 -0.0104236 0.471736)
(-0.00542517 0.0037945 0.390117)
(-0.0347637 0.0640373 0.245561)
(-0.0248659 -0.038646 0.377781)
(-0.0272586 0.0564817 0.397279)
(-0.0243096 0.0203851 0.220464)
(-0.0131535 -0.0121405 0.344255)
(0.00485481 -0.0161861 0.209397)
(-0.124234 0.121927 0.162631)
(0.0191898 -0.0198737 0.488572)
(0.0883754 0.0242767 0.334235)
(0.0713146 0.0159874 0.334318)
(0.0217531 0.0602191 0.597528)
(-0.0392519 -0.106663 0.751511)
(-0.0379177 0.0902853 0.51617)
(-0.0692247 0.0636468 0.204355)
(-0.00530631 -0.0243016 0.355477)
(-0.00348042 0.0449012 0.382901)
(0.0963765 0.0783945 0.517558)
(0.0127349 -0.115564 0.620553)
(-0.0463334 0.0416681 0.522468)
(-0.0110477 0.0293508 0.317845)
(-0.0138735 -0.0543533 0.338739)
(0.0523272 -0.0725924 0.403975)
(-0.00317284 -0.040167 0.44839)
(-0.00190614 0.023087 0.420169)
(-0.00226764 0.0290367 0.234003)
(-0.0469973 -0.00276533 0.273678)
(0.0645869 0.01135 0.409226)
(0.00404076 -0.00888227 0.223009)
(0.0136665 -0.0184995 0.421928)
(0.0613313 -0.0570399 0.264064)
(-0.0707042 0.0992507 0.13045)
(-0.00394248 -0.0959897 0.334866)
(0.0998348 -0.00234811 0.318036)
(0.0791852 -0.034269 0.371193)
(-0.0643804 0.154762 0.591754)
(-0.0402365 -0.0528196 0.820714)
(-0.00307532 0.163916 0.526091)
(-0.0774481 0.0747897 0.197753)
(-0.00479856 -0.0451528 0.335399)
(0.0177271 -0.0116251 0.433998)
(0.0242413 0.168258 0.544811)
(0.00512258 -0.109005 0.649336)
(-0.0468758 0.100236 0.537582)
(0.00941968 0.0278943 0.304175)
(-0.0228041 -0.0345485 0.327877)
(0.0341568 0.00787887 0.440391)
(-0.0055948 -0.0603327 0.450901)
(-0.0224551 0.0621774 0.459436)
(0.0245585 -0.00339228 0.257313)
(-0.0235423 0.0250686 0.21749)
(0.099291 -0.0624461 0.359113)
(0.0149857 -0.0250037 0.242326)
(0.0519833 0.00726057 0.412293)
(0.086198 -0.0757522 0.268123)
(0.0135122 0.0758379 0.131918)
(-0.0020386 0.017569 0.240633)
(0.0638921 -0.0182736 0.332421)
(0.0782376 -0.0827748 0.395368)
(-0.109639 0.211709 0.580537)
(-0.0389722 0.080381 0.849684)
(0.015451 0.212623 0.524877)
(-0.0802026 0.063811 0.198701)
(-0.00804331 -0.0689615 0.311566)
(0.0100658 -0.0287419 0.463015)
(-0.038019 0.208056 0.566682)
(0.00111408 -0.0543374 0.684916)
(-0.0317858 0.131243 0.555793)
(0.0283081 0.00329655 0.320661)
(-0.0585908 -0.0312564 0.325955)
(0.0193104 0.0654181 0.494397)
(-0.0148692 -0.0566014 0.466395)
(-0.0479283 0.0884434 0.493077)
(0.0413725 -0.0366916 0.278174)
(-0.00787998 0.0354966 0.216954)
(0.0978736 -0.0876573 0.294649)
(0.0134999 -0.0247358 0.268685)
(-0.000602325 0.019253 0.27051)
(0.0890815 -0.0795089 0.240326)
(0.0822543 0.0526427 0.131351)
(0.0195192 0.101174 0.193152)
(0.0253105 0.0229052 0.351062)
(0.0784953 -0.117349 0.405139)
(-0.11768 0.22653 0.539523)
(-0.0314472 0.181651 0.817721)
(0.00997757 0.219667 0.521718)
(-0.0657124 0.0189204 0.200826)
(-0.011316 -0.0851722 0.309718)
(-0.0264887 -0.0321456 0.465874)
(-0.0616173 0.209684 0.593945)
(-0.000164298 0.0963443 0.735964)
(-0.0160327 0.127266 0.580412)
(0.0346716 -0.0187052 0.35025)
(-0.0962215 -0.039222 0.331182)
(0.0098926 0.0620268 0.537634)
(-0.0280551 0.00514266 0.524186)
(-0.0668772 0.0832233 0.513587)
(0.0472244 -0.0611313 0.291867)
(-0.00203604 0.0384164 0.22721)
(0.0688495 -0.0378694 0.282157)
(0.0204888 -0.0221073 0.283356)
(0.0153814 0.0090292 0.19487)
(0.0898007 -0.0873439 0.196308)
(0.123358 0.0205075 0.122157)
(0.0421548 0.10207 0.166805)
(0.002796 0.0393178 0.325057)
(0.068277 -0.131684 0.40375)
(-0.0946318 0.198407 0.502512)
(-0.0124338 0.235914 0.74999)
(-0.00541242 0.205173 0.518215)
(-0.0386242 -0.0101815 0.201004)
(-0.0127526 -0.0743381 0.320075)
(-0.0650356 -0.0721831 0.458073)
(-0.0551537 0.185215 0.625596)
(0.000848681 0.173391 0.759643)
(-0.00198858 0.0782335 0.620413)
(0.0298243 -0.0251006 0.376809)
(-0.110768 -0.0509489 0.337555)
(-0.0164159 0.0151486 0.559871)
(-0.0254231 0.0878665 0.60986)
(-0.0642369 0.0573057 0.518059)
(0.0328554 -0.0540071 0.301105)
(-0.0010375 0.0419964 0.232915)
(0.0399994 -0.00844952 0.302126)
(0.0425034 -0.0235493 0.281769)
(0.01347 0.00416073 0.176253)
(0.0903195 -0.0936886 0.141511)
(0.132198 -0.00535682 0.118308)
(0.0533859 0.0852014 0.158057)
(-0.00648548 0.0077015 0.28326)
(0.0278882 -0.119707 0.398043)
(-0.0484112 0.112673 0.474493)
(0.0118337 0.215564 0.685037)
(-0.0263117 0.135357 0.531996)
(-0.00767697 -0.0187244 0.20322)
(-0.00847954 -0.031889 0.331195)
(-0.0614065 -0.102393 0.470041)
(-0.0316941 0.0920523 0.664044)
(-0.000271582 0.184125 0.782969)
(0.0107377 -0.00196805 0.670526)
(0.0201933 -0.0255232 0.38431)
(-0.0695511 -0.0390772 0.358476)
(-0.0674803 -0.0366426 0.550341)
(-0.0025478 0.104018 0.668297)
(-0.0171079 0.00667478 0.521188)
(0.0144771 -0.0279906 0.299785)
(0.00406868 0.0464375 0.239519)
(0.0196588 0.00513589 0.335272)
(0.0596945 -0.025016 0.283078)
(0.00132323 -0.000214065 0.18983)
(0.0656366 -0.0620787 0.107524)
(0.114966 -0.00891512 0.13187)
(0.0529758 0.0580897 0.172127)
(-0.0170259 -0.0335943 0.243451)
(0.00980233 -0.0553464 0.383396)
(-0.0263143 0.0475313 0.469292)
(0.00207079 0.143773 0.629715)
(-0.0332729 0.0524708 0.546617)
(0.0236029 -0.0198544 0.208743)
(0.000886203 0.00526027 0.321393)
(-0.0485638 -0.0765721 0.476773)
(-0.0208312 -0.018962 0.683573)
(0.00198987 0.168117 0.799006)
(0.0166931 -0.0374079 0.691834)
(0.014861 -0.0228663 0.37713)
(0.0255815 0.019563 0.378768)
(-0.0969205 -0.0474301 0.519816)
(0.0296181 0.0721818 0.695023)
(0.0424313 -0.0133444 0.537051)
(0.00791858 -0.00999647 0.305041)
(0.0151847 0.0425438 0.249181)
(0.00825895 0.0124585 0.358227)
(0.0581481 -0.0204957 0.287463)
(-0.00355532 -0.00297102 0.216332)
(0.0260653 -0.0205833 0.0997679)
(0.08741 -0.00145303 0.160401)
(0.048331 0.0311304 0.208977)
(-0.0253031 -0.0580009 0.21255)
(0.0322233 -0.0601842 0.331466)
(-0.0255088 0.018086 0.47697)
(-0.0377912 0.0750739 0.579084)
(-0.0292082 0.0131102 0.516465)
(0.0493055 -0.024759 0.220113)
(0.00414014 0.0456728 0.317872)
(-0.0453453 -0.0240422 0.45472)
(-0.0226326 -0.0621212 0.687159)
(0.00893522 0.123193 0.808951)
(0.0198091 -0.0401523 0.694548)
(0.0174382 -0.0162029 0.372875)
(0.0646647 0.060961 0.374344)
(-0.0894104 -0.0359896 0.489379)
(0.0475411 0.0353635 0.687531)
(0.0772072 -0.0138476 0.560199)
(0.00997141 -0.00325684 0.326753)
(0.0250789 0.0323983 0.265196)
(0.00336626 0.0234986 0.373239)
(0.0424965 -0.0101468 0.299775)
(0.000374263 -0.00373934 0.230221)
(-0.000888265 0.0076781 0.0989949)
(0.0496027 0.0107 0.1888)
(0.025462 0.0175817 0.261061)
(-0.0278716 -0.0453357 0.199395)
(0.0209523 -0.0580021 0.226059)
(-0.0201823 0.010055 0.485947)
(-0.0666327 0.0347001 0.546416)
(-0.0232637 -0.00826676 0.454392)
(0.0560649 -0.0336018 0.242426)
(0.00368414 0.0668866 0.335034)
(-0.0492696 0.0648138 0.473083)
(-0.0246919 -0.0642264 0.686235)
(-0.000100392 0.0799952 0.803523)
(0.0246454 -0.0276851 0.691373)
(0.0214737 -0.0149752 0.377043)
(0.0637227 0.0838028 0.380573)
(-0.0464237 -0.0114565 0.459594)
(0.0380062 0.0201566 0.660037)
(0.0818899 -0.00888965 0.570786)
(0.017611 -0.00141438 0.366073)
(0.0301781 0.020401 0.289134)
(-0.00053367 0.0379649 0.391257)
(0.0288488 -0.00390397 0.324215)
(0.00888424 -0.00256599 0.231979)
(-0.00898607 0.0205822 0.0896832)
(0.00024464 0.0163396 0.213689)
(-0.0169102 0.0126023 0.304128)
(-0.0320637 -0.0176971 0.199039)
(0.0328541 0.00271691 0.178617)
(-0.00550569 0.00567251 0.505693)
(-0.070944 0.0198383 0.533304)
(-0.0175355 -0.0169562 0.391189)
(0.038144 -0.0448369 0.268296)
(-0.00202816 0.0515904 0.337159)
(-0.035913 0.0947849 0.481464)
(-0.033856 -0.0515418 0.682757)
(-0.025426 0.048197 0.788149)
(0.0250317 0.0187502 0.661241)
(0.0220841 -0.034498 0.386092)
(0.0507325 0.0998082 0.406702)
(0.00693555 0.00959611 0.445405)
(0.0174241 0.0194655 0.632135)
(0.0701519 0.0157495 0.569757)
(0.0293142 -0.00345546 0.415103)
(0.029345 0.00901116 0.323531)
(-0.0056075 0.0496494 0.41986)
(0.0166031 0.000856886 0.360565)
(0.0207101 -0.00133798 0.234669)
(-0.00961183 0.0166239 0.0793255)
(-0.0415225 0.0143455 0.241644)
(-0.0417019 0.00700245 0.327746)
(-0.0353539 -0.00928005 0.209631)
(0.0236747 0.0482375 0.176296)
(0.00446742 -0.0183206 0.547364)
(-0.0614568 0.0185539 0.526655)
(-0.014305 -0.0197177 0.339937)
(0.00868536 -0.0600465 0.285294)
(0.00247051 -0.0326732 0.297787)
(0.00405578 0.0616821 0.44406)
(-0.0539932 -0.0205509 0.673997)
(-0.0374682 0.0197748 0.769068)
(0.0161108 0.0440487 0.615124)
(0.0144231 -0.0596368 0.39395)
(0.0436887 0.0953153 0.422727)
(0.048688 0.0115822 0.44863)
(0.0073756 0.0202457 0.619082)
(0.0357482 0.0546464 0.570725)
(0.0417445 -0.0252934 0.456577)
(0.0125036 -0.000642467 0.366217)
(-0.0109763 0.0517399 0.454238)
(0.00365298 0.00685587 0.406399)
(0.0323641 0.00103811 0.239035)
(-0.00708927 0.000563483 0.0801949)
(-0.0606421 0.00448789 0.262988)
(-0.0403313 0.0209758 0.342634)
(-0.0201395 0.00787629 0.234868)
(-0.00459223 0.0621667 0.191494)
(-0.0090169 -0.0421241 0.572224)
(-0.0443808 0.0162487 0.522643)
(-0.0163389 -0.0243865 0.305554)
(-0.0186709 -0.0743488 0.287448)
(0.00395704 -0.0361408 0.215371)
(0.0692346 -0.0432468 0.406995)
(-0.0508791 0.00625756 0.664052)
(-0.0231615 0.00106293 0.750565)
(0.0104781 0.0360353 0.584768)
(0.00392115 -0.0688407 0.396784)
(0.00606251 0.0310135 0.418965)
(0.0641543 -0.00724612 0.462391)
(0.00549258 0.0197969 0.618226)
(0.0196609 0.0521914 0.570726)
(0.0496522 -0.0593739 0.467674)
(-0.0193237 -0.0107013 0.406197)
(-0.0230621 0.0346227 0.471262)
(-0.00718547 0.0101214 0.44155)
(0.0358857 0.00402033 0.240943)
(-0.00468738 -0.0117668 0.0971925)
(-0.0477481 -0.0199726 0.270126)
(-0.011172 0.0313295 0.337086)
(0.00546463 0.0297055 0.26449)
(-0.0255769 0.0513139 0.228566)
(-0.0261714 -0.0502068 0.585714)
(-0.0405487 0.00651131 0.518901)
(-0.0233721 -0.0273137 0.290288)
(-0.0385908 -0.0793523 0.276934)
(-0.00549064 -0.0157587 0.186425)
(0.0373932 -0.0961648 0.395406)
(-0.0253366 0.0207489 0.661046)
(-0.00352427 0.0109145 0.735907)
(0.00941835 0.0281251 0.574577)
(-0.00392504 -0.0734184 0.383993)
(-0.0351632 -0.044086 0.38075)
(0.0491661 -0.033356 0.47195)
(0.0035084 0.0201318 0.625458)
(0.0141884 0.0351383 0.572046)
(0.0327823 -0.0656544 0.454139)
(-0.0510383 -0.0264618 0.41829)
(-0.0430981 0.0123864 0.463747)
(-0.0226496 0.017865 0.446399)
(0.0440524 0.00582037 0.239898)
(-0.00396907 -0.0129119 0.123546)
(-0.00355361 -0.0530461 0.264093)
(0.0333914 0.0238897 0.297888)
(0.022776 0.0371303 0.28206)
(-0.0345341 0.0280414 0.275381)
(-0.0282166 -0.0454417 0.598714)
(-0.0396735 -0.00046157 0.521557)
(-0.0296592 -0.0245333 0.288047)
(-0.0472977 -0.0768392 0.252738)
(-0.00840712 0.00694022 0.200189)
(0.0115093 -0.120429 0.393649)
(-0.00838318 0.0200843 0.674963)
(1.65009e-05 0.0333481 0.723589)
(0.00902498 0.0260003 0.577221)
(-0.00301472 -0.0559055 0.362738)
(-0.0477118 -0.0689744 0.3414)
(0.00438037 -0.0588784 0.474858)
(-0.00395707 0.0220887 0.635797)
(0.0147535 0.00925151 0.583577)
(0.00284759 -0.0488348 0.367625)
(-0.0753433 -0.0385271 0.394415)
(-0.0636854 0.00472207 0.452362)
(-0.0468742 0.0329438 0.421692)
(0.0585354 0.00508053 0.248599)
(-0.00493502 -0.00960561 0.152946)
(0.0266117 -0.0807706 0.244981)
(0.0717815 0.00707084 0.266429)
(0.0305191 0.0289041 0.293186)
(-0.0463268 0.00961497 0.297209)
(-0.0120385 -0.0329573 0.606242)
(-0.0377094 0.00170649 0.521585)
(-0.0295504 -0.0147696 0.292196)
(-0.0431887 -0.0576693 0.236442)
(-0.00768664 0.0269669 0.23386)
(0.00584587 -0.122868 0.396598)
(-0.0112846 0.0233601 0.693186)
(-0.0111816 0.0469781 0.711957)
(0.00378255 0.0155099 0.582251)
(-0.000698406 -0.0314716 0.349674)
(-0.0483319 -0.0717178 0.322427)
(-0.0391134 -0.057473 0.473489)
(-0.00651512 0.0224049 0.634931)
(0.0147879 -0.0168625 0.594662)
(0.00743966 -0.0146358 0.29687)
(-0.0907058 -0.04094 0.357401)
(-0.073705 0.0109276 0.446959)
(-0.0622795 0.0384618 0.395889)
(0.0607254 0.00487376 0.269584)
(-0.00365943 -0.0107889 0.180348)
(0.0286869 -0.0842131 0.23184)
(0.088784 0.00524627 0.275407)
(0.0266723 0.00968804 0.308021)
(-0.0696927 -0.0157343 0.284172)
(0.0334185 -0.00558608 0.58208)
(-0.0260384 0.00612001 0.522338)
(-0.0109651 0.00870049 0.305172)
(-0.0353771 -0.0308377 0.235659)
(-0.00527492 0.0447567 0.279366)
(0.0117552 -0.112904 0.40652)
(-0.0160829 0.0427987 0.699819)
(-0.017825 0.0548979 0.702267)
(-0.00369012 -0.0105386 0.578503)
(0.00631787 -0.027022 0.335725)
(-0.0484845 -0.0672022 0.319446)
(-0.0654944 -0.0357273 0.476892)
(-0.00514148 0.0207429 0.633537)
(0.00273758 -0.0332753 0.593797)
(0.00205951 0.0134354 0.269331)
(-0.0959963 -0.0370998 0.332124)
(-0.0681343 0.0186899 0.440186)
(-0.0557669 0.0302135 0.37671)
(0.0444692 0.00431958 0.289955)
(-0.000350284 -0.0146731 0.201022)
(0.0260932 -0.0620333 0.232138)
(0.0667458 0.0106478 0.303148)
(0.0199239 -0.00501958 0.319567)
(-0.0678547 -0.0377754 0.263909)
(0.035084 0.0233445 0.499891)
(0.0133522 0.00507547 0.521745)
(0.014861 0.0244361 0.328621)
(-0.022634 -0.0115415 0.245293)
(-0.0053414 0.0577519 0.336586)
(-0.0136271 -0.0403395 0.462742)
(-0.0232062 0.0770635 0.701945)
(-0.0149393 0.0602713 0.693495)
(-0.00319278 -0.0209643 0.575014)
(0.00939641 -0.0182734 0.318264)
(-0.0512088 -0.0536468 0.333029)
(-0.0779366 -0.020241 0.487639)
(-0.00270433 0.0116386 0.630162)
(-0.0065455 -0.0298243 0.579745)
(-0.0110998 0.0261605 0.256037)
(-0.0913144 -0.0306742 0.327869)
(-0.0577884 0.0256771 0.423547)
(-0.0385783 0.0225337 0.36563)
(0.0193329 0.00182871 0.314011)
(0.00333516 -0.0166945 0.214612)
(0.019322 -0.047911 0.238363)
(0.0173555 -0.0152104 0.326571)
(0.0186933 -0.00451295 0.319214)
(-0.000523411 -0.0353683 0.245446)
(-0.0177964 0.0325586 0.405901)
(0.0442757 0.0143979 0.488869)
(0.0259549 0.0247474 0.352068)
(-0.00956944 -0.00261223 0.259594)
(-0.0109675 0.0440629 0.399106)
(-0.0477182 0.0144587 0.534765)
(-0.0424372 0.0908394 0.706694)
(-0.0152811 0.061428 0.685701)
(-0.00197803 -0.0205584 0.57451)
(0.0099353 -0.000656896 0.306838)
(-0.0505677 -0.0365169 0.36867)
(-0.0825952 -0.0236276 0.497603)
(-0.00915515 -0.00846756 0.613461)
(0.00682902 -0.0151412 0.562002)
(-0.0148116 0.0259512 0.245553)
(-0.062216 -0.0170812 0.34276)
(-0.0540138 0.0254323 0.398755)
(-0.0306736 0.0209069 0.362735)
(0.00285241 -0.000303104 0.351388)
(0.00114136 -0.0140729 0.232629)
(0.0120761 -0.0475514 0.251238)
(-0.0160157 -0.0312471 0.33755)
(0.00742644 0.0115376 0.305906)
(0.0568666 -0.0450632 0.220033)
(-0.0274528 0.0112506 0.353571)
(0.0309663 0.027758 0.434385)
(0.0225104 0.0118095 0.374794)
(-0.0063183 -0.000847443 0.272691)
(-0.017547 0.00171668 0.434474)
(-0.0543701 0.0324357 0.599948)
(-0.0595608 0.0797178 0.715148)
(-0.022277 0.0556538 0.681428)
(-0.000270555 -0.0131264 0.571193)
(0.0113623 0.00852269 0.301203)
(-0.0382791 -0.014623 0.415958)
(-0.0745779 -0.0353847 0.511412)
(-0.012649 -0.0243238 0.586938)
(0.0293465 -0.00235155 0.538772)
(-0.00847973 0.0142484 0.243717)
(-0.0316233 -0.0107987 0.355806)
(-0.0477327 0.0149282 0.381243)
(-0.0330925 0.0223289 0.363787)
(-0.00267438 -0.00305445 0.393042)
(-0.00829007 -0.00597637 0.263598)
(0.00863192 -0.0530505 0.271771)
(-0.0223344 -0.019456 0.335151)
(-0.00396305 0.0117028 0.29364)
(0.0788462 -0.0715841 0.217063)
(0.00252538 -0.0294994 0.333)
(0.00184325 0.025662 0.401734)
(0.0164873 -0.0128478 0.387693)
(-0.00951086 -0.000241708 0.282572)
(-0.0175121 -0.023908 0.441965)
(-0.0408291 0.0121474 0.630061)
(-0.0562249 0.0602231 0.719311)
(-0.0228703 0.0384058 0.680108)
(0.0117845 0.00250515 0.557722)
(0.0150597 0.00775753 0.29991)
(-0.00995022 0.0159625 0.452961)
(-0.0602159 -0.0302855 0.524223)
(-0.00173588 -0.0181184 0.565785)
(0.0318376 0.00555814 0.516518)
(-0.00172582 0.00224623 0.250923)
(-0.00804783 -0.00553976 0.360187)
(-0.0317304 0.00917519 0.379357)
(-0.0369059 0.0217928 0.366066)
(-0.00353446 -0.00208077 0.430787)
(-0.0246513 0.00498591 0.299592)
(-0.000966351 -0.0582778 0.299301)
(-0.0155392 0.000629794 0.332307)
(-0.0118602 -0.00193983 0.292468)
(0.0701984 -0.0802678 0.234322)
(0.0310773 -0.0690507 0.333373)
(-0.0237927 0.00435553 0.392611)
(0.0130752 -0.0428415 0.384325)
(-0.0109089 0.00117876 0.29371)
(-0.0159644 -0.0280507 0.432006)
(-0.00359595 0.015977 0.619674)
(-0.0464032 0.049196 0.704786)
(0.000687212 0.0265479 0.672868)
(0.030236 0.0102282 0.541928)
(0.0218498 0.000400715 0.30088)
(0.00904019 0.0344474 0.474153)
(-0.0419355 0.00499778 0.532728)
(0.0137667 0.00924258 0.549692)
(0.0265801 0.0156441 0.501469)
(-0.00169296 0.00235096 0.259661)
(0.00853787 0.00581738 0.368908)
(-0.0129829 0.0150717 0.390812)
(-0.0301709 0.0178185 0.374782)
(-0.00449599 -0.00164029 0.443192)
(-0.0445515 0.0202916 0.333211)
(-0.0185712 -0.0563174 0.333332)
(-0.0153239 0.0140941 0.333643)
(-0.0144074 -0.0108614 0.305584)
(0.0524732 -0.0606245 0.268232)
(0.0419557 -0.0923715 0.341197)
(-0.0393301 -0.0231312 0.391285)
(0.00757251 -0.0648874 0.368681)
(-0.00823615 0.00187832 0.311007)
(-0.0104547 -0.094497 0.39796)
(-0.0402108 0.0104915 0.570107)
(-0.0307485 0.0439491 0.65123)
(0.0237721 0.0293727 0.635427)
(0.0370766 0.00629777 0.523251)
(0.0248126 -0.00298647 0.3)