/*--------------------------------*- C++ -*----------------------------------*\
| =========                 |                                                 |
| \\      /  F ield         | OpenFOAM: The Open Source CFD Toolbox           |
|  \\    /   O peration     | Version:  5.x                                   |
|   \\  /    A nd           | Web:      www.OpenFOAM.org                      |
|    \\/     M anipulation  |                                                 |
\*---------------------------------------------------------------------------*/
FoamFile
{
    version     2.0;
    format      ascii;
    class       volScalarField;
    location    "9.25";
    object      p;
}
// * * * * * * * * * * * * * * * * * * * * * * * * * * * * * * * * * * * * * //

dimensions      [0 2 -2 0 0 0 0];

internalField   nonuniform List<scalar> 
10571
(
238.657
204.048
203.445
223.153
226.299
202.862
200.594
204.091
214.166
217.329
205.07
203.506
200.619
197.623
204.063
211.539
205.288
202.243
201.238
202.926
205.609
195.524
192.167
196.448
209.59
196.688
194.788
184.156
195.063
196.674
180.249
173.575
188.833
178.576
188.247
189.844
162.528
167.112
173.844
182.021
136.881
130.212
151.558
189.747
191.194
182.696
182.295
180.704
169.447
186.716
182.447
171.432
171.023
151.357
149.081
150.785
153.58
165.762
61.3424
61.5153
97.3683
123.233
124.11
158.713
54.7001
58.193
74.0212
77.2281
127.28
57.6508
72.2124
66.5318
155.473
132.595
151.795
157.768
148.902
71.64
109.623
132.193
124.142
153.573
56.0695
53.4915
55.9407
76.4749
79.1374
132.257
52.7781
49.7879
53.1633
64.6973
61.1764
54.1126
57.1678
59.4693
114.734
56.2108
107.115
142.951
108.879
47.6202
53.7963
64.9154
71.722
103.73
48.9285
48.912
41.9515
41.0051
45.6796
54.2019
49.2769
48.9707
46.5493
44.9875
46.316
51.1179
49.5058
51.7622
48.7825
46.1907
46.7053
50.2496
47.6052
46.3135
43.3139
42.8548
45.0268
51.8341
46.9985
46.7554
47.1879
46.7653
46.6766
46.4447
46.5003
46.3792
48.2814
48.3956
47.498
46.3268
46.4363
48.9761
47.999
46.4359
46.6078
45.9586
46.1662
46.4739
46.5456
46.1717
46.3849
46.4543
46.2679
46.3837
46.4487
46.733
46.6356
47.2292
47.8761
46.8037
46.532
46.4781
47.704
47.5091
47.5624
46.6972
46.5386
46.4517
48.3104
47.9634
47.4086
46.3233
46.0322
46.1261
46.3515
46.3666
46.1035
46.0465
46.3246
46.3117
46.3966
46.4415
46.6068
46.4904
46.4404
46.9393
46.4605
46.4962
46.4444
47.1935
46.8535
47.1657
46.6643
46.8231
46.3955
47.6788
47.6306
47.2243
46.3138
46.1074
46.1607
46.3008
46.3624
45.9732
46.0439
46.2553
46.3406
46.4244
46.4538
46.4614
46.2969
46.2081
46.665
46.5118
46.4746
46.5049
46.8779
46.5924
47.004
46.5402
46.7817
47.2653
47.3814
46.9895
46.3222
46.1954
46.2539
46.3163
46.3666
46.161
46.2036
46.3726
46.385
46.4489
46.4035
46.2336
46.2244
46.6618
46.4858
46.5104
46.7513
46.4468
46.891
46.3891
46.5144
47.0381
47.0193
46.793
46.3576
46.2489
46.311
46.3498
46.3952
46.2377
46.2834
46.4361
46.4088
46.4794
46.3931
46.2446
46.1997
46.615
46.4028
46.5052
46.6759
46.2554
46.7566
46.3388
46.6083
46.8479
46.7803
46.6966
46.3849
46.2836
46.339
46.374
46.4297
46.2654
46.3039
46.4454
46.4143
46.4912
46.4074
46.2833
46.1966
46.5283
46.4258
46.6064
46.6409
46.1678
46.6849
46.4186
46.8428
46.7649
46.6572
46.5725
46.417
46.342
46.3616
46.4147
46.4392
46.3243
46.3149
46.4642
46.4176
46.5026
46.4637
46.359
46.2345
46.4932
46.4321
46.5814
46.6628
46.2538
46.609
46.5501
46.756
46.7543
46.5671
46.5039
46.4463
46.44
46.4343
46.4614
46.4883
46.4279
46.3632
46.501
46.4655
46.5347
46.5624
46.4518
46.3045
46.5174
46.4861
46.5587
46.7214
46.4011
46.5808
46.4798
46.4766
46.7367
46.5401
46.4586
46.5347
46.5588
46.518
46.5123
46.5604
46.5314
46.4414
46.5642
46.557
46.5965
46.6634
46.5504
46.3888
46.5735
46.6257
46.6098
46.7758
46.4685
46.632
46.5154
46.551
46.7526
46.5918
46.5597
46.6345
46.6664
46.6183
46.6134
46.6551
46.6499
46.5289
46.643
46.6556
46.6801
46.7497
46.6488
46.4534
46.6254
46.7524
46.7003
46.8205
46.4507
46.7134
46.6689
46.7601
46.8022
46.6581
46.7825
46.7405
46.7696
46.7252
46.7214
46.7583
46.7591
46.6238
46.7295
46.7526
46.7726
46.8362
46.7621
46.507
46.6726
46.8027
46.7818
46.8919
46.4645
46.6938
46.7525
46.8435
46.8171
46.7072
46.8768
46.8505
46.8587
46.8251
46.8343
46.8645
46.8715
46.7412
46.823
46.8534
46.8694
46.9373
46.8671
46.5724
46.7338
46.8625
46.865
46.972
46.5137
46.6485
46.7871
46.8969
46.8418
46.7724
46.954
46.9663
46.9854
46.9507
46.951
46.9779
46.9943
46.8798
46.9284
46.9611
46.9727
47.0649
47.0026
46.661
46.8322
46.9327
46.9541
47.0277
46.5274
46.6339
46.8022
46.959
46.9034
46.8175
47.0331
47.0901
47.1349
47.0823
47.0743
47.1
47.1337
47.0184
47.0373
47.0779
47.0861
47.2315
47.1486
46.797
46.9718
47.0158
47.0501
47.1097
46.5689
46.6946
46.8258
47.0149
46.9421
46.8541
46.9975
47.2215
47.2789
47.2165
47.1969
47.2314
47.2708
47.1493
47.1484
47.2072
47.2131
47.4383
47.2764
46.9806
47.1246
47.1009
47.1504
47.2002
46.652
46.7972
46.8186
47.0459
46.9534
46.8863
46.7841
47.367
47.4015
47.3543
47.3312
47.3786
47.3983
47.2845
47.2746
47.3477
47.3539
47.5575
47.432
47.1872
47.2704
47.1935
47.26
47.2803
46.7178
46.892
46.8083
47.0596
47.0287
46.9457
46.6046
47.5276
47.5202
47.496
47.4881
47.5419
47.4848
47.4175
47.4072
47.49
47.5079
47.604
47.5134
47.3804
47.4182
47.3815
47.4111
47.3513
46.7786
46.9809
46.8865
47.1507
47.1513
47.1331
46.807
47.6932
47.6347
47.6374
47.6539
47.707
47.5692
47.534
47.5455
47.6467
47.6626
47.693
47.5389
47.558
47.5729
47.5634
47.5968
47.4569
46.9311
47.1692
47.164
47.4039
47.3584
47.2708
47.2087
47.848
47.7487
47.7731
47.8075
47.8445
47.6582
47.6603
47.6808
47.7535
47.7752
47.7653
47.5915
47.7142
47.714
47.6774
47.7254
47.6064
47.2243
47.4269
47.5063
47.6075
47.5358
47.4709
47.9072
47.9679
47.8705
47.9088
47.9278
47.9242
47.7961
47.7601
47.7636
47.7902
47.8279
47.8579
47.7761
47.9824
47.8104
47.7136
47.7695
47.7497
47.427
47.5839
47.6487
47.6915
47.5019
47.2964
47.8017
48.0247
47.9844
48.0035
47.982
47.9489
47.9384
47.8228
47.7897
47.7856
47.8418
47.9481
47.9017
48.2192
47.8408
47.7299
47.7715
47.9226
47.7386
47.6184
47.7132
47.741
47.5892
47.1571
47.6278
48.0199
48.0612
48.0218
47.9778
47.9397
48.0381
47.8045
47.7924
47.7688
47.8289
48.0549
47.9477
48.1569
47.8419
47.7585
47.7205
47.9441
47.9581
47.8138
47.7858
47.7624
47.8177
47.7769
47.8201
47.9913
48.0804
47.9913
47.9481
47.9226
48.0305
47.754
47.8007
47.7696
47.8115
48.2231
48.0002
48.0398
47.8875
47.8094
47.7018
48.0025
48.0081
47.9596
47.8684
47.7771
48.1874
48.1823
47.9633
47.9695
48.0573
47.9666
47.9303
47.919
48.0017
47.7783
47.7953
47.8368
47.8522
48.3487
48.0407
47.8668
47.9502
47.8678
47.8218
48.2697
47.8232
47.9635
47.9329
47.8693
48.1058
48.1286
48.0044
47.9627
48.0368
47.9688
47.9327
47.93
47.9681
47.8976
47.8212
47.9024
47.9187
48.3477
48.1205
47.9675
47.9725
47.9553
47.9701
48.3419
47.9347
47.9914
47.9835
47.9736
48.0531
48.0724
48.021
47.9631
48.0043
47.9789
47.9433
47.9452
47.8388
47.9261
47.8874
47.9358
48.023
48.2869
48.0431
48.0251
47.954
47.9713
48.035
48.4708
48.099
48.008
47.9973
48.014
48.1727
48.0757
48.0247
47.9601
47.9508
47.9648
47.9476
47.95
47.7233
47.8387
47.9016
47.9046
48.081
47.8357
47.8188
47.9713
47.9296
47.9295
48.0075
48.12
48.0588
47.9761
47.9703
47.9807
48.1995
48.0506
48.004
47.9565
47.9582
47.957
47.9438
47.9424
47.8005
47.7635
47.8728
47.8063
47.9347
47.6942
47.7902
47.9144
47.9076
47.8989
47.929
48.0456
47.9748
47.9285
47.9356
47.941
48.0998
47.9938
47.97
47.964
48.027
47.9727
47.9459
47.9276
47.9392
47.7647
47.854
47.7943
47.8106
47.8137
47.8267
47.8861
47.8813
47.9022
47.8774
48.0011
47.903
47.8989
47.9232
47.9214
48.0021
47.9419
47.9421
47.9759
48.1286
48.0053
47.9596
47.9308
48.0283
47.8247
47.8559
47.8514
47.8252
48.0727
47.9009
47.8499
47.8759
47.9384
47.884
48.0087
47.8782
47.8991
47.9374
47.9286
47.9439
47.9158
47.936
48.0035
48.2377
48.0362
48.0016
47.945
48.3766
47.8989
47.9067
47.9336
47.8916
48.2519
48.1467
47.8204
47.9087
47.9862
47.9259
48.0042
47.8644
47.9123
47.9634
47.957
47.9162
47.9153
47.946
48.0102
48.3771
48.0569
48.009
47.9713
48.5666
47.9274
47.955
47.9994
47.9605
48.1954
48.1098
47.7637
47.9566
48.0251
47.9629
47.9816
47.8561
47.9317
47.9834
47.9823
47.9081
47.934
47.9644
48.011
48.1033
47.9531
48.004
47.9923
48.1463
47.7938
47.9797
48.028
48.0049
48.0348
47.8996
47.7289
47.9933
48.0242
47.9737
47.9412
47.869
47.9597
47.9956
47.9923
47.9184
47.962
47.9865
47.9979
47.8517
47.8569
47.9941
48.0069
47.8536
47.7242
47.9891
48.032
48.0185
47.8948
47.7252
47.7763
48.0094
47.9892
47.9722
47.8986
47.9215
47.9938
48.0092
48.0017
47.9503
47.9956
48.0114
47.9939
47.8557
47.884
47.9922
48.0113
47.7897
47.8183
47.9774
48.0116
48.0153
47.8751
47.765
47.8794
48.0078
47.9703
47.9875
47.9233
48.0018
48.0226
48.0272
48.0226
48
48.0283
48.0388
48.0199
47.8603
47.892
48.0049
48.0184
47.7631
47.8789
47.9713
48.0065
48.0194
47.9123
47.8647
47.981
48.0236
47.9833
48.0166
47.9805
48.0547
48.0472
48.0481
48.0493
48.0464
48.0576
48.0646
48.0767
47.923
47.8845
48.0266
48.0276
47.7792
47.903
47.9816
48.0206
48.0356
47.9547
47.9817
48.0892
48.0616
48.0088
48.0495
48.0286
48.0645
48.0724
48.0644
48.0697
48.0779
48.081
48.0845
48.1325
47.9476
47.8414
48.0552
48.0421
47.8367
47.9763
48.0512
48.033
48.0496
47.9924
48.0309
48.2117
48.1189
48.0546
48.0791
48.0451
48.0534
48.0741
48.0709
48.0841
48.0869
48.0902
48.096
48.1064
48.0235
47.7331
47.9525
48.0346
47.9234
48.0741
48.0983
48.0205
48.0572
48.0301
48.0301
48.206
48.1465
48.076
48.0855
48.0437
48.039
48.0575
48.0657
48.0842
48.0672
48.0843
48.0964
48.02
48.1066
47.8306
47.8
47.9938
48.0534
48.0478
48.1263
48.0029
48.0529
48.0654
48.0464
48.1327
48.1189
48.0553
48.0704
48.0352
47.9847
48.0404
48.0503
48.0711
48.0305
48.0551
48.0781
47.9145
48.1468
47.9564
47.7381
47.9495
48.1551
48.084
48.1133
48.0244
48.0448
48.0781
48.0659
48.0411
48.0644
48.021
48.0434
48.017
47.9507
48.0058
48.0189
48.0471
48.0161
48.014
48.0407
47.9137
48.0995
48.0305
47.8446
47.9452
48.0898
48.1009
48.1119
48.0481
48.0286
48.0558
48.0401
47.9733
48.0073
47.9846
48.0105
47.9776
47.9179
47.9498
47.9805
48.0147
47.9779
47.9725
47.9953
47.9613
48.0324
48.0041
47.9267
47.9331
48.0113
47.9848
48.0127
47.99
47.9917
47.9901
47.9831
47.9031
47.9313
47.9283
47.9673
47.9232
47.8629
47.8882
47.932
47.9731
47.913
47.9279
47.9449
47.9586
47.9705
47.942
47.8997
47.894
47.9452
47.8498
47.8972
47.904
47.9361
47.9037
47.9121
47.8457
47.8367
47.8578
47.9096
47.8677
47.7951
47.8342
47.8721
47.9161
47.8457
47.8631
47.887
47.9117
47.9388
47.8919
47.8481
47.836
47.9018
47.7536
47.8224
47.825
47.8686
47.8465
47.8578
47.7984
47.7543
47.7943
47.8391
47.829
47.7577
47.7802
47.8123
47.8482
47.7923
47.7864
47.8294
47.8638
47.9221
47.8598
47.8019
47.7823
47.8794
47.714
47.778
47.7668
47.7996
47.8603
47.844
47.7665
47.7071
47.7361
47.7758
47.8243
47.7489
47.7416
47.7743
47.8005
47.7686
47.7388
47.7928
47.8273
47.9208
47.8453
47.7533
47.7446
47.8734
47.7041
47.7177
47.7145
47.7539
47.9135
47.865
47.7648
47.6888
47.7136
47.7546
47.8503
47.7595
47.7344
47.777
47.7915
47.7825
47.757
47.7998
47.7871
47.9278
47.8271
47.7
47.711
47.8744
47.7108
47.6756
47.6484
47.7152
47.9762
47.9028
47.7859
47.707
47.7397
47.7708
47.8976
47.7952
47.795
47.8162
47.8148
47.8342
47.8353
47.8526
47.748
47.911
47.7825
47.6639
47.6774
47.8874
47.7367
47.6389
47.6397
47.7112
48.0171
47.9399
47.8221
47.7351
47.7592
47.8132
47.953
47.8528
47.8815
47.899
47.8736
47.9079
47.9107
47.9331
47.7002
47.9136
47.7574
47.6359
47.6843
47.9015
47.7879
47.6242
47.6373
47.7168
48.0461
47.9813
47.8707
47.7362
47.8038
47.8641
48.0114
47.9176
47.9114
47.935
47.9446
47.985
47.9633
47.994
47.6382
47.9055
47.755
47.6035
47.6348
47.9154
47.8309
47.6061
47.5827
47.7221
48.086
48.0224
47.9204
47.7483
47.8421
47.9832
48.0725
47.9889
47.9046
47.9263
48.0074
48.0626
48.0062
48.034
47.5542
47.9153
47.7416
47.5231
47.4415
47.951
47.8528
47.5687
47.4125
47.7143
48.1344
48.0669
47.9743
47.7728
47.7302
48.2268
48.1441
48.07
47.8904
47.9553
48.3423
48.1514
48.0477
48.0621
47.4458
47.9206
47.714
47.3989
47.1467
47.9967
47.8715
47.4581
47.0325
47.5231
48.181
48.1215
48.0138
47.7132
47.2789
48.3501
48.2323
48.1596
47.8276
47.6552
48.4914
48.2714
48.0988
47.9578
47.2995
47.9501
47.7059
47.2411
46.6956
48.0545
47.8146
47.2177
46.2763
46.9042
48.2503
48.1992
48.0343
47.4851
46.1679
47.9597
48.362
48.2936
47.7205
46.5852
47.9024
48.4712
48.204
47.668
47.1045
48.0048
47.6688
46.9807
46.0725
48.1436
47.7189
46.7908
44.9278
45.1437
48.377
48.3277
48.0263
47.1274
44.5863
45.6048
48.5764
48.4571
47.7299
45.8653
47.1469
48.8417
48.6421
48.0821
46.9124
48.0894
47.6426
46.6919
45.2652
48.2806
47.5939
46.3091
43.0292
41.343
48.6069
48.5248
48.0883
46.5535
43.0177
40.2853
48.9379
48.7673
47.7164
45.517
45.9059
49.5606
49.2195
48.0918
46.7983
48.2076
47.6312
46.4877
44.5311
48.4773
47.5196
45.7578
41.4093
33.0678
48.9789
48.8269
48.0386
45.8822
41.46
29.4629
-23.4426
49.4775
48.837
46.7932
44.9663
43.7766
50.0358
48.7739
46.9824
46.8352
48.2992
47.5975
46.4475
44.3434
48.6863
47.4311
45.4228
40.9674
28.1584
2.1435
49.5316
49.2122
47.7534
45.2549
39.9672
27.939
2.26855
50.2857
48.497
45.8047
43.7991
38.0586
49.8136
47.332
45.7261
46.9952
48.2724
47.4723
46.5711
45.1022
48.7708
47.4425
45.527
42.42
33.8041
9.27397
49.7794
49.4717
47.3745
44.9874
40.6151
30.1397
6.70064
50.662
47.5821
45.3689
43.544
34.7021
9.56151
48.5138
46.3058
45.1118
47.2142
47.9975
47.2581
46.8803
46.4789
48.1269
47.115
45.877
44.7064
38.8282
12.7142
49.2835
48.8694
46.6289
45.1454
43.3191
34.2636
5.71652
49.7313
46.6961
45.078
43.8465
36.5581
47.4727
45.7504
45.0665
47.4834
47.4476
47.0502
47.2252
47.8105
46.697
46.2848
46.2309
46.5059
44.5853
48.155
47.5609
45.8472
45.4774
45.4798
41.0188
-14.8071
48.4583
46.0675
45.2609
45.1619
43.5403
46.8496
45.7342
45.6316
47.6868
47.2306
46.9373
47.4709
48.4408
46.8117
46.0492
46.8108
47.8708
48.5671
47.2988
46.831
45.6122
45.9621
46.8201
46.1923
47.6043
45.968
45.8395
46.3254
46.6716
46.6505
46.0279
46.2864
47.8623
46.8703
46.9124
47.6758
48.5341
46.6187
46.1608
47.3469
48.4162
49.0236
47.0452
46.5396
45.9426
46.5564
47.7946
48.0124
47.2058
46.1911
46.5227
47.1264
47.7555
46.734
46.5088
46.9336
48.1349
46.6173
46.8458
47.9147
48.7017
46.6999
46.5942
47.7398
48.7187
49.1717
47.1428
46.8183
46.5836
47.2675
48.3518
48.5961
47.2466
46.7309
47.16
47.682
48.3283
47.1347
47.126
47.5594
48.5667
46.6402
47.0911
48.3167
48.943
47.0386
47.1958
48.0649
48.9705
49.1684
47.5358
47.3819
47.2883
47.8982
48.6745
48.8982
47.7528
47.4808
47.7712
48.1591
48.6518
47.9364
47.851
48.104
49.2955
47.2686
47.461
48.9576
49.4216
47.5816
47.688
48.4905
49.1425
49.315
48.1422
48.0407
47.6812
48.264
48.9048
49.1044
48.5434
48.2828
48.3428
48.5047
48.9394
48.976
48.8121
48.6573
50.4224
47.9501
48.3784
49.9083
50.2425
48.1717
48.2252
48.8204
49.4226
49.8219
48.8022
48.7098
48.3717
48.6344
49.23
49.4344
49.4684
49.2281
48.9866
48.8951
49.359
50.1738
49.8877
49.4689
51.9968
48.5057
49.3827
51.3762
51.417
48.5403
48.5937
48.9592
49.9037
50.6869
49.5524
49.0763
48.8294
48.7303
49.2074
49.9969
50.4871
49.8616
49.2499
49.5053
50.0688
51.6111
51.2292
50.8842
53.388
49.1598
50.9201
53.0652
52.3597
48.8459
48.8667
49.7098
50.4291
51.2324
50.6793
49.6506
49.1128
49.1033
49.5874
50.3628
51.23
50.3942
49.9151
50.1488
50.8212
52.5291
52.5514
51.9592
238.167
243.46
275.607
249.527
246.028
256.397
291.127
288.702
205.61
208.419
211.438
207.86
206.979
227.959
249.637
211.63
235.342
244.047
245.229
246.145
239.317
276.496
250.064
273.973
243.249
252.402
206.908
206.553
209.034
207.304
206.739
207.373
205.659
206.822
214.826
203.049
203.253
235.066
254.707
206.435
206.632
254.397
240.892
210.542
212.823
251.164
219.531
216.983
207.345
210.476
209.666
209.205
205.696
210.455
205.346
203.443
203.117
203.997
203.587
204.491
205.512
202.288
203.023
207.186
211.401
206.154
209.528
215.004
213.726
213.905
207.136
210.301
207.129
205.756
205.653
206.068
205.731
203.22
201.251
204.627
204.002
200.466
199.519
206.327
207.042
203
202.649
208.179
202.318
201.502
202.635
200.027
200.375
201.225
196.965
201.71
208.295
201.954
236.051
225.653
236.252
234.053
207.224
232.97
238.151
230.314
232.148
222.007
201.524
236.021
207.012
203.233
199.258
204.057
203.32
204.215
200.02
201.024
198.674
200.128
218.879
219.602
219.259
205.978
211.449
199.102
215.314
221.057
213.687
203.406
204.956
204.503
199.604
200.928
200.159
211.868
211.127
203.566
207.465
206.669
205.332
205.322
200.417
199.905
195.952
210.678
209.061
207.72
204.796
203.882
205.177
194.753
203.434
202.867
201.864
191.167
195.772
192.503
194.294
203.168
198.404
200.652
202.274
202.916
198.754
201.213
203.261
199.184
193.041
193.454
190.715
191.804
185.739
185.159
193.338
190.281
188.109
193.384
187.242
197.395
196.132
192.36
219.626
195.202
213.069
195.138
187.829
190.558
189.273
188.931
180.648
173.163
179.777
193.669
182.438
197.082
193.01
196.745
196.883
195.732
193.795
194.13
193.035
191.356
202.374
185.719
195.26
183.154
187.885
178.084
180.523
184.676
174.526
197.508
194.503
195.163
185.538
153.267
159.169
180.245
175.31
169.904
168.365
168.426
183.82
159.866
107.869
88.0401
70.0617
176.257
189.302
163.207
163.892
170.73
149.308
68.4685
146.215
145.656
151.94
64.9464
75.2847
60.2552
64.5236
193.996
180.288
190.497
111.19
156.804
109.964
147.574
164.415
164.385
77.0546
178.598
175.905
135.183
161.754
162.911
181.48
182.219
155.984
101.606
162.859
101.961
184.457
167.729
176.891
178.836
176.396
164.865
165.331
165.226
167.374
171.667
163.824
163.512
163.821
171.884
162.322
178.747
133.785
189.155
181.595
179.657
168.77
171.96
157.566
156.922
172.546
173.82
171.521
161.043
160.882
167.405
161.698
169.346
163.615
146.885
71.6405
80.9201
79.2907
58.7061
58.6796
164.283
165.067
162.464
160.211
160.879
58.1511
59.2518
57.9192
57.2935
60.5385
160.558
152.352
155.766
160.301
123.205
57.2254
57.0986
58.8962
53.4877
52.8128
54.5473
53.1761
55.0163
53.4228
110.251
69.3794
88.0076
71.332
77.7358
59.9547
61.0842
91.6572
53.7013
53.075
75.7914
100.039
50.917
51.9712
53.2049
65.7342
78.8964
54.9321
61.0964
56.4552
60.8587
145.218
117.688
152.127
147.99
152.56
135.571
127.561
136.489
156.512
153.685
140.47
143.432
135.867
150.194
131.104
76.5241
54.1918
144.058
113.886
134.162
88.4522
110.759
63.4503
98.2023
146.536
153.662
147.745
132.855
128.857
134.783
129.298
151.455
130.818
54.2746
56.5127
55.5257
50.7524
53.7176
53.7532
147.314
147.147
133.045
123.24
118.006
55.7206
57.353
52.0861
52.6497
52.7939
143.466
90.531
95.4297
104.293
54.2384
53.8456
50.5834
50.9544
53.6402
53.194
50.6268
50.4429
51.7681
51.8801
56.604
55.6104
52.641
51.0816
48.0499
51.5892
49.944
47.7764
53.7126
52.5694
54.4089
54.212
53.2264
52.8526
52.884
60.0693
57.3313
54.3397
55.9984
53.9293
56.1404
88.3565
60.7675
111.078
102.076
112.968
75.3341
72.2939
77.8336
118.982
104.293
69.8964
72.0865
53.9873
100.127
54.325
49.2917
47.4932
74.8273
48.6884
60.2921
47.1298
51.1972
46.549
47.5964
103.617
115.179
107.645
70.7476
70.2702
88.3709
79.7951
105.936
77.304
49.4638
50.6076
51.0079
47.3846
47.5239
48.0389
87.8828
74.4743
75.3642
56.7417
50.3906
49.3101
48.4199
47.1426
47.2429
47.0659
60.6478
46.1628
46.5744
47.0062
45.9484
48.5278
48.0294
49.8265
50.3994
50.6114
48.6071
49.0992
49.4596
49.6287
46.3049
49.6008
48.5079
45.7791
46.6128
48.0001
47.5853
46.5594
50.9951
49.8343
50.2733
50.6849
49.7152
49.0218
49.3174
50.3223
50.613
47.9978
47.5204
48.898
47.9157
47.5909
46.0796
49.591
48.2449
48.2545
46.2396
46.2566
46.1677
48.2559
46.3059
46.1425
46.0415
46.4225
46.7738
46.3573
46.5552
46.2328
46.4342
46.3491
45.5119
45.9557
46.0097
46.1574
45.694
48.2601
50.4814
51.0598
46.0405
46.2421
45.6192
46.3056
50.0033
46.5232
46.2797
46.3143
46.2895
46.1339
46.3471
46.2173
47.6033
46.7605
47.552
46.5616
46.522
46.2478
46.2637
46.5774
46.6536
46.5235
46.4821
46.4777
46.4333
46.4965
46.8424
47.5373
46.7708
46.8334
47.5246
46.849
46.2
46.3373
46.503
46.4779
46.3253
46.3973
46.4604
46.3006
46.4605
46.4734
46.5207
46.4261
46.5489
48.044
47.878
48.4787
48.7736
48.9249
47.9984
47.9929
48.2659
48.4293
46.7016
46.4956
47.0393
46.5912
46.7073
46.7685
46.9643
46.406
49.0956
48.6414
48.5648
48.8094
48.6275
48.3317
48.5582
47.4838
48.4322
48.0576
47.9078
48.3213
47.0644
46.2675
46.0614
46.5207
46.3581
46.4736
46.2828
46.2242
46.3062
46.5809
46.553
46.3103
46.3215
46.3981
46.5329
46.3962
46.1152
46.1089
46.1156
46.0638
45.9206
45.986
45.9836
46.085
45.9913
46.518
46.5189
46.4365
46.3689
46.3919
46.306
46.3309
46.4022
46.4842
46.364
46.4679
46.4461
46.475
46.4357
46.4695
46.2058
46.3932
46.3776
46.2126
46.3533
46.3752
46.4847
46.4211
46.4923
46.3971
46.4679
46.3759
46.4349
46.4848
46.4647
46.5018
46.4463
46.4803
46.4425
46.4887
46.7975
47.2606
46.6767
46.7071
47.0232
46.5673
46.5578
46.4286
46.5081
46.5025
46.5526
46.4029
46.5129
46.4646
46.5278
46.4674
46.5024
46.4442
46.5197
47.5838
47.304
47.6051
47.8608
48.0198
47.4306
47.2868
47.56
47.6518
46.7228
47.0183
47.0169
46.76
46.7488
47.0887
47.0488
46.356
46.7034
46.4322
46.5066
46.4251
46.4918
48.2561
47.8962
48.034
48.2608
47.9854
47.6803
47.9046
48.0204
48.1645
47.8043
47.8962
47.9627
47.379
46.11
46.1388
46.3311
46.235
46.3192
46.2786
46.1953
46.2771
46.3026
46.3537
46.3172
46.3076
46.3479
46.3585
46.371
46.0629
46.0019
46.0094
46.0499
46.0274
46.0734
46.0998
45.9826
46.0546
46.3694
46.3144
46.3487
46.3655
46.3649
46.3288
46.3612
46.3637
46.4632
46.3653
46.4661
46.4416
46.4679
46.445
46.4702
46.1031
46.2768
46.2428
45.9817
46.1979
46.1359
46.4645
46.3899
46.4172
46.3996
46.4765
46.384
46.4405
46.4755
46.4362
46.4843
46.4414
46.4871
46.4493
46.492
46.5984
46.8377
46.5284
46.4987
46.7054
46.482
46.4226
46.2424
46.4787
46.4735
46.436
46.3657
46.4951
46.3902
46.5023
46.4681
46.5039
46.4791
46.5316
47.0821
46.9253
47.0401
47.3076
47.3525
47.0058
46.8503
47.101
47.1311
46.7089
46.9516
47.0002
46.5919
46.6761
46.8171
46.8952
46.5643
46.8557
46.7739
46.4907
46.4845
46.547
47.5818
47.3505
47.3538
47.573
47.4357
47.1103
47.3207
47.7143
47.7976
47.505
47.5429
47.7128
47.094
46.1877
46.2266
46.2777
46.2136
46.271
46.2792
46.2313
46.2652
46.311
46.3428
46.313
46.3151
46.339
46.3678
46.3655
46.0512
46.1228
46.1581
46.023
46.0987
46.1488
46.2129
46.1092
46.129
46.373
46.3494
46.3763
46.3626
46.3824
46.3701
46.3904
46.3758
46.3869
46.0213
46.1688
46.1207
46.112
46.2015
46.1642
46.5021
46.3973
46.4762
46.4414
46.5212
46.4255
46.5143
46.5012
46.4713
46.5291
46.4749
46.5054
46.5018
46.5419
46.4233
46.6159
46.4223
46.3805
46.5512
46.5335
46.5333
46.6795
46.4985
46.5981
46.4851
46.7517
46.5501
46.5395
46.5595
46.5106
46.5528
46.5361
46.5626
46.8187
46.7424
46.7083
46.9323
46.9636
46.8011
46.6037
46.8036
46.8265
46.6632
46.7478
46.8127
46.4587
46.6448
46.7056
46.7701
46.5754
47.1854
47.0628
46.9213
47.1154
47.1453
46.7851
46.9497
47.3912
47.6463
47.1971
47.2417
47.4873
46.8902
46.2474
46.2668
46.2849
46.2501
46.2726
46.3025
46.2743
46.2889
46.3201
46.3444
46.3429
46.3296
46.3519
46.3706
46.3815
46.1743
46.2245
46.2514
46.1673
46.1621
46.2314
46.2682
46.2075
46.2053
46.3895
46.3914
46.4029
46.3793
46.3976
46.4105
46.4188
46.4204
46.4467
46.1821
46.242
46.2092
46.232
46.2729
46.2449
46.4386
46.5062
46.4618
46.4457
46.4545
46.3635
46.5048
46.3935
46.358
46.4732
46.5658
46.4596
46.4873
46.4779
46.5095
46.6781
46.6219
46.5314
46.7153
46.7107
46.7099
46.4713
46.6598
46.6112
46.6017
46.6712
46.7257
46.3557
46.5912
46.6527
46.6775
46.564
46.9544
46.8536
46.6977
46.8406
46.934
46.6218
46.7577
47.1061
47.2899
46.8784
47.0014
47.1383
46.7457
46.2905
46.3121
46.3226
46.302
46.311
46.3429
46.327
46.3353
46.3508
46.3645
46.3725
46.3705
46.3844
46.3944
46.4111
46.2564
46.2665
46.2781
46.2306
46.25
46.2665
46.2893
46.2445
46.2819
46.4182
46.424
46.4356
46.4134
46.4335
46.4442
46.4519
46.4616
46.4672
46.2665
46.296
46.2724
46.2878
46.3108
46.2893
46.4731
46.4906
46.4853
46.492
46.5036
46.3601
46.4561
46.3982
46.368
46.4517
46.4995
46.5509
46.5636
46.5267
46.662
46.5802
46.5562
46.4264
46.6252
46.535
46.6521
46.3921
46.6062
46.486
46.5895
46.6237
46.6343
46.3488
46.6119
46.5672
46.5869
46.664
46.7729
46.7156
46.5532
46.684
46.7886
46.5035
46.6162
46.9053
47.0138
46.7134
46.8304
46.917
46.6296
46.3296
46.3445
46.36
46.3457
46.3549
46.3767
46.3606
46.3713
46.3851
46.4017
46.3976
46.4005
46.4203
46.4248
46.428
46.2929
46.3359
46.3055
46.267
46.3026
46.3088
46.3238
46.3025
46.3255
46.4428
46.4595
46.4643
46.4281
46.4502
46.4677
46.4756
46.4764
46.4841
46.3134
46.3247
46.3026
46.3499
46.3458
46.3222
46.5032
46.5111
46.4958
46.5027
46.5049
46.3789
46.4554
46.4281
46.3995
46.467
46.5658
46.756
46.6026
46.5761
46.751
46.5472
46.547
46.3756
46.6048
46.458
46.6437
46.3771
46.6166
46.451
46.6755
46.493
46.5495
46.534
46.7306
46.4071
46.5543
46.926
46.6772
46.6597
46.4787
46.5728
46.7675
46.4774
46.554
46.762
46.8424
46.6075
46.7037
46.7864
46.5358
46.3697
46.4024
46.3967
46.3795
46.3895
46.4098
46.4018
46.4104
46.4112
46.4277
46.4291
46.424
46.4346
46.4402
46.4548
46.38
46.4286
46.3501
46.337
46.3515
46.3859
46.389
46.3818
46.3826
46.4608
46.4735
46.4826
46.4618
46.4738
46.4865
46.4945
46.4952
46.5098
46.389
46.3785
46.352
46.4331
46.4223
46.3933
46.5097
46.5042
46.5141
46.5167
46.5095
46.4366
46.488
46.5103
46.4858
46.5184
46.5731
46.6682
46.5604
46.5574
46.6007
46.5585
46.5831
46.4016
46.6487
46.4617
46.6901
46.4397
46.684
46.4878
46.6184
46.3743
46.505
46.5061
46.471
46.358
46.419
46.5692
46.6607
46.672
46.4907
46.5525
46.7398
46.519
46.5629
46.6539
46.7411
46.5445
46.6122
46.7092
46.4713
46.4405
46.4843
46.4326
46.4241
46.4336
46.4675
46.4607
46.4658
46.447
46.4615
46.486
46.487
46.5001
46.4839
46.5198
46.4798
46.5215
46.4395
46.4407
46.4226
46.499
46.4901
46.4964
46.4675
46.498
46.5108
46.5158
46.5206
46.5299
46.5408
46.5462
46.5302
46.5571
46.483
46.4736
46.4438
46.5316
46.5276
46.4975
46.5313
46.5297
46.562
46.5546
46.5542
46.5386
46.5514
46.6151
46.5911
46.5831
46.56
46.5747
46.5737
46.5754
46.5704
46.6158
46.6474
46.4761
46.7221
46.5076
46.7511
46.5064
46.7584
46.5223
46.368
46.3795
46.4013
46.4791
46.3472
46.4477
46.4464
46.4659
46.6906
46.7016
46.5489
46.5801
46.741
46.5728
46.5989
46.5865
46.6847
46.5548
46.596
46.673
46.4804
46.5333
46.5865
46.5194
46.5107
46.5154
46.5685
46.5631
46.5664
46.5363
46.5453
46.5842
46.5874
46.5929
46.5603
46.6052
46.5738
46.635
46.5423
46.5546
46.5248
46.6151
46.5983
46.6191
46.5846
46.5672
46.5765
46.5848
46.6057
46.6102
46.6178
46.6257
46.5911
46.6313
46.58
46.5824
46.5528
46.6308
46.637
46.6094
46.5886
46.5913
46.6356
46.6273
46.6316
46.6395
46.6137
46.7064
46.682
46.6435
46.6108
46.6017
46.6537
46.6528
46.6491
46.6747
46.702
46.5317
46.7909
46.5421
46.7958
46.539
46.8295
46.564
46.503
46.618
46.6726
46.5934
46.758
46.8137
46.9668
46.6696
46.7195
46.7379
46.6107
46.6351
46.7786
46.6533
46.6739
46.6289
46.6882
46.6326
46.6632
46.7172
46.6812
46.6367
46.6886
46.6152
46.6114
46.6137
46.6668
46.6611
46.6636
46.6384
46.6433
46.6873
46.6909
46.696
46.6543
46.7055
46.6916
46.7435
46.6484
46.6717
46.6279
46.7179
46.7009
46.7204
46.6744
46.6601
46.6658
46.6713
46.7065
46.7105
46.7146
46.7198
46.6762
46.7235
46.6832
46.691
46.6653
46.7345
46.7438
46.7196
46.6719
46.6783
46.7255
46.7177
46.7246
46.7252
46.6785
46.7935
46.7706
46.721
46.6989
46.7025
46.7421
46.7404
46.7501
46.7301
46.7656
46.5613
46.857
46.6007
46.8535
46.5978
46.8899
46.6537
46.878
46.9054
47.0646
46.715
46.8972
46.9356
47.0104
46.8132
46.7663
46.7941
46.6813
46.6965
46.8145
46.7019
46.7098
46.6762
46.7317
46.68
46.6796
46.7413
46.8405
46.7404
46.7885
46.7206
46.7153
46.7161
46.7765
46.7708
46.7697
46.7441
46.7497
46.7951
46.7978
46.8036
46.7576
46.8105
46.7928
46.8408
46.7557
46.7744
46.7334
46.8147
46.7984
46.8233
46.7822
46.7623
46.7621
46.7692
46.811
46.8145
46.8113
46.8199
46.7724
46.8218
46.7847
46.7958
46.7737
46.8359
46.8511
46.8302
46.7651
46.7727
46.8193
46.8123
46.8197
46.8155
46.7673
46.8834
46.8628
46.8153
46.7822
46.794
46.8222
46.8235
46.833
46.811
46.8531
46.6512
46.9262
46.7145
46.9329
46.6991
46.9591
46.7718
46.8979
46.9408
46.9651
46.7786
46.9054
46.9458
46.9462
46.8669
46.832
46.8645
46.7134
46.7205
46.818
46.7112
46.7282
46.6924
46.7567
46.7431
46.7257
46.7848
46.9173
46.8411
46.9046
46.834
46.8298
46.8267
46.894
46.8917
46.8865
46.8525
46.8587
46.9074
46.909
46.9163
46.8645
46.9207
46.896
46.9568
46.8429
46.8693
46.8287
46.9152
46.9038
46.9252
46.8908
46.8676
46.8612
46.8712
46.9201
46.9224
46.9135
46.9245
46.8727
46.9252
46.8932
46.9121
46.8892
46.9547
46.9764
46.9524
46.8624
46.8699
46.9194
46.913
46.9198
46.9143
46.8691
46.998
46.9706
46.9267
46.8667
46.8746
46.9081
46.9103
46.9166
46.9013
46.9565
46.7446
46.9885
46.8072
47.0026
46.7577
47.0036
46.8144
46.9208
46.9485
46.9486
46.7951
46.9382
46.9492
46.9617
46.9273
46.8945
46.9077
46.7233
46.7465
46.8773
46.7584
46.7704
46.7777
46.8105
46.792
46.8243
46.8244
46.9881
46.9717
47.0401
46.9569
46.9565
46.9492
47.0224
47.0237
47.0145
46.9675
46.9758
47.0275
47.0278
47.0373
46.979
47.0397
47.0285
47.1053
46.9751
46.9978
46.9612
47.0595
47.0447
47.0764
47.0322
46.9795
46.9699
46.9799
47.038
47.0389
47.0285
47.0376
46.98
47.037
47.0215
47.0442
47.0213
47.094
47.1179
47.0965
46.966
46.9726
47.0277
47.0216
47.0262
47.0316
46.9898
47.1403
47.0997
47.0632
46.9564
46.9628
47.0004
47.0031
47.0093
47.0101
47.0672
46.7607
47.014
46.8122
47.0624
46.7797
47.0367
46.8242
46.95
46.9675
46.9847
46.8138
46.9566
46.9836
46.9979
46.9873
46.9163
46.921
46.7878
46.7951
46.9314
46.8126
46.8161
46.8472
46.8374
46.8419
46.8549
46.8511
47.0496
47.1104
47.1833
47.0898
47.0922
47.0815
47.158
47.1615
47.149
47.0894
47.1003
47.1546
47.1529
47.1653
47.1024
47.1677
47.1796
47.2507
47.1123
47.152
47.0995
47.2088
47.1799
47.2231
47.1634
47.1009
47.0895
47.0984
47.1642
47.1655
47.153
47.1631
47.0976
47.1615
47.1691
47.1986
47.1741
47.2431
47.2824
47.2499
47.0803
47.0845
47.148
47.1406
47.1441
47.1782
47.1409
47.3342
47.2621
47.2176
47.0532
47.0607
47.0999
47.1042
47.1106
47.1275
47.1831
46.823
47.0785
46.8541
47.1552
46.8851
47.1207
46.9033
46.958
46.9622
46.9962
46.8242
46.9498
46.889
46.9731
47.033
46.9382
46.9605
46.8288
46.8268
46.9365
46.8338
46.8321
46.833
46.8582
46.866
46.8016
46.8634
46.9075
47.2569
47.3298
47.2272
47.2313
47.2171
47.2991
47.302
47.2873