/*--------------------------------*- C++ -*----------------------------------*\
| =========                 |                                                 |
| \\      /  F ield         | OpenFOAM: The Open Source CFD Toolbox           |
|  \\    /   O peration     | Version:  5.x                                   |
|   \\  /    A nd           | Web:      www.OpenFOAM.org                      |
|    \\/     M anipulation  |                                                 |
\*---------------------------------------------------------------------------*/
FoamFile
{
    version     2.0;
    format      ascii;
    class       volScalarField;
    location    "3.55";
    object      Ksl;
}
// * * * * * * * * * * * * * * * * * * * * * * * * * * * * * * * * * * * * * //

dimensions      [1 -3 -1 0 0 0 0];

internalField   nonuniform List<scalar> 
10571
(
7770.69
10794.5
11302.7
2246.51
5611.59
3717.82
1294.38
1482.12
7259.68
3141.31
3868.18
2006.62
4768.75
3701.98
2101.24
3300.37
9055.97
5254.82
11429.6
4851.16
7655.06
11524.4
11615.6
11623.7
2393.52
1294.81
937.315
7139.26
10454.7
3269.65
580.162
611.265
3463.29
8666.08
2992.83
839.158
690.335
837.61
1902.53
6545.86
1796.63
122.139
66.9026
237.874
8068.58
347.623
292.076
1700.04
1681.04
6091.89
968.351
9456.95
7580.52
8360.92
3002.31
1404.36
8407.88
7651.79
10825.1
4459.24
480.747
338.64
4330.37
10541.7
557.221
125.78
58.387
425.661
8094.82
355.129
191.954
834.251
5224.53
8763.59
6398.51
4207.61
7192.04
10371.3
5137.14
5730.47
9009.27
10119.5
2978.61
4915.46
513.918
601.788
6111.26
10673.7
182.962
173.523
117.112
426.788
5891.83
327.908
191.868
567.47
10234
94.8221
4486.28
1610.76
6152.36
56.7736
993.203
4364.24
1604.83
4342.05
510.329
104.753
531.972
3014.32
623.809
4323.83
118.055
120.883
341.9
513.459
688.833
381.894
365.305
478.212
10045.9
66.354
16.9676
2870.5
3170.79
33.9083
7.5764
478.826
261.967
428.33
6762.07
134.143
19.5236
73.6476
285.379
101.593
322.19
11108.5
99.9155
35.2428
173.048
236.568
169.082
262.734
191.139
322.361
70.1973
68.2581
4.42574
51.6677
3774.47
30.4958
2.16435
26.4608
36.1086
62.7079
252.977
36.5651
-2.99578e-12
12.7528
9.50511
20.9251
74.5615
88.5318
138.399
55.5258
87.0315
47.5377
98.4389
39.1418
249.988
253.746
113.366
23.8661
40.9399
9.57658
0.985033
8.96317
30.9279
0.862857
0
9.21582
48.0069
0
1.26881
6.30744
9.12888
6.4269
16.3021
33.113
0
67.4761
75.8839
49.825
20.0991
31.9495
0
82.4798
213.453
185.418
19.9979
47.8748
4.86455
0
13.7923
29.296
3.3601
1.71262
8.11688
27.7355
0
1.09908
19.269
5.72492
4.29391
11.7922
6.73365
0
6.44524
27.0065
38.4393
13.7857
46.9253
5.71261
83.2886
82.7796
10.5995
43.6351
8.94171
10.6671
12.6658
15.4766
2.35271
1.15909
7.01776
6.0643
16.9517
0
2.34393
2.43093
11.7901
16.5166
0
7.54938
10.012
12.3235
9.7824
4.9523
21.3049
65.0178
25.1096
38.4602
4.33711
8.15649
12.9576
19.5906
2.97588
1.71883
4.54526
7.92794
0
7.1273
0.782923
3.76163
8.05398
12.1057
0
0
13.4104
11.6816
16.5578
0
7.75826
12.4653
30.8907
28.1541
17.5797
6.39542
20.0409
7.21528
2.48829
1.16935
7.10877
-2.60328e-13
0
2.73679
0
4.33585
16.0265
3.54951
0
0
13.2968
11.2514
81.5957
0
0
0
28.6972
25.0161
18.5539
30.5555
13.7801
0
4.82946
0.56632
5.13836
23.2876
0
0
0
1.25654
11.3359
4.47699
0
0
6.41097
56.6564
25.4014
0
0
0
20.161
-5.34552e-14
25.9928
13.1393
14.7109
0
0.598354
3.32504
5.04325
8.00401
0
0
0.773194
1.87705
1.10033
3.84747
0
0
-1.77786e-13
0
0
0
0
0
35.8539
0
9.31958
26.8489
15.8761
0
1.69466
2.83703
5.01188
18.2874
0
0
0
1.25596
0.101641
0
0
0
0
0
0
0
0
0
18.7135
0
4.05677
5.0377
11.7642
0
1.30397
1.74652
6.41117
16.8355
0
0
0
0.612924
0.42179
0
0
0
0
0
0
0
0
0
-1.33622e-13
0
0
3.75451
11.2232
0
1.74782
0.60124
2.78246
8.70088
0
0
0
0
0.325061
0
0
0
0
0
0
0
0
0
12.5492
0
0
0
7.02102
0
0
2.3914
2.66928
15.2381
0
0
0
0
0.164646
2.97892
0
0
0
0
0
0
0
0
19.7344
0
0
8.78122
3.22238
0
0
2.47852
3.59502
4.06689
0
0
0
0.571542
0
0
0
0
0
0
0
0
0
0
0
0
0
0
9.14971
0
0
2.38767
10.3078
3.86416
0
0
0
0
0
0
0
0
0
0
0
0
0
0
0
0
0
0
13.1389
0
0
0.588992
7.73199
12.3261
0
0
0
0
0
0
0
0
0
0
0
0
0
0
0
0
0
0
0
0
0
0
0.53157
0
0
0
0
0
0
0
0
0
0
0
0
0
0
0
0
0
0
0
0
0
0
0
0
0
0
0
0
0
0
0
0
0
0
0
0
0
0
0
0
0
0
0
0
0
0
0
0
0
0
0
0
0
0
0
0
0
0
0
0
0
0
0
0
0
0
0
0
0
0
0
0
0
0
0
0
0
0
0
0
0
0
0
0
0
0
0
0
0
0
0
0
0
0
0
0
0
0
0
0
0
0
0
0
0
0
0
0
0
0
0
0
0
0
0
0
0
0
0
0
0
0
0
0
0
0
0
0
0
0
0
0
0
0
0
0
0
0
0
0
0
0
0
0
0
0
0
0
0
0
0
0
0
0
0
0
0
0
0
0
0
0
0
0
0
0
0
0
0
0
0
0
0
0
0
0
0
0
0
0
0
0
0
0
0
0
0
0
0
0
0
0
0
0
0
0
0
0
0
0
0
0
0
0
0
0
0
0
0
0
0
0
0
0
0
0
0
0
0
0
0
0
0
0
0
0
0
0
0
0
0
0
0
0
0
0
0
0
0
0
0
0
0
0
0
0
0
0
0
0
0
0
0
0
0
0
0
0
0
0
0
0
0
0
0
0
0
0
0
0
0
0
0
0
0
0
0
0
0
0
0
0
0
0
0
0
0
0
0
0
0
0
0
0
0
0
0
0
0
0
0
0
0
0
0
0
0
0
0
0
0
0
0
0
0
0
0
0
0
0
0
0
0
0
0
0
0
0
0
0
0
0
0
0
0
0
0
0
0
0
0
0
0
0
0
0
0
0
0
0
0
0
0
0
0
0
0
0
0
0
0
0
0
0
0
0
0
0
0
0
0
0
0
0
0
0
0
0
0
0
0
0
0
0
0
0
0
0
0
0
0
0
0
0
0
0
0
0
0
0
0
0
0
0
0
0
0
0
0
0
0
0
0
0
0
0
0
0
0
0
0
0
0
0
0
0
0
0
0
0
0
0
0
0
0
0
0
0
0
0
0
0
0
0
0
0
0
0
0
0
0
0
0
0
0
0
0
0
0
0
0
0
0
0
0
0
0
0
0
0
0
0
0
0
0
0
0
0
0
0
0
0
0
0
0
0
0
0
0
0
0
0
0
0
0
0
0
0
0
0
0
0
0
0
0
0
0
0
0
0
0
0
0
0
0
0
0
0
0
0
0
0
0
0
0
0
0
0
0
0
0
0
0
0
0
0
0
0
0
0
0
0
0
0
0
0
0
0
0
0
0
0
0
0
0
0
0
0
0
0
0
0
0
0
0
0
0
0
0
0
0
0
0
0
0
0
0
0
0
0
0
0
0
0
0
0
0
0
0
0
0
0
0
0
0
0
0
0
0
0
0
0
0
0
0
0
0
0
0
0
0
0
0
0
0
0
0
0
0
0
0
0
0
0
0
0
0
0
0
0
0
0
0
0
0
0
0
0
0
0
0
0
0
0
0
0
0
0
0
0
0
0
0
0
0
0
0
0
0
0
0
0
0
0
0
0
0
0
0
0
0
0
0
0
0
0
0
0
0
0
0
0
0
0
0
0
0
0
0
0
0
0
0
0
0
0
0
0
0
0
0
0
0
0
0
0
0
0
0
0
0
0
0
0
0
0
0
0
0
0
0
0
0
0
0
0
0
0
0
0
0
0
0
0
0
0
0
0
0
0
0
0
0
0
0
0
0
0
0
0
0
0
0
0
0
0
0
0
0
0
0
0
0
0
0
0
0
0
0
0
0
0
0
0
0
0
0
0
0
0
0
0
0
0
0
0
0
0
0
0
0
0
0
0
0
0
0
0
0
0
0
0
0
0
0
0
0
0
0
0
0
0
0
0
0
0
0
0
0
0
0
0
0
0
0
0
0
0
0
0
0
0
0
0
0
0
0
0
0
0
0
0
0
0
0
0
0
0
0
0
0
0
0
0
0
0
0
0
0
0
0
0
0
0
0
0
0
0
0
0
0
0
0
0
0
0
0
0
0
0
0
0
0
0
0
0
0
0
0
0
0
0
0
0
0
0
0
0
0
0
0
0
0
0
0
0
0
0
0
0
0
0
0
0
0
0
0
0
0
0
0
0
0
0
0
0
0
0
0
0
0
0
0
0
0
0
0
0
0
0
0
0
0
0
0
0
0
0
0
0
0
0
0
0
0
0
0
0
0
0
0
0
0
0
0
0
0
0
0
0
0
0
0
0
0
0
0
0
0
0
0
0
0
0
0
0
0
0
0
0
0
0
0
0
0
0
0
0
0
0
0
0
0
0
0
0
0
0
0
0
0
0
0
0
0
0
0
0
0
0
0
0
0
0
0
0
0
0
0
0
0
0
0
0
0
0
0
0
0
0
0
0
0
0
0
0
0
0
0
0
0
0
0
0
0
0
0
0
0
0
0
0
0
0
0
0
0
0
0
0
0
0
0
0
0
0
0
0
0
0
0
0
0
0
0
0
0
0
0
0
0
0
0
0
0
0
0
0
0
0
0
0
0
0
0
0
0
0
0
0
0
0
0
0
0
0
0
0
0
0
0
0
0
0
0
0
0
0
0
0
0
0
0
0
0
0
0
0
0
0
0
0
0
0
0
0
0
0
0
0
0
0
0
0
0
0
0
0
0
0
0
0
0
0
0
0
0
0
0
0
0
0
0
0
0
0
0
0
0
0
0
0
0
0
0
0
0
0
0
0
0
0
0
0
0
0
0
0
0
0
0
0
0
0
0
0
0
0
0
0
0
0
0
0
0
0
0
0
0
0
0
0
0
0
0
0
0
0
0
0
0
0
0
0
0
0
0
0
0
0
0
0
0
0
0
0
0
0
0
0
0
0
0
0
0
0
0
0
0
0
0
0
0
0
0
0
0
0
0
0
0
0
0
0
0
0
0
0
0
0
0
0
0
0
0
0
0
0
0
0
0
0
0
0
0
0
9785.52
3205.79
9085.7
7622.71
1089.99
1511.71
3118.76
3454.36
6168.11
10287.8
9441.73
4638.26
3719.74
8449.56
7221.75
6147.04
7871.13
2675.73
1488.09
5536.54
785.596
2659.01
3311.93
1172.9
4316.81
2724.29
5460.76
9768.1
9306.27
2692.75
5251.77
6296
3965.7
6392.04
4878.56
1643.14
1130.77
5800.05
7380.24
985.982
1306.19
6141.39
3670.96
3817.41
6452.88
2447.3
6395.27
5592.22
8603.78
5750.86
4649.52
2479.24
1606.53
4088.36
4015.67
2209.65
1428.9
3509.13
1795.06
1111.18
746.511
1290.85
1366.63
993.701
1725.29
2719.31
3592.27
6014.25
7494.1
5366.93
6859.82
8207.23
7065.01
9579.83
9865.83
6407.94
4552.2
9312.65
6522.91
1559.82
3791.22
5269.8
7922.33
6100.76
6290.43
9519.13
8442.57
5832.33
10303.3
10133.7
9117.28
7712.28
9259.22
10085.8
9139.58
10258
11487.2
10223.6
8941.22
11554.1
10691.4
3901.25
4474.31
1441.57
7350.95
8579.55
8787.29
6546.6
10308.5
8185.65
11483.9
9859.18
3031.64
10728.1
5871.63
5255.2
2576.55
3484.52
1208.76
3684.63
982.776
3452.45
1485.11
8709.79
4922.97
8936.11
8398.82
2682.88
7482.75
8759.58
8091.63
6342.45
6052.83
4028.63
2988.62
3951.44
6975.82
7229.56
4587.31
7594.64
1486.22
3534.32
2131.27
1144.97
982.313
6341.83
5837.84
3260.89
7040.88
5930.39
6313.83
1459.23
8034.03
12680.2
11220.5
1914.47
1333.23
8506.19
2568.16
4635.2
7475.49
8388.27
300.738
1536.83
953.074
3265.47
6572.85
12122.4
2825.6
11890.5
11248.1
1233.26
1750.41
3072.61
11150.9
12273
1606.71
2616.45
3145.07
3731.95
2802.56
2118.07
350.481
750.588
270.005
271.315
792.92
337.765
1521.32
5073.83
898.512
1439.66
3452.93
12423.7
9251.15
1179.68
5917.98
669.541
743.07
2630.72
3446.79
916.664
2754.42
3247.98
10566.9
9984.23
10379.6
9826.41
12326.9
9948.66
10905.7
9390.52
10299.9
5152.78
3692.48
1909.96
8432.03
9934.03
5115.96
7544.64
5920.69
7954.78
9692.45
5820.98
915.77
995.881
7445.32
2546.4
3810.98
5327.49
6662.95
9678.56
5615.7
8426.92
3552.51
3950.01
455.624
1143.11
247.047
1128.12
344.767
264.036
227.638
2836.53
835.11
3246.39
375.664
5386.34
429.596
3195.45
9151.77
400.969
445.483
244.32
289.652
323.759
225.874
387.553
682.218
532.901
224.698
363.426
410.924
1081.04
3220.86
5806.69
471.002
684.345
292.999
1172.45
934.481
426.695
1338.06
6085.16
2809.31
973.01
6099.23
9060.45
10183.1
11426.8
12761.3
2801.31
7595.73
6628.66
9355.98
8645.62
9941.12
9358.34
11723.4
9486.27
10642
7069.77
12548.1
7840.27
10766.4
9624.62
10671.6
9313.95
12224
9288.36
10805.7
12925.4
10587.4
10308.5
6757.08
8641.63
10711.1
8607.12
8673.69
8846.41
11922.8
10805.1
5028.16
6389.88
8660.54
10949.6
6661.67
9412.45
2726.64
593.637
366.13
444.141
135.983
209.106
208.437
434.771
182.396
5333.81
458.964
1734.61
421.058
2999.24
366.929
1118.64
5865.62
402
516.175
285.667
357.752
316.883
250.881
412.207
295.086
546.219
223.42
404.996
347.605
596.859
6955.19
3959.14
2521.85
2989.73
558.612
6497.87
7027.52
2832.16
2541.86
6449.13
8859.86
5137.12
8959.74
11838.8
11704.1
11959.5
822.446
9447.35
10389.1
9575.1
545.172
1323.69
1391.84
2142.29
12633.7
5670
10623.9
6840.96
12257.4
4008.86
10955
11197.1
11725.6
9427.23
4857.69
6705.32
963.245
741.138
558.741
10968.6
8941.61
9101.13
7049.36
3191.3
2601.06
503.743
1287.72
345.566
104.842
6416.08
9247.52
9820.56
4398.26
8429.32
300.836
198.288
232.39
348.604
113.841
98.538
99.592
462.951
119.334
1518.89
406.303
1216.62
454.706
745.647
325.101
704.114
3412.54
608.461
562.237
301.412
513.946
328.079
312.434
418.027
476.337
467.739
292.538
449.032
387.215
504.303
931.385
73.2067
9255.79
6548.78
8607
9241.87
1079.71
8589.37
7995.29
9053.7
10406.8
9741.83
9188.65
11837.1
12126.1
157.626
214.964
198.188
89.1985
60.1185
55.3788
37.1477
65.1175
16.413
12260.8
2230.95
8667.46
4322.04
11326.7
911.849
5440.48
11006.4
9935.86
218.765
514.363
198.319
167.303
356.196
143.415
1310.79
423.383
1948.62
952.849
682.316
143.012
89.7344
302.172
191.91
124.554
925.459
1929.04
1132.22
819.873
474.934
192.224
155.91
112.8
432.076
131.129
60.9046
46.785
222.273
118.613
309.64
311.013
453.732
428.721
187.32
288.118
225.317
253.485
366.532
449.772
291.809
487.663
394.468
391.889
877.384
427.848
520.733
233.114
301.404
512.999
260.591
34.8617
22.5859
8406.78
92.1369
1905.59
1156.23
41.7085
157.388
9330.66
9742.22
3872.81
2461.42
8189.16
11331.2
16852.1
140.191
161.587
27.7526
62.8402
13.1094
70.4342
25.0727
85.39
30.7248
10986.2
432.501
2750.91
2764.85
12001.3
441.672
862.754
2693.83
359.389
99.6339
143.91
77.4109
59.4508
75.06
50.7939
3357.69
375.772
5274.42
69.2669
905.947
103.905
483.027
22580.3
9668.61
10958.4
7518.77
22659.5
17635
23057
56.3802
86.1124
69.3644
53.4927
36.0718
4726.48
307.749
2423.44
60.2295
530.835
180.685
1218.8
13471.4
7672.88
15827.1
13722.9
24368.4
14399.4
14489.6
85.181
126.476
52.6966
152.057
117.524
177.799
31.3108
234.276
95.9449
145.884
281.988
240.611
107.306
68.0354
167.354
84.1956
90.699
265.467
235.968
272.451
620.3
300.197
253.974
535.908
339.553
373.346
248.854
194.426
358.165
256.328
30.3786
43.2635
62.7977
22.3306
17.0078
22.2436
28.2877
18.3759
91.7514
464.44
63.2484
13.6471
39.5841
3036.76
126.935
125.13
66.4439
19.507
66.2685
0.253975
83.886
30.308
76.8639
17.2095
1329.74
319.914
119.836
121.831
30.2177
60.259
54.061
101.756
0.57331
32.392
4.88719
56.7176
397.239
0
0
58.025
53.7869
31.5829
43.1754
20.7983
18.6114
12.7407
55.4692
22.1207
41.3081
31.5164
44.953
25.9232
2573.77
106.047
2349.68
-4.77046e-13
0
0
0
14.0287
88.6648
73.9127
42.9071
36.3579
28.5583
85.6603
15.1225
32.7649
13.6997
65.1171
18.7741
1209.6
164.798
1829.27
0
0
0
0
105.84
25.9085
53.6988
113.595
89.3025
76.7421
133.081
74.5107
109.605
97.297
142.597
51.7637
59.1746
33.6017
64.1402
83.6102
0.446267
47.3224
0
326.531
0
0
122.346
68.6944
168.588
324.293
134.742
152.025
366.689
260.835
452.242
258.977
202
289.622
237.705
21.6475
43.1785
1.53537
13.9396
20.8966
18.0402
13.6124
17.2188
4.38885
20.6132
20.6319
6.31182
27.8425
19.3258
8.20748
71.609
38.9912
22.467
68.215
22.2398
64.3271
26.1823
49.3635
38.4255
24.3413
15.3689
12.0388
18.2994
24.5235
21.2551
11.1401
36.3457
8.64539
24.7365
0
0
0
0
0
18.7754
3.77554
12.5113
18.2976
41.8724
14.9852
11.1463
39.1942
12.9975
46.4566
3.31059
34.3047
20.1524
0
0
0
0
0
0
0
28.6705
12.5617
16.665
25.0416
17.3231
16.5646
35.1071
10.2757
21.8375
16.1641
57.4065
3.18355
0
0
0
0
0
0
0
26.3405
-5.57772e-12
118.62
11.7544
112.494
12.9768
17.4348
11.7131
47.5932
25.07
101.851
101.703
5.65755
47.7572
64.6042
84.4234
5.05537
49.1204
0
0
0
0
36.8913
0
119.617
73.9625
56.6716
47.5181
29.0645
226.778
193.613
146.001
145.935
72.6899
202.695
45.4498
37.6388
-9.10921e-14
20.6365
19.3332
0
24.2226
15.3238
12.2076
7.48717
21.1775
14.6879
8.89501
6.79757
7.8777
16.3031
24.9149
44.3361
30.9647
46.3924
72.4768
39.9304
34.866
16.7411
19.008
11.8444
3.60557
18.8232
20.1717
21.9621
9.82035
10.6395
20.3661
20.9376
23.0389
20.6616
12.5827
0
8.50517
6.45502
19.0823
3.02439
25.5171
0
12.2454
0
0
0
0
0
0
0
0
5.43673
6.91937
0
13.1873
13.3041
14.143
41.1953
4.59218
25.7615
7.38614
32.1467
2.59739
0
0
0
0
0
0
0
0
0
0
-1.34342e-13
9.33947
-1.65133e-12
16.6
0
6.45863
27.5721
95.4163
91.6474
10.9668
24.0069
61.0163
79.9937
37.0103
27.2405
-1.94114e-12
18.4682
-1.60345e-12
3.82084
20.5524
13.412
114.365
56.3864
50.1236
59.5054
24.5494
52.152
28.8852
9.28648
-4.0246e-12
19.3593
14.2936
20.2021
27.1608
12.4343
8.22614
14.166
0
10.7941
17.3377
25.0633
17.0743
45.6783
23.1558
41.3421
29.5002
37.2808
37.075
34.3471
20.7243
16.415
13.0733
8.08103
21.07
5.66058
11.3918
7.56583
8.38913
18.705
4.39341
25.1122
20.8462
13.2329
17.1488
14.4272
2.22431
28.5155
16.3802
10.83
10.5726
12.2614
12.3705
0
0
12.9897
6.48854
16.494
29.3779
-1.12672e-12
11.4143
15.9782
0
0
-9.71167e-14
0
0
0
0
0
0
17.0888
42.0765
55.1567
-8.79678e-14
19.5098
38.8714
46.7785
34.613
0
0
2.14775
0
0
0
0
27.4543
12.3531
5.52876
11.2385
0
63.5571
36.5029
23.3888
3.90658
34.7016
15.1961
12.1872
24.8475
25.8978
0
8.70143
10.1886
19.3692
6.94362
15.0517
3.16759
30.085
8.2832
18.3352
20.5256
5.1584
56.428
31.6276
19.2951
18.5017
12.4843
22.481
20.6293
10.6155
3.18039
12.3861
13.352
3.80497
4.4004
29.9078
13.1194
7.8561
5.53993
26.0294
7.42697
5.43607
0
12.3778
9.20523
14.0389
-1.17362e-12
0.907223
0
0
0
9.37599
21.6675
11.1844
19.3235
19.168
0
0
0
0
0
0
0
0
6.15125
34.8086
31.228
42.0396
5.77729
28.2001
28.1063
74.5122
34.8679
0
0
0
0
0
0
0
25.8644
0
0.847192
21.0542
0
9.79549
52.1323
51.9515
12.4674
12.6084
13.5882
35.5882
28.0905
28.4715
18.0631
22.9641
39.4534
13.8677
18.8958
22.6162
18.4392
19.5742
13.762
42.47
27.6285
22.2147
15.5941
40.7261
9.97488
12.8167
13.3705
8.83144
13.7473
16.3354
14.2872
12.914
12.539
6.46369
6.27233
6.08647
0
4.23124
0
0
0
9.10539
23.4603
11.277
12.0514
-5.92778e-12
0
0
0
0
0
9.47116
33.3427
10.9137
9.24364
18.899
0
0
0
0
0
0
0
0
0
47.1794
31.501
44.8626
43.4933
40.0609
5.92766
22.2551
18.0649
0
0
0
0
0
0
0
4.5825
0
3.83749
0.452152
0
0
100.221
48.3798
35.9296
12.8526
26.8001
48.8377
37.1283
23.2638
9.34454
3.91221
10.34
10.9866
13.2
14.744
0
6.94986
0
24.7685
6.60894
3.49543
30.0458
17.9722
3.32514
0
39.9108
9.32716
14.8164
3.63084
18.3718
0.943692
9.12893
13.6904
5.28248
0
0
0
4.31415
0
0
18.3182
9.99732
23.4974
14.5786
-2.18434e-12
0
0
0
0
0
9.70562
13.9511
8.96692
10.4806
10.0854
0
0
0
0
0
0
0
0
0
35.3148
0.996336
-6.21247e-14
-1.09519e-12
9.84707
0
0
0.56113
0
0
0
0
0
0
0
0
0
0
0
0
0
39.7094
36.4771
27.9253
41.6724
44.6009
21.1023
20.3707
39.1231
19.9145
26.2495
11.6314
21.309
7.79886
0
16.1602
0
0
31.376
0
8.96183
5.03811
6.83928
0
0
12.3604
14.6477
12.8864
21.6375
14.1128
21.9819
20.9996
27.1546
5.64086
0
0
0
0
0
0
14.5855
-2.29598e-12
14.8203
4.91247
9.94026
0
0
0
0
0
2.55793
3.54583
0.0966368
-6.85985e-13
-9.4419e-13
0
0
0
0
0
0
0
0
0
0
0
0
0
0
0
0
0
0
0
0
0
0
0
0
0
0
0
0
0
0
6.56874
0.25976
34.7849
46.9793
26.8667
18.64
18.1198
45.7075
18.5549
16.4486
31.2295
20.3383
5.00031
19.1359
20.0395
0
0
0
0.177336
4.56057
0
0
3.07741
0
7.5563
3.90866
20.3114
7.98387
5.8915
4.15421
13.3192
28.2886
6.16096
0
0
0
0
0
0
12.2592
17.2648
13.4513
0.0929698
8.53501
0
0
0
0
0
0
0
0
0
3.56053
0
0
0
0
0
0
0
0
0
0
0
0
0
0
0
0
0
0
0
0
0
0
0
0
0
0
0
0
0
0
6.73815
0
20.3066
3.91962
21.4683
20.6747
4.12222
17.0499
15.1882
-5.27937e-14
46.6927
9.86879
26.446
0
-1.12268e-13
0
0
3.20932
0
0
0
3.30837
0
0
14.9204
7.08413
17.8631
23.5116
16.4537
26.0996
21.5847
0.332081
14.3166
0
0
0
0
0
0
3.89585
0
3.38497
2.99386
9.64376
0
0
0
0
0
0
0
0
0
0
0
0
0
0
0
0
0
0
0
3.70376
0
0
0
0
0
0
0
0
0
0
0
0
0
0
0
0
0
0
0
0
0
0
0.308394
0
3.12484
0
0
3.32695
26.1568
20.0165
12.4126
6.87518
4.73734
15.8738
13.0567
0
0
0
0
0
0
0
0
0
0
2.05045
16.993
13.7631
9.05748
7.80075
0
4.4663
0
0
0
0
0
0
0
5.92665
0
8.47131
1.96941
0
0
0
0
0
0
0
0
0
0
0
0
0
0
0
0
0
0
0
0
0
0
0
0
0
0
0
0
0
0
0
0
0
0
0
0
0
0
0
0
0
0
0
0
0
4.47303
11.9125
0
2.17729
11.1759
9.69167
15.6277
5.41987
22.8538
10.6963
7.82814
0
0
0
0
0
0
0
0
0
30.3162
8.07324
15.3911
11.6022
22.6161
8.45099
18.1658
0
0
0
0
0
0
0
0
0.0983952
10.126
3.64061
1.63894
0
0
0
0
0
0
0
0
0
0
0
0
0
0
0
0
0
0
0
0
0
0
0
0
0
0
0
0
0
0
0
0
0
0
0
0
0
0
0
0
0
0
0
11.0049
0
0
0
0
0
2.45546
4.63733
11.8833
3.83245
14.1529
0
0.384995
0
0
0
0
0
0
0
0
0
8.89993
1.09776
9.60428
15.0399
13.2135
6.92265
10.6069
24.9504
0.235359
0
0
0
0
0
0
8.11351
0
7.69698
0
0
0
0
0
0
0
0
0
0
0
0
0
0
0
0
0
0
0
0
0
0
0
0
0
0
0
0
0
0
0
0
0
0
0
0
0
0
0
0
0
0
0
0
0
0
0
0
0
0
11.5661
8.18776
0
0
6.44716
7.75666
6.42827
0
0
0
0
0
0
0
0
0
16.5578
21.7606
20.6547
18.4583
5.12761
37.0291
31.5128
12.1573
7.06175
0
0
0
0
0
0
0
0
1.58889
3.03362
0
0
0
0
0
0
0
0
0
0
0
0
0
0
0
0
0
0
0
0
0
0
0
0
0
0
0
0
0
0
0
0
0
0
0
0
0
0
0
0
0
0
0
0
0
0
0
0
0
0
0
0
0
4.99151
7.59691
0
0
0
0
0
0
0
0
0
0
0
14.3371
10.9547
0
0
0
3.41373
0
0
0
0
0
0
0
0
-3.35968e-14
0
1.34825
0
0
0
0
0
0
0
0
0
0
0
0
0
0
0
0
0
0
0
0
0
0
0
0
0
0
0
0
0
0
0
0
0
0
0
0
0
0
0
0
0
0
0
0
0
0
0
0
0
0
0
0
0
0
0
0
0
0
0
0
0
0
0
0
0
0
0
0
0
0
0
0
0
0
0
0
0
0
0
0
0
0
0
0
0
0
0
0
0
0
0
0
0
0
0
0
0
0
0
0
0
0
0
0
0
0
0
0
0
0
0
0
0
0
0
0
0
0
0
0
0
0
0
0
0
0
0
0
0
0
0
0
0
0
0
0
0
0
0
0
0
0
0
0
0
0
0
0
0
0
0
0
0
0
0
0
0
0
0
0
0
0
0
0
0
0
0
0
0
0
0
0
0
0
0
0
0
0
0
0
0
0
0
0
0
0
0
0
0
0
0
0
0
0
0
0
0
0
0
0
0
0
0
0
0
0
0
0
0
0
0
0
0
0
0
0
0
0
0
0
0
0
0
0
0
0
0
0
0
0
0
0
0
0
0
0
0
0
0
0
0
0
0
0
0
0
0
0
0
0
0
0
0
0
0
0
0
0
0
0
0
0
0
0
0
0
0
0
0
0
0
0
0
0
0
0
0
0
0
0
0
0
0
0
0
0
0
0
0
0
0
0
0
0
0
0
0
0
0
0
0
0
0
0
0
0
0
0
0
0
0
0
0
0
0
0
0
0
0
0
0
0
0
0
0
0
0
0
0
0
0
0
0
0
0
0
0
0
0
0
0
0
0
0
0
0
0
0
0
0
0
0
0
0
0
0
0
0
0
0
0
0
0
0
0
0
0
0
0
0
0
0
0
0
0
0
0
0
0
0
0
0
0
0
0
0
0
0
0
0
0
0
0
0
0
0
0
0
0
0
0
0
0
0
0
0
0
0
0
0
0
0
0
0
0
0
0
0
0
0
0
0
0
0
0
0
0
0
0
0
0
0
0
0
0
0
0
0
0
0
0
0
0
0
0
0
0
0
0
0
0
0
0
0
0
0
0
0
0
0
0
0
0
0
0
0
0
0
0
0
0
0
0
0
0
0
0
0
0
0
0
0
0
0
0
0
0
0
0
0
0
0
0
0
0
0
0
0
0
0
0
0
0
0
0
0
0
0
0
0
0
0
0
0
0
0
0
0
0
0
0
0
0
0
0
0
0
0
0
0
0
0
0
0
0
0
0
0
0
0
0
0
0
0
0
0
0
0
0
0
0
0
0
0
0
0
0
0
0
0
0
0
0
0
0
0
0
0
0
0
0
0
0
0
0
0
0
0
0
0
0
0
0
0
0
0
0
0
0
0
0
0
0
0
0
0
0
0
0
0
0
0
0
0
0
0
0
0
0
0
0
0
0
0
0
0
0
0
0
0
0
0
0
0
0
0
0
0
0
0
0
0
0
0
0
0
0
0
0
0
0
0
0
0
0
0
0
0
0
0
0
0
0
0
0
0
0
0
0
0
0
0
0
0
0
0
0
0
0
0
0
0
0
0
0
0
0
0
0
0
0
0
0
0
0
0
0
0
0
0
0
0
0
0
0
0
0
0
0
0
0
0
0
0
0
0
0
0
0
0
0
0
0
0
0
0
0
0
0
0
0
0
0
0
0
0
0
0
0
0
0
0
0
0
0
0
0
0
0
0
0
0
0
0
0
0
0
0
0
0
0
0
0
0
0
0
0
0
0
0
0
0
0
0
0
0
0
0
0
0
0
0
0
0
0
0
0
0
0
0
0
0
0
0
0
0
0
0
0
0
0
0
0
0
0
0
0
0
0
0
0
0
0
0
0
0
0
0
0
0
0
0
0
0
0
0
0
0
0
0
0
0
0
0
0
0
0
0
0
0
0
0
0
0
0
0
0
0
0
0
0
0
0
0
0
0
0
0
0
0
0
0
0
0
0
0
0
0
0
0
0
0
0
0
0
0
0
0
0
0
0
0
0
0
0
0
0
0
0
0
0
0
0
0
0
0
0
0
0
0
0
0
0
0
0
0
0
0
0
0
0
0
0
0
0
0
0
0
0
0
0
0
0
0
0
0
0
0
0
0
0
0
0
0
0
0
0
0
0
0
0
0
0
0
0
0
0
0
0
0
0
0
0
0
0
0
0
0
0
0
0
0
0
0
0
0
0
0
0
0
0
0
0
0
0
0
0
0
0
0
0
0
0
0
0
0
0
0
0
0
0
0
0
0
0
0
0
0
0
0
0
0
0
0
0
0
0
0
0
0
0
0
0
0
0
0
0
0
0
0
0
0
0
0
0
0
0
0
0
0
0
0
0
0
0
0
0
0
0
0
0
0
0
0
0
0
0
0
0
0
0
0
0
0
0
0
0
0
0
0
0
0
0
0
0
0
0
0
0
0
0
0
0
0
0
0
0
0
0
0
0
0
0
0
0
0
0
0
0
0
0
0
0
0
0
0
0
0
0
0
0
0
0
0
0
0
0
0
0
0
0
0
0
0
0
0
0
0
0
0
0
0
0
0
0
0
0
0
0
0
0
0
0
0
0
0
0
0
0
0
0
0
0
0
0
0
0
0
0
0
0
0
0
0
0
0
0
0
0
0
0
0
0
0
0
0
0
0
0
0
0
0
0
0
0
0
0
0
0
0
0
0
0
0
0
0
0
0
0
0
0
0
0
0
0
0
0
0
0
0
0
0
0
0
0
0
0
0
0
0
0
0
0
0
0
0
0
0
0
0
0
0
0
0
0
0
0
0
0
0
0
0
0
0
0
0
0
0
0
0
0
0
0
0
0
0
0
0
0
0
0
0
0
0
0
0
0
0
0
0
0
0
0
0
0
0
0
0
0
0
0
0
0
0
0
0
0
0
0
0
0
0
0
0
0
0
0
0
0
0
0
0
0
0
0
0
0
0
0
0
0
0
0
0
0
0
0
0
0
0
0
0
0
0
0
0
0
0
0
0
0
0
0
0
0
0
0
0
0
0
0
0
0
0
0
0
0
0
0
0
0
0
0
0
0
0
0
0
0
0
0
0
0
0
0
0
0
0
0
0
0
0
0
0
0
0
0
0
0
0
0
0
0
0
0
0
0
0
0
0
0
0
0
0
0
0
0
0
0
0
0
0
0
0
0
0
0
0
0
0
0
0
0
0
0
0
0
0
0
0
0
0
0
0
0
0
0
0
0
0
0
0
0
0
0
0
0
0
0
0
0
0
0
0
0
0
0
0
0
0
0
0
0
0
0
0
0
0
0
0
0
0
0
0
0
0
0
0
0
0
0
0
0
0
0
0
0
0
0
0
0
0
0
0
0
0
0
0
0
0
0
0
0
0
0
0
0
0
0
0
0
0
0
0
0
0
0
0
0
0
0
0
0
0
0
0
0
0
0
0
0
0
0
0
0
0
0
0
0
0
0
0
0
0
0
0
0
0
0
0
0
0
0
0
0
0
0
0
0
0
0
0
0
0
0
0
0
0
0
0
0
0
0
0
0
0
0
0
0
0
0
0
0
0
0
0
0
0
0
0
0
0
0
0
0
0
0
0
0
0
0
0
0
0
0
0
0
0
0
0
0
0
0
0
0
0
0
0
0
0
0
0
0
0
0
0
0
0
0
0
0
0
0
0
0
0
0
0
0
0
0
0
0
0
0
0
0
0
0
0
0
0
0
0
0
0
0
0
0
0
0
0
0
0
0
0
0
0
0
0
0
0
0
0
0
0
0
0
0
0
0
0
0
0
0
0
0
0
0
0
0
0
0
0
0
0
0
0
0
0
0
0
0
0
0
0
0
0
0
0
0
0
0
0
0
0
0
0
0
0
0
0
0
0
0
0
0
0
0
0
0
0
0
0
0
0
0
0
0
0
0
0
0
0
0
0
0
0
0
0
0
0
0
0
0
0
0
0
0
0
0
0
0
0
0
0
0
0
0
0
0
0
0
0
0
0
0
0
0
0
0
0
0
0
0
0
0
0
0
0
0
0
0
0
0
0
0
0
0
0
0
0
0
0
0
0
0
0
0
0
0
0
0
0
0
0
0
0
0
0
0
0
0
0
0
0
0
0
0
0
0
0
0
0
0
0
0
0
0
0
0
0
0
0
0
0
0
0
0
0
0
0
0
0
0
0
0
0
0
0
0
0
0
0
0
0
0
0
0
0
0
0
0
0
0
0
0
0
0
0
0
0
0
0
0
0
0
0
0
0
0
0
0
0
0
0
0
0
0
0
0
0
0
0
0
0
0
0
0
0
0
0
0
0
0
0
0
0
0
0
0
0
0
0
0
0
0
0
0
0
0
0
0
0
0
0
0
0
0
0
0
0
0
0
0
0
0
0
0
0
0
0
0
0
0
0
0
0
0
0
0
0
0
0
0
0
0
0
0
0
0
0
0
0
0
0
0
0
0
0
0
0
0
0
0
0
0
0
0
0
0
0
0
0
0
0
0
0
0
0
0
0
0
0
0
0
0
0
0
0
0
0
0
0
0
0
0
0
0
0
0
0
0
0
0
0
0
0
0
0
0
0
0
0
0
0
0
0
0
0
0
0
0
0
0
0
0
0
0
0
0
0
0
0
0
0
0
0
0
0
0
0
0
0
0
0
0
0
0
0
0
0
0
0
0
0
0
0
0
0
0
0
0
0
0
0
0
0
0
0
0
0
0
0
0
0
0
0
0
0
0
0
0
0
0
0
0
0
0
0
0
0
0
0
0
0
0
0
0
0
0
0
0
0
0
0
0
0
0
0
0
0
0
0
0
0
0
0
0
0
0
0
0
0
0
0
0
0
0
0
0
0
0
0
0
0
0
0
0
0
0
0
0
0
0
0
0
0
0
0
0
0
0
0
0
0
0
0
0
0
0
0
0
0
0
0
0
0
0
0
0
0
0
0
0
0
0
0
0
0
0
0
0
0
0
0
0
0
0
0
0
0
0
0
0
0
0
0
0
0
0
0
0
0
0
0
0
0
0
0
0
0
0
0
0
0
0
0
0
0
0
0
0
0
0
0
0
0
0
0
0
0
0
0
0
0
0
0
0
0
0
0
0
0
0
0
0
0
0
0
0
0
0
0
0
0
0
0
0
0
0
0
0
0
0
0
0
0
0
0
0
0
0
0
0
0
0
0
0
0
0
0
0
0
0
0
0
0
0
0
0
0
0
0
0
0
0
0
0
0
0
0
0
0
0
0
0
0
0
0
0
0
0
0
0
0
0
0
0
0
0
0
0
0
0
0
0
0
0
0
0
0
0
0
0
0
0
0
0
0
0
0
0
0
0
0
0
0
0
0
0
0
0
0
0
0
0
0
0
0
0
0
0
0
0
0
0
0
0
0
0
0
0
0
0
0
0
0
0
0
0
0
0
0
0
0
0
0
0
0
0
0
0
0
0
0
0
0
0
0
0
0
0
0
0
0
0
0
0
0
0
0
0
0
0
0
0
0
0
0
0
0
0
0
0
0
0
0
0
0
0
0
0
0
0
0
0
0
0
0
0
0
0
0
0
0
0
0
0
0
0
0
0
0
0
0
0
0
0
0
0
0
0
0
0
0
0
0
0
0
0
0
0
0
0
0
0
0
0
0
0
0
0
0
0
0
0
0
0
0
0
0
0
0
0
0
0
0
0
0
0
0
0
0
0
0
0
0
0
0
0
0
0
0
0
0
0
0
0
0
0
0
0
0
0
0
0
0
0
0
0
0
0
0
0
0
0
0
0
0
0
0
0
0
0
0
0
0
0
0
0
0
0
0
0
0
0
0
0
0
0
0
0
0
0
0
0
0
0
0
0
0
0
0
0
0
0
0
0
0
0
0
0
0
0
0
0
0
0
0
0
0
0
0
0
0
0
0
0
0
0
0
0
0
0
0
0
0
0
0
0
0
0
0
0
0
0
0
0
0
0
0
0
0
0
0
0
0
0
0
0
0
0
0
0
0
0
0
0
0
0
0
0
0
0
0
0
0
0
0
0
0
0
0
0
0
0
0
0
0
0
0
0
0
0
0
0
0
0
0
0
0
0
0
0
0
0
0
0
0
0
0
0
0
0
0
0
0
0
0
0
0
0
0
0
0
0
0
0
0
0
0
0
0
0
0
0
0
0
0
0
0
0
0
0
0
0
0
0
0
0
0
0
0
0
0
0
0
0
0
0
0
0
0
0
0
0
0
0
0
0
0
0
0
0
0
0
0
0
0
0
0
0
0
0
0
0
0
0
0
0
0
0
0
0
0
0
0
0
0
0
0
0
0
0
0
0
0
0
0
0
0
0
0
0
0
0
0
0
0
0
0
0
0
0
0
0
0
0
0
0
0
0
0
0
0
0
0
0
0
0
0
0
0
0
0
0
0
0
0
0
0
0
0
0
0
0
0
0
0
0
0
0
0
0
0
0
0
0
0
0
0
0
0
0
0
0
0
0
0
0
0
0
0
0
0
0
0
0
0
0
0
0
0
0
0
0
0
0
0
0
0
0
0
0
0
0
0
0
0
0
0
0
0
0
0
0
0
0
0
0
0
0
0
0
0
0
0
0
0
0
0
0
0
0
0
0
0
0
0
0
0
0
0
0
0
0
0
0
0
0
0
0
0
0
0
0
0
0
0
0
0
0
0
0
0
0
0
0
0
0
0
0
0
0
0
0
0
0
0
0
0
0
0
0
0
0
0
0
0
0
0
0
0
0
0
0
0
0
0
0
0
0
0
0
0
0
0
0
0
0
0
0
0
0
0
0
0
0
0
0
0
0
0
0
0
0
0
0
0
0
0
0
0
0
0
0
0
0
0
0
0
0
0
0
0
0
0
0
0
0
0
0
0
0
0
0
0
0
0
0
0
0
0
0
0
0
0
0
0
0
0
0
0
0
0
0
0
0
0
0
0
0
0
0
0
0
0
0
0
0
0
0
0
0
0
0
0
0
0
0
0
0
0
0
0
0
0
0
0
0
0
0
0
0
0
0
0
0
0
0
0
0
0
0
0
0
0
0
0
0
0
0
0
0
0
0
0
0
0
0
0
0
0
0
0
0
0
0
0
0
0
0
0
0
0
0
0
0
0
0
0
0
0
0
0
0
0
0
0
0
0
0
0
0
0
0
0
0
0
0
0
0
0
0
0
0
0
0
0
0
0
0
0
0
0
0
0
0
0
0
0
0
0
0
0
0
0
0
0
0
0
0
0
0
0
0
0
0
0
0
0
0
0
0
0
0
0
0
0
0
0
0
0
0
0
0
0
0
0
0
0
0
0
0
0
0
0
0
0
0
0
0
0
0
0
0
0
0
0
0
0
0
0
0
0
0
0
0
0
0
0
0
0
0
0
0
0
0
0
0
0
0
0
0
0
0
0
0
0
0
0
0
0
0
0
0
0
0
0
0
0
0
0
0
0
0
0
0
0
0
0
0
0
0
0
0
0
0
0
0
0
0
0
0
0
0
0
0
0
0
0
0
0
0
0
0
0
0
0
0
0
0
0
0
0
0
0
0
0
0
0
0
0
0
0
0
0
0
0
0
0
0
0
0
0
0
0
0
0
0
0
0
0
0
0
0
0
0
0
0
0
0
0
0
0
0
0
0
0
0
0
0
0
0
0
0
0
0
0
0
0
0
0
0
0
0
0
0
0
0
0
0
0
0
0
0
0
0
0
0
0
0
0
0
0
0
0
0
0
0
0
0
0
0
0
0
0
0
0
0
0
0
0
0
0
0
0
0
0
0
0
0
0
0
0
0
0
0
0
0
0
0
0
0
0
0
0
0
0
0
0
0
0
0
0
0
0
0
0
0
0
0
0
0
0
0
0
0
0
0
0
0
0
0
0
0
0
0
0
0
0
0
0
0
0
0
0
0
0
0
0
0
0
0
0
0
0
0
0
0
0
0
0
0
0
0
0
0
0
0
0
0
0
0
0
0
0
0
0
0
0
0
0
0
0
0
0
0
0
0
0
0
0
0
0
0
0
0
0
0
0
0
0
0
0
0
0
0
0
0
0
0
0
0
0
0
0
0
0
0
0
0
0
0
0
0
0
0
0
0
0
0
0
0
0
0
0
0
0
0
0
0
0
0
0
0
0
0
0
0
0
0
0
0
0
0
0
0
0
0
0
0
0
0
0
0
0
0
0
0
0
0
0
0
0
0
0
0
0
0
0
0
0
0
0
0
0
0
0
0
0
0
0
0
0
0
0
0
0
0
0
0
0
0
0
0
0
0
0
0
0
0
0
0
0
0
0
0
0
0
0
0
0
0
0
0
0
0
0
0
0
0
0
0
0
0
0
0
0
0
0
0
0
0
0
0
0
0
0
0
0
0
0
0
0
0
0
0
0
0
0
0
0
0
0
0
0
0
0
0
0
0
0
0
0
0
0
0
0
0
0
0
0
0
0
0
0
0
0
0
0
0
0
0
0
0
0
0
0
0
0
0
0
0
0
0
0
0
0
0
0
0
0
0
0
0
0
0
0
0
0
0
0
0
0
0
0
0
0
0
0
0
0
0
0
0
0
0
0
0
0
0
0
0
0
0
0
0
0
0
0
0
0
0
0
0
0
0
0
0
0
0
0
0
0
0
0
0
0
0
0
0
0
0
0
0
0
0
0
0
0
0
0
0
0
0
0
0
0
0
0
0
0
0
0
0
0
0
0
0
0
0
0
0
0
0
0
0
0
0
0
0
0
0
0
0
0
0
0
0
0
0
0
0
0
0
0
0
0
0
0
0
0
0
0
0
0
0
0
0
0
0
0
0
0
0
0
0
0
0
0
0
0
0
0
0
0
0
0
0
0
0
0
0
0
0
0
0
0
0
0
0
0
0
0
0
0
0
0
0
0
0
0
0
0
0
0
0
0
0
0
0
0
0
0
0
0
0
0
0
0
0
0
0
0
0
0
0
0
0
0
0
0
0
0
0
0
0
0
0
0
0
0
0
0
0
0
0
0
0
0
0
0
0
0
0
0
0
0
0
0
0
0
0
0
0
0
0
0
0
0
0
0
0
0
0
0
0
0
0
0
0
0
0
0
0
0
0
0
0
0
0
0
0
0
0
0
0
0
0
0
0
0
0
0
0
0
0
0
0
0
0
0
0
0
0
0
0
0
0
0
0
0
0
0
0
0
0
0
0
0
0
0
0
0
0
0
0
0
0
0
0
0
0
0
0
0
0
0
0
0
0
0
0
0
0
0
0
0
0
0
0
0
0
0
0
0
0
0
0
0
0
0
0
0
0
0
0
0
0
0
0
0
0
0
0
0
0
0
0
0
0
0
0
0
0
0
0
0
0
0
0
0
0
0
0
0
0
0
0
0
0
0
0
0
0
0
0
0
0
0
0
0
0
0
0
0
0
0
0
0
0
0
0
0
0
0
0
0
0
0
0
0
0
0
0
0
0
0
0
0
0
0
0
0
0
0
0
0
0
0
0
0
0
0
0
0
0
0
0
0
0
0
0
0
0
0
0
0
0
0
0
0
0
0
0
0
0
0
0
0
0
0
0
0
0
0
0
0
0
0
0
0
0
0
0
0
0
0
0
0
0
0
0
0
0
0
0
0
0
0
0
0
0
0
0
0
0
0
0
0
0
0
0
0
0
0
0
0
0
0
0
0
0
0
0
0
0
0
0
0
0
0
0
0
0
0
0
0
0
0
0
0
0
0
0
0
0
0
0
0
0
0
0
0
0
0
0
0
0
0
0
0
0
0
0
0
0
0
0
0
0
0
0
0
0
0
0
0
0
0
0
0
0
0
0
0
0
0
0
0
0
0
0
0
0
0
0
0
0
0
0
0
0
0
0
0
0
0
0
0
0
0
0
0
0
0
0
0
0
0
0
0
0
0
0
0
0
0
0
0
0
0
0
0
0
0
0
0
0
0
0
0
0
0
0
0
0
0
0
0
0
0
0
0
0
0
0
0
0
0
0
0
0
0
0
0
0
0
0
0
0
0
0
0
0
0
0
0
0
0
0
0
0
0
0
0
0
0
0
0
0
0
0
0
0
0
0
0
0
0
0
0
0
0
0
0
0
0
0
0
0
0
0
0
0
0
0
0
0
0
0
0
0
0
0
0
0
0
0
0
0
0
0
0
0
0
0
0
0
0
0
0
0
0
0
0
0
0
0
0
0
0
0
0
0
0
0
0
0
0
0
0
0
0
0
0
0
0
0
0
0
0
0
0
0
0
0
0
0
0
0
0
0
0
0
0
0
0
0
0
0
0
0
0
0
0
0
0
0
0
0
0
0
0
0
0
0
0
0
0
0
0
0
0
0
0
0
0
0
0
0
0
0
0
0
0
0
0
0
0
0
0
0
0
0
0
0
0
0
0
0
0
0
0
0
0
0
0
0
0
0
0
0
0
0
0
0
0
0
0
0
0
0
0
0
0
0
0
0
0
0
0
0
0
0
0
0
0
0
0
0
0
0
0
0
0
0
0
0
0
0
0
0
0
0
0
0
0
0
0
0
0
0
0
0
0
0
0
0
0
0
0
0
0
0
0
0
0
0
0
0
0
0
0
0
0
0
0
0
0
0
0
0
0
8675.98
6210.44
6724.07
4500.89
6194.37
5992.94
4691.11
4307.01
5424.63
6423.06
4920.29
5958.16
6145.51
9173.9
3424.48
2255.03
773.339
4678.38
3685.32
889.722
242.258
538.079
310.71
291.756
649.541
84.7791
473.397
610.975
5415.76
366.225
516.782
295.052
3220.1
610.456
321.131
5766.1
1399.83
2321.42
8194.16
8804.82
327.073
868.574
3890.91
5219.53
10162.3
1163.64
2925.88
613.586
3475.99
3901.96
9063.04
8398.08
3422.16
3109.46
1500.78
1946.27
3521.38
8477.53
7996.89
3741.57
3881.65
5962.41
6224.48
1569
7226.31
5550.33
3118.73
1620.41
3394
1730.96
8916.34
9686.25
10258.3
135.828
725.255
568.97
802.92
10240.8
11437.4
8887.26
4788.09
3065.5
2753.23
448.602
4833.88
3868.73
2233.38
864.882
4296.98
4666.08
1762.57
5988.2
1231.59
6408.87
8894.69
7988.62
248.588
3208.14
2074.2
515.576
323.653
3784.84
901.185
657.715
606.896
2712.48
566.14
951.372
891.102
1694.13
1048.37
590.654
3569.85
7733.78
5655.06
3460.85
3234.19
9556.13
9366.09
8869.42
2323.71
4612.8
6693.16
8376.79
9360.83
8659.58
3572.36
3461.63
2467.59
9631.2
10091.2
10137.1
9320.8
4283.92
4946.28
1149.08
10622.5
5505.48
3585.81
785.136
2749.74
9255.29
9354.16
4625.27
1170.06
5083.56
9227.71
4659.15
9379.28
7025.46
2926.4
1737.01
8568.32
3418.28
10071.4
11282.1
9344.55
2932.56
2578.82
2046.77
1078.58
1318.2
569.738
178.113
743.603
580.512
76.4066
209.249
3810.05
2304.56
7494.64
730.95
7644.3
308.467
3913.2
1534.12
3211.16
631.255
3367.71
1632.81
1773.12
73.6338
36.2564
68.2061
50.9438
28.1228
13.1229
39.8163
16.1831
144.822
91.2942
144.574
30.3266
101.784
62.7098
42.8319
287.435
0.154575
53.422
4.11413
3.36199
4.58758
11.4213
1378.16
874.962
166.29
561.01
1839.72
205.696
602.057
8.09242
25.1554
25.7892
78.4018
29.4714
33.5494
-5.6325e-13
14.2927
87.4403
37.5266
19.9033
19.1116
70.817
24.9477
3.77105
0
7.77457
14.0382
9.51455
0.344868
0
1148.74
23.3678
624.08
8.41036
44.5531
2.13279
29.3885
9.64284
5.90262
10.9299
18.1395
25.0874
12.0702
5.62218
12.9756
42.966
59.7738
8.62289
17.7369
99.0237
119.566
14.0461
0
0
22.6385
0
1.52711
0
12.2277
0
7.60393
4.23575
6.06308
8.31421
6.67181
7.02845
0.473855
11.2308
15.1493
36.0297
29.2374
2.69595
6.61716
65.8959
40.9573
19.8964
26.7434
29.2875
6.31052
0
-2.08425e-13
0
22.51
6.3538
0
0
8.29332
4.41367
8.20128
7.45594
16.7277
8.87695
0
10.6836
6.28328
0
9.91877
22.5615
-2.06668e-12
6.10568
13.5231
7.3855
1.56891
14.3398
6.85494
0
7.94257
5.24234
5.73172
4.75078
36.8232
18.9407
10.6206
-5.51913e-14
12.3046
0
0
4.40012