/*--------------------------------*- C++ -*----------------------------------*\
| =========                 |                                                 |
| \\      /  F ield         | OpenFOAM: The Open Source CFD Toolbox           |
|  \\    /   O peration     | Version:  5.x                                   |
|   \\  /    A nd           | Web:      www.OpenFOAM.org                      |
|    \\/     M anipulation  |                                                 |
\*---------------------------------------------------------------------------*/
FoamFile
{
    version     2.0;
    format      ascii;
    class       volVectorField;
    location    "1.95";
    object      U;
}
// * * * * * * * * * * * * * * * * * * * * * * * * * * * * * * * * * * * * * //

dimensions      [0 1 -1 0 0 0 0];

internalField   nonuniform List<vector> 
10571
(
(0.670326 0.548224 1.67648)
(0.00388901 0.0383078 0.672398)
(0.133585 0.307315 0.863409)
(0.370664 0.179871 0.919211)
(0.0292647 0.330545 1.38122)
(0.494166 -0.00411835 1.14852)
(0.729523 0.294586 1.91399)
(0.189591 0.481125 2.04568)
(-0.540084 0.551812 2.01541)
(-0.204158 0.15515 0.664184)
(0.289669 0.0641042 1.20129)
(0.591481 -0.051653 1.17428)
(1.6999 -0.116909 2.14754)
(0.442034 0.0977524 1.40733)
(0.669883 0.713169 1.69307)
(-0.294388 0.212476 0.961562)
(0.379871 0.0559663 0.882357)
(1.42098 -0.718277 2.09487)
(0.715316 -0.141866 1.56128)
(0.655584 0.676366 1.92809)
(-0.140254 0.0319377 0.844176)
(0.275601 -0.15893 0.92134)
(0.20613 -0.146717 0.799361)
(0.104717 -0.125241 0.590996)
(0.175207 0.0964784 0.118277)
(0.0429725 0.054373 0.482333)
(0.210962 0.274106 0.518193)
(-0.00112702 0.574198 0.528697)
(0.0641177 0.424429 0.335639)
(-0.121344 0.267689 0.400599)
(-0.534816 -0.292682 2.1243)
(0.250058 -0.455201 1.32934)
(0.702285 0.540627 0.816753)
(0.048701 0.11608 -0.00740858)
(0.0402052 0.145584 0.512526)
(-0.0747489 0.181714 0.154325)
(-0.198031 0.0683595 0.698899)
(0.35455 0.181144 0.496578)
(1.11064 1.3027 1.80802)
(0.331965 0.747259 1.26934)
(-0.00781814 0.0127953 0.214466)
(0.0156623 0.10295 0.144692)
(0.326513 0.256798 0.471758)
(1.30835 1.28892 2.31367)
(0.00509304 0.227151 0.998866)
(0.105474 0.0433918 0.414455)
(0.383568 0.077773 0.606579)
(-0.0154393 0.156466 1.51157)
(0.0425335 -0.000115795 -0.00451616)
(-0.107172 0.055741 0.196709)
(-0.163858 -0.172797 0.326915)
(-0.140272 0.0310282 0.675243)
(0.014179 0.0179755 0.0692388)
(-0.73486 0.228133 0.994142)
(-0.459637 0.351054 0.873243)
(-0.189873 0.100212 0.845222)
(0.255029 0.124748 0.414012)
(0.0633098 0.0244157 0.0725589)
(0.0290526 0.148765 0.0762429)
(0.0569862 -0.0592929 0.323759)
(-0.10189 0.247291 0.366645)
(0.00436313 0.111452 0.171034)
(0.278528 0.694455 1.21831)
(0.162367 0.984914 2.09918)
(0.412332 0.302999 0.219933)
(-0.0711969 -0.0281481 0.463906)
(-0.122869 0.103095 0.408047)
(0.428582 1.16022 2.89879)
(-0.202374 0.583159 2.17569)
(-0.0845746 -0.0265095 0.144487)
(0.0596874 -0.167781 0.863939)
(-0.238457 0.467975 3.00602)
(-0.103832 -0.140261 0.111395)
(0.31031 -0.148915 0.446542)
(-0.368685 -0.206652 0.287874)
(-0.894798 -0.655547 1.10141)
(0.0581286 -0.0277426 0.0952297)
(-0.251077 0.0330905 0.894083)
(-0.462783 0.588836 0.968647)
(-0.028931 0.224742 0.399843)
(0.0896656 0.0344551 0.237144)
(0.0203821 -0.00681823 0.189242)
(-0.021417 0.430722 0.55916)
(-0.230466 0.187541 0.942809)
(-0.476175 0.335638 0.954542)
(-0.0121946 0.0945656 0.199198)
(-0.247651 0.302494 0.868703)
(-0.242342 0.573672 1.68153)
(-0.0322893 0.233019 0.60867)
(-0.676049 -0.287294 0.717241)
(-0.237928 -0.124969 0.463522)
(-0.438868 0.620505 2.6983)
(-0.272833 1.05254 3.17609)
(-0.175203 -0.272102 0.347216)
(-0.30651 -0.146865 0.774568)
(-0.934758 0.52533 3.42687)
(-0.0186321 -0.172465 0.32981)
(0.258349 -0.189969 0.825147)
(-0.354819 0.0792745 0.0747543)
(-0.0552321 -0.331436 0.474239)
(0.152229 -0.115112 0.292947)
(0.198587 0.0473471 1.20208)
(-0.187936 0.434765 0.658394)
(0.0690615 0.294166 0.417357)
(0.0363709 -0.0193556 0.246778)
(-0.0185401 -0.0353798 0.290429)
(-0.0182053 0.407648 0.799994)
(0.103397 0.138709 1.14995)
(-0.0840361 0.19494 0.448927)
(-0.134001 -0.0383387 0.302464)
(-0.208614 -0.170882 0.730146)
(0.00497941 -0.0960355 0.518993)
(-0.21814 -0.0511527 0.720727)
(-1.07331 -0.120417 0.518578)
(-0.495255 -0.244252 0.625357)
(-1.19436 0.333115 3.16915)
(-0.314319 0.715699 3.29573)
(-0.0716654 -0.357278 0.284183)
(-0.440135 0.0748579 0.618247)
(-1.06386 0.698087 3.68103)
(0.0790182 -0.104867 0.461522)
(0.251422 -0.163905 0.495352)
(0.475325 0.334936 0.0986414)
(0.265766 0.100899 0.486866)
(0.169825 -0.0121604 0.411104)
(0.425538 -0.0760132 1.10539)
(0.487406 0.174454 0.300272)
(0.124048 0.236043 0.747666)
(-0.0019313 -0.0995448 0.348544)
(0.0218043 -0.0764244 0.304176)
(-0.00987264 0.00408416 -0.00407673)
(-0.00867008 0.27623 0.910357)
(0.221219 -0.0491768 1.15369)
(0.110088 0.135808 0.834215)
(-0.40421 0.195136 0.499307)
(-0.13783 -0.411549 0.522109)
(0.0447338 -0.220574 0.31154)
(-0.00184033 0.00347762 -0.00394365)
(-0.583802 -0.284585 1.0524)
(-1.17081 -0.197748 0.809091)
(-1.72969 -0.342491 1.19269)
(-2.49334 -0.960905 2.83922)
(0.10898 -0.145204 2.61088)
(-0.44375 -0.160779 0.728228)
(-1.66155 0.0412307 1.08201)
(-2.14874 0.661181 3.70267)
(0.118247 -0.0838086 0.571296)
(0.129723 -0.131218 0.106917)
(0.364407 0.0105776 0.0418893)
(0.322069 -0.0984034 0.186488)
(0.319412 0.0353539 0.334934)
(0.367783 -0.108975 0.888675)
(0.529581 0.133871 0.504561)
(0.277798 0.205102 0.421153)
(0.0879291 0.173358 0.500403)
(-0.146623 -0.0132943 0.302004)
(-0.0686642 -0.0823334 -0.0149364)
(0.0140254 0.018 0.828861)
(0.237693 -0.0407557 1.13837)
(0.262185 -0.0450313 1.09068)
(0.0562292 0.379333 0.530576)
(-0.0799544 -0.103614 0.882396)
(-0.231995 -0.153945 0.41087)
(-0.0765169 -0.195935 0.089719)
(-0.50617 -0.319108 1.35162)
(-0.903148 -0.243241 0.886331)
(-1.19137 -0.267089 1.15724)
(-0.472865 -0.126815 1.61089)
(0.182079 -0.365379 1.05676)
(-0.168945 0.112783 0.292986)
(0.277069 -0.0352235 1.1632)
(-0.625081 -0.403035 1.04729)
(-0.286166 0.16427 2.09434)
(0.145281 -0.102169 0.870253)
(0.193022 -0.193085 0.0576546)
(0.278298 -0.0905969 0.0151367)
(0.279932 -0.0756301 0.0916808)
(0.23388 0.0952104 0.429264)
(0.142517 -0.266208 0.516043)
(0.549498 0.124266 0.575637)
(0.351838 0.167963 0.503762)
(0.1256 0.114625 0.539899)
(0.131994 0.22134 0.451396)
(0.0305368 -0.0258745 0.0366016)
(0.0445815 -0.134613 0.529212)
(0.188647 0.152611 1.00983)
(0.408807 -0.0134702 1.17017)
(0.24929 0.242915 0.829987)
(0.0368923 -0.0160135 0.821848)
(-0.271273 0.13699 0.268758)
(-0.0313472 0.036786 -0.0728821)
(0.00461488 -0.0236447 1.49398)
(-0.407221 -0.208494 1.0226)
(-0.655923 -0.252609 0.862212)
(-0.149776 0.056492 0.766898)
(-0.411168 0.0199191 1.22094)
(-0.0682864 0.111473 0.189176)
(0.446973 0.165511 0.994431)
(0.397314 -0.213639 0.933975)
(0.195771 -0.194392 1.11943)
(0.40554 0.0295843 0.942072)
(0.279826 -0.289305 0.0842077)
(0.293721 -0.047737 0.103027)
(0.25381 0.101236 0.0894708)
(0.18919 0.212791 0.4825)
(0.220081 -0.289068 0.256334)
(0.507356 0.139439 0.54124)
(0.336211 0.153314 0.598898)
(0.116686 0.117726 0.643984)
(0.162631 0.248627 0.557222)
(0.127471 0.0718069 0.106696)
(-0.0135585 -0.338678 0.22738)
(0.114007 -0.0772667 0.830437)
(0.44499 0.056828 1.27038)
(0.305323 0.221236 1.04378)
(0.114031 0.0185853 0.94797)
(0.0879244 0.243494 0.595266)
(0.109981 -0.0538186 -0.00293825)
(0.0137455 -0.0332115 1.31373)
(0.0667888 -0.16021 1.22772)
(-0.36134 -0.0920746 0.995699)
(-0.110667 0.0409748 0.972238)
(-0.160565 0.0527838 1.19882)
(0.466263 0.0860316 0.775358)
(0.521958 -0.00962147 0.817921)
(0.459664 -0.249807 1.11574)
(0.189456 0.0625319 0.592433)
(0.274105 -0.283136 0.0360027)
(0.372673 -0.0655388 0.175044)
(0.239282 0.208013 0.112444)
(0.133639 0.154969 0.440001)
(0.29229 -0.374771 0.177795)
(0.331496 0.170666 0.541355)
(0.205233 0.150299 0.685346)
(0.0309768 0.0841139 0.814548)
(0.0210429 0.177767 0.707188)
(-0.0579414 -0.467911 0.171249)
(0.184609 -0.389077 0.641131)
(0.391886 0.113501 1.31891)
(0.298821 0.199387 1.16181)
(0.177628 0.00257334 1.14229)
(0.0240171 0.171266 0.800371)
(-0.0581249 -0.174435 1.00016)
(0.26506 -0.184049 1.27891)
(-0.166829 -0.00094451 1.08412)
(-0.0489323 -0.014486 1.03609)
(0.00342716 0.111572 1.24429)
(0.109083 0.0849186 0.59493)
(0.314101 0.120403 0.887497)
(0.322009 -0.144698 1.14022)
(0.127346 0.0389158 0.290847)
(0.276581 -0.285988 0.0224811)
(0.362932 -0.0835353 0.11848)
(0.274225 0.196912 0.116554)
(0.104408 0.0876056 0.446482)
(0.282128 -0.397633 0.159113)
(0.107465 0.172441 0.583401)
(0.0745551 0.121334 0.775525)
(-0.0559148 0.00178095 0.931655)
(-0.0873546 0.0445898 0.725527)
(-0.0600392 -0.465558 0.169612)
(0.169746 -0.516134 0.510714)
(0.287349 0.132094 1.32521)
(0.244183 0.135056 1.23782)
(0.131885 -0.121727 1.20878)
(0.0948938 0.0876493 0.878323)
(-0.0680323 -0.321945 0.721211)
(0.265018 -0.201231 1.26304)
(-0.13016 -0.0108757 1.13259)
(-0.0402936 -0.051882 0.984489)
(0.0674498 0.036317 1.38566)
(-0.199273 0.0473297 0.56744)
(-0.040229 0.0906844 0.877811)
(0.198802 0.00833906 1.26972)
(0.158302 0.0185555 0.291241)
(0.264816 -0.275914 0.0134176)
(0.352801 -0.0944602 0.0473634)
(0.251157 0.170634 0.116061)
(0.0650896 0.0650049 0.502782)
(0.240454 -0.405272 0.163691)
(-0.0309192 0.139939 0.63964)
(-0.00711322 0.0763928 0.867388)
(-0.106185 -0.0404387 1.04937)
(-0.129356 -0.0132874 0.749029)
(-0.0538433 -0.420796 0.148662)
(0.101484 -0.508284 0.438513)
(0.13881 0.0830757 1.34236)
(0.148455 0.0344438 1.31934)
(0.0671849 -0.217269 1.26091)
(0.032923 0.0463675 0.840535)
(-0.210828 -0.35935 0.495161)
(0.176777 -0.188674 1.21903)
(-0.162105 -0.0755788 1.23005)
(-0.161375 -0.297233 0.799779)
(0.0728648 -0.0471932 1.48953)
(-0.281067 -0.00254064 0.575334)
(-0.306606 0.0200325 0.763482)
(-0.0538517 0.0468508 1.24821)
(0.100772 0.00118052 0.3303)
(0.243625 -0.258256 0.0129235)
(0.349182 -0.0863262 0.0200884)
(0.182151 0.171949 0.13729)
(0.0164219 0.0520113 0.548397)
(0.190664 -0.406444 0.180225)
(-0.0849569 0.108142 0.68993)
(-0.0321138 0.0683317 0.940778)
(-0.111962 -0.0262312 1.16996)
(-0.1056 0.0606187 0.738151)
(-0.0504463 -0.385797 0.12578)
(-0.00967489 -0.424644 0.441641)
(-0.0100312 0.0129439 1.33385)
(0.10055 -0.0481677 1.37365)
(0.0367902 -0.201544 1.38337)
(0.0172689 -0.0550053 0.823906)
(-0.180776 -0.338131 0.380034)
(0.0912959 -0.148375 1.13863)
(-0.139228 -0.11892 1.30775)
(-0.0914297 -0.318696 0.73693)
(0.142395 -0.184067 1.64304)
(-0.258762 -0.068776 0.489459)
(-0.169158 -0.0958815 0.718028)
(0.00776363 -0.101591 0.45598)
(0.0917977 -0.00198007 0.299329)
(0.202077 -0.223175 0.038275)
(0.341197 -0.0704962 0.0375547)
(0.15344 0.176147 0.165984)
(-0.0100436 0.0593415 0.561348)
(0.148436 -0.418676 0.204313)
(-0.0752733 0.0919693 0.716164)
(-0.0431313 0.0844077 1.00411)
(-0.106509 0.0306591 1.23453)
(-0.0506671 0.0755039 0.626819)
(-0.0471063 -0.366302 0.141416)
(-0.125616 -0.341112 0.467564)
(-0.0881395 -0.0302164 1.2976)
(0.111391 -0.0678435 1.40998)
(-0.0261938 -0.231416 1.48186)
(0.0372374 -0.0766134 0.877975)
(-0.150324 -0.220228 0.3071)
(0.0581451 -0.198994 1.09905)
(-0.126134 -0.136454 1.33588)
(-0.141545 -0.128353 0.692)
(0.0472399 -0.035367 1.76619)
(-0.205296 -0.00271924 0.31922)
(0.0729012 -0.122385 0.468566)
(0.117169 -0.067672 0.202882)
(0.0888092 0.0137563 0.259056)
(0.148357 -0.169399 0.0788124)
(0.323895 -0.0731916 0.0857536)
(0.129541 0.151052 0.207863)
(-0.0245514 0.0742717 0.565154)
(0.101508 -0.435645 0.244328)
(-0.0292771 0.0645106 0.742991)
(-0.0511954 0.0474737 1.09095)
(-0.127155 0.0818869 1.28218)
(-0.0383737 0.0407192 0.533497)
(-0.0420665 -0.323238 0.198309)
(-0.194183 -0.325998 0.453485)
(-0.099689 -0.0731145 1.29373)
(0.11969 -0.0559119 1.46412)
(-0.0787852 -0.26659 1.51778)
(0.0673098 -0.279918 0.982589)
(-0.223478 -0.14364 0.261164)
(-0.0666874 -0.307899 1.00261)
(-0.0878783 -0.160176 1.33681)
(-0.205889 -0.0515421 0.707825)
(0.000771102 -0.0835617 1.59055)
(-0.137941 0.102313 0.237954)
(0.00849418 0.0418664 0.30577)
(0.10084 -0.0205065 0.111261)
(0.12143 0.0124726 0.217559)
(0.0982916 -0.112265 0.113804)
(0.305939 -0.09891 0.151284)
(0.0733759 0.155793 0.266738)
(-0.0462465 0.0715808 0.577984)
(0.0369983 -0.408964 0.312225)
(-0.0139333 -0.00267391 0.787748)
(-0.0403707 -0.0321737 1.18469)
(-0.136116 0.101819 1.3412)
(-0.0511893 -0.03305 0.49798)
(-0.0331176 -0.202301 0.266563)
(-0.157382 -0.364377 0.435423)
(-0.0909734 -0.157826 1.29174)
(0.126549 -0.0796633 1.49777)
(-0.0728811 -0.269089 1.53069)
(0.0782991 -0.306259 1.03479)
(-0.256428 -0.108438 0.294111)
(-0.271629 -0.274928 0.730554)
(-0.00537124 -0.208368 1.2371)
(0.0280574 -0.0997704 0.727499)
(0.00548264 -0.179792 0.640792)
(-0.0789155 0.116076 0.218802)
(-0.0416201 0.117154 0.214656)
(0.0822604 0.0114863 0.0828747)
(0.16981 0.00933095 0.213387)
(0.0552942 -0.0755371 0.151948)
(0.254575 -0.148624 0.227916)
(0.0347892 0.178847 0.311566)
(-0.0586064 0.0514867 0.600132)
(-0.0367148 -0.326567 0.389778)
(-0.0332968 -0.124476 0.850617)
(-0.034378 -0.0711365 1.2745)
(-0.112124 0.112292 1.39526)
(-0.0518458 -0.0943143 0.51138)
(-0.0164996 -0.0726686 0.314537)
(-0.0328924 -0.337939 0.450944)
(-0.0623866 -0.246678 1.22381)
(0.143331 -0.171589 1.53613)
(-0.0252605 -0.288045 1.55529)
(0.0785094 -0.270118 1.09159)
(-0.151383 -0.110338 0.343928)
(-0.280727 -0.141435 0.499065)
(0.0390106 -0.176258 0.851658)
(0.276183 -0.140686 0.5951)
(0.123478 -0.157051 0.521778)
(-0.0320053 0.054773 0.237978)
(-0.0533801 0.122303 0.172083)
(0.0610576 0.0173567 0.118217)
(0.198876 0.00883296 0.229838)
(0.0392048 -0.0648902 0.22303)
(0.172956 -0.193271 0.303668)
(0.0218817 0.169696 0.341313)
(-0.0556739 0.0374238 0.628017)
(-0.11047 -0.227764 0.437838)
(-0.0584488 -0.210519 0.907179)
(-0.0520118 -0.0616462 1.36178)
(-0.090726 0.12802 1.43183)
(-0.028551 -0.180576 0.549168)
(-0.00320025 0.025618 0.329724)
(-0.00850063 -0.246383 0.462659)
(-0.0208871 -0.29968 1.11477)
(0.146263 -0.238344 1.5716)
(-0.0213657 -0.308739 1.62442)
(0.037657 -0.214708 1.09358)
(-0.0345554 -0.104712 0.333564)
(-0.172883 -0.0764068 0.370561)
(0.00749248 -0.0447335 0.554218)
(0.1861 -0.0769089 0.448312)
(0.0383798 -0.152674 0.466891)
(-0.0198908 -0.00867498 0.257966)
(-0.0542243 0.0779631 0.16654)
(0.0545554 0.00240828 0.154149)
(0.219874 0.0105477 0.262771)
(0.0538607 -0.0743361 0.316067)
(0.0825726 -0.245628 0.376951)
(0.0088069 0.0798549 0.41251)
(-0.0473555 0.0407694 0.640578)
(-0.167247 -0.154053 0.491447)
(-0.114055 -0.227704 0.934505)
(-0.0643683 -0.0608347 1.4093)
(-0.0811503 0.132978 1.44901)
(-0.0010179 -0.213808 0.571568)
(-0.00262144 0.0661009 0.356234)
(-0.092311 -0.171906 0.472672)
(-0.0489089 -0.315787 0.995877)
(0.142527 -0.241758 1.56557)
(-0.0520467 -0.283489 1.70291)
(-0.0242984 -0.0403784 1.05058)
(0.0232808 -0.0643286 0.288314)
(-0.0836994 -0.0559114 0.284974)
(-0.024756 0.0627266 0.390712)
(0.110806 -0.0319378 0.383697)
(0.0397935 -0.0597825 0.225867)
(-0.0221279 -0.0473868 0.256519)
(-0.0596481 0.0391132 0.166744)
(0.0528211 -0.00335526 0.149651)
(0.205183 0.0120687 0.323927)
(0.0701049 -0.0895605 0.418342)
(0.0155528 -0.242084 0.454199)
(-0.0110917 -0.0431318 0.523444)
(-0.0295145 0.0362069 0.647857)
(-0.162321 -0.0918301 0.574997)
(-0.193702 -0.204808 0.910589)
(-0.0712457 -0.0767562 1.40905)
(-0.0676938 0.115375 1.45101)
(0.02522 -0.202176 0.582115)
(-0.00734383 0.0646291 0.42373)
(-0.19449 -0.108136 0.494259)
(-0.202606 -0.272902 0.893327)
(0.108339 -0.254368 1.52372)
(-0.0581518 -0.249411 1.7327)
(-0.0434543 0.036371 0.988632)
(0.0406241 -0.0190183 0.256022)
(-0.0351629 -0.0263696 0.224957)
(-0.0463653 0.129703 0.263843)
(0.0773793 0.0339878 0.329855)
(0.0262484 0.0693915 0.190033)
(-0.0186025 -0.0615575 0.240208)
(-0.0640151 0.0176566 0.165551)
(0.0363988 0.00598733 0.129724)
(0.14851 0.00784835 0.425311)
(0.0835316 -0.107198 0.514515)
(-0.00204617 -0.152081 0.54123)
(-0.0499453 -0.182899 0.657451)
(-0.00888212 -0.00255529 0.673826)
(-0.114082 -0.0446296 0.670942)
(-0.224183 -0.186937 0.871028)
(-0.117107 -0.172919 1.36453)
(-0.019346 0.00760575 1.42856)
(0.0475107 -0.202857 0.611009)
(-0.0130154 0.0370597 0.505083)
(-0.242681 -0.0572158 0.553453)
(-0.377162 -0.141289 0.777006)
(-0.026892 -0.23497 1.41609)
(-0.0302195 -0.232715 1.71026)
(0.0494739 -0.0328769 0.940496)
(0.0405987 0.0142592 0.251971)
(-0.0266482 0.011643 0.20223)
(-0.0647558 0.170375 0.190325)
(0.0471825 0.0954783 0.302843)
(-0.00316893 0.143076 0.207064)
(-0.00680442 -0.0504113 0.220586)
(-0.0652388 0.00622513 0.172214)
(0.00985428 0.0194747 0.117247)
(0.0828744 -0.00431757 0.574909)
(0.097057 -0.117173 0.586313)
(-0.000410422 -0.082938 0.605647)
(-0.0864727 -0.285793 0.801866)
(0.00486112 -0.0807503 0.76835)
(-0.0744467 -0.0267962 0.741167)
(-0.193553 -0.15361 0.862624)
(-0.150729 -0.361364 1.19905)
(0.0313913 -0.228218 1.32184)
(0.042609 -0.202439 0.707363)
(-0.0138626 0.00542336 0.536341)
(-0.179942 -0.0357892 0.669909)
(-0.365477 0.000512672 0.696064)
(-0.16235 -0.0454306 1.05926)
(0.0820986 -0.168304 1.52119)
(0.171418 -0.0787318 0.873059)
(0.0197718 0.0232256 0.271998)
(-0.0470998 0.0393095 0.228256)
(-0.0769282 0.164397 0.179231)
(0.0333716 0.13404 0.29678)
(-0.0259357 0.184606 0.228918)
(0.00655053 -0.0224058 0.214101)
(-0.050138 -0.0049892 0.208647)
(-0.0279642 0.0306026 0.123351)
(0.0490972 -0.0122542 0.758753)
(0.100042 -0.116875 0.632694)
(0.0209242 -0.0532415 0.632872)
(-0.0780255 -0.298981 0.928649)
(0.00888996 -0.124545 0.916467)
(-0.0264233 -0.0442648 0.766815)
(-0.0686872 0.0126109 0.881922)
(-0.0679114 -0.357755 1.06537)
(0.0252362 -0.338808 1.23004)
(0.0205606 -0.123956 0.884447)
(-0.0184041 -0.0323962 0.496976)
(-0.0659805 -0.0322055 0.774745)
(-0.220835 0.0794212 0.700478)
(-0.107546 0.0961636 0.714804)
(0.184398 -0.0388652 1.15249)
(0.195878 -0.0802744 0.827941)
(-0.00982142 0.0125284 0.301014)
(-0.0588293 0.0595104 0.276308)
(-0.0788257 0.106298 0.209032)
(0.0214988 0.137059 0.300994)
(-0.0318263 0.18829 0.296042)
(0.0191266 0.0050471 0.23688)
(-0.0156479 -0.0102735 0.259617)
(-0.0586526 0.0368107 0.158533)
(0.0678144 -0.00722945 0.939345)
(0.10472 -0.126815 0.660215)
(0.0892315 -0.0342678 0.643388)
(-0.0379474 -0.209385 1.02961)
(0.0171357 -0.113217 1.05963)
(0.00163009 -0.0743219 0.747709)
(0.0347103 0.10788 0.885517)
(0.0771925 -0.225511 0.942811)
(0.0102979 -0.330847 1.18754)
(0.00875186 0.0502255 1.08304)
(-0.0237006 -0.0680244 0.46054)
(-0.0346485 -0.0245547 0.785187)
(-0.0947491 0.108263 0.725626)
(0.00491509 0.123576 0.507406)
(0.177027 0.0060177 0.934921)
(0.159733 -0.0659164 0.829209)
(-0.0301893 0.0100864 0.332851)
(-0.056082 0.0706009 0.323717)
(-0.0736568 0.0375816 0.258464)
(0.00422301 0.0935529 0.319441)
(-0.0312564 0.162118 0.3683)
(0.029615 0.0270117 0.27797)
(0.0150493 -0.000526671 0.299562)
(-0.072173 0.0353779 0.205474)
(0.106448 0.00300624 1.04711)
(0.137466 -0.140312 0.65141)
(0.125905 -0.000809495 0.629249)
(0.0183128 -0.123386 1.11303)
(0.0564801 -0.0572504 1.18449)
(0.00829114 -0.113274 0.69417)
(0.0659315 0.10558 0.869734)
(0.125111 -0.14404 0.906543)
(-0.0044716 -0.283695 1.19154)
(0.0276724 0.168634 1.21889)
(-0.0261264 -0.0945334 0.458888)
(-0.0736536 -0.0278398 0.716912)
(-0.0368308 0.111605 0.721908)
(0.0565472 0.108123 0.387192)
(0.124355 0.0300173 0.783995)
(0.131924 -0.0144918 0.902309)
(-0.0460756 0.0221529 0.371046)
(-0.0411809 0.0866348 0.363424)
(-0.0725381 -0.0129158 0.302651)
(-0.0116576 0.0613864 0.33331)
(-0.0335021 0.148535 0.411607)
(0.0422472 0.0450017 0.32413)
(0.0434899 0.0116509 0.335777)
(-0.0777398 0.0299015 0.247716)
(0.0968027 0.00479246 1.1147)
(0.138412 -0.0850721 0.57803)
(0.0840097 0.0256056 0.604165)
(0.0521904 -0.10458 1.13311)
(0.107617 -0.000488023 1.25629)
(0.0305623 -0.100549 0.640999)
(0.039617 0.0759684 0.863035)
(0.0832309 -0.0838052 0.894175)
(0.0185601 -0.128732 1.22446)
(0.0505291 0.226787 1.28478)
(-0.0239844 -0.0914775 0.510035)
(-0.13518 -0.0520326 0.585873)
(-0.0289562 0.112776 0.688693)
(0.0495596 0.0768355 0.327773)
(0.0484371 0.0635929 0.699489)
(0.0778468 0.13236 1.02296)
(-0.0603746 0.0326078 0.422259)
(-0.01974 0.106557 0.39304)
(-0.0780154 -0.0386276 0.345979)
(-0.0430718 0.0582047 0.340913)
(-0.0522526 0.175262 0.453757)
(0.0532661 0.0641499 0.371461)
(0.0715367 0.0191453 0.377818)
(-0.082845 0.0262988 0.291718)
(0.0439374 -0.0047547 1.16696)
(0.0802262 -0.0251612 0.534478)
(0.0156025 0.0188185 0.607271)
(0.0617535 -0.0849555 1.09427)
(0.14635 0.0211059 1.26369)
(0.0137523 -0.0750331 0.626384)
(-0.0672701 -0.0276482 0.823246)
(0.0145755 -0.0210238 0.803852)
(0.0659967 0.0286481 1.2185)
(0.0997227 0.315151 1.3127)
(-0.00269889 -0.0352388 0.553287)
(-0.120415 -0.0628674 0.519692)
(-0.0419666 0.121238 0.585047)
(0.00330374 0.0363859 0.32045)
(-0.036555 0.0815788 0.652957)
(0.0192653 0.27107 1.11127)
(-0.0551179 0.0274164 0.479639)
(-0.012394 0.114926 0.417123)
(-0.080513 -0.0433606 0.395907)
(-0.101653 0.0639702 0.35102)
(-0.0815423 0.233805 0.517947)
(0.0561253 0.0804212 0.423621)
(0.0904055 0.0246964 0.427261)
(-0.0855171 0.0257 0.351166)
(0.0319814 -0.00884698 1.15766)
(0.0366694 -0.000700206 0.561113)
(-0.0442781 -0.0105784 0.676319)
(-0.026028 -0.120066 1.04395)
(0.171832 0.0194566 1.24268)
(-0.0854849 -0.0539034 0.673382)
(-0.0902189 -0.0702574 0.723555)
(-0.0410682 -0.0209882 0.692325)
(0.0763336 0.067618 1.19238)
(0.14038 0.345045 1.32382)
(-0.00564588 0.0643442 0.560812)
(-0.0872856 -0.0294391 0.520227)
(-0.0576716 0.118122 0.481715)
(-0.0515263 0.00676272 0.339872)
(-0.118259 0.0710526 0.612486)
(-0.02272 0.326431 1.16627)
(-0.0331398 0.023044 0.529618)
(-0.0173004 0.108528 0.435214)
(-0.0724504 -0.0460944 0.45343)
(-0.157979 0.0648256 0.372597)
(-0.115071 0.29467 0.596584)
(0.0597537 0.0854884 0.48129)
(0.0994098 0.0302602 0.481602)
(-0.0633638 0.0150391 0.440009)
(-0.0142374 -0.0203987 1.15186)
(0.0125327 -0.0042152 0.623558)
(-0.0488527 0.0110142 0.759597)
(-0.0434632 -0.209714 0.89865)
(0.19392 0.0297738 1.24193)
(-0.162859 -0.043907 0.737436)
(-0.108034 -0.0525392 0.614576)
(-0.125391 -0.0506039 0.608457)
(0.0517462 0.0527343 1.1664)
(0.146095 0.324584 1.34481)
(-0.0097857 0.172117 0.61158)
(-0.0916751 0.0123992 0.538798)
(-0.0686697 0.0990142 0.420215)
(-0.100371 -0.00495665 0.368115)
(-0.184519 0.0726037 0.57556)
(-0.0383243 0.324303 1.17544)
(-0.00430739 0.0253771 0.57887)
(-0.0122207 0.0902211 0.444164)
(-0.0589599 -0.0470473 0.503919)
(-0.170283 0.0487683 0.414632)
(-0.162179 0.342634 0.618773)
(0.0708543 0.0800001 0.536679)
(0.100735 0.0352336 0.536565)
(-0.0117009 -0.00876044 0.543133)
(-0.0114024 -0.041317 1.23722)
(0.00118668 -0.0179109 0.699993)
(-0.0201466 0.0371086 0.801884)
(0.0464146 -0.186848 0.776577)
(0.182446 0.0327384 1.24817)
(-0.196639 -0.0546433 0.77729)
(-0.156107 -0.0301067 0.535754)
(-0.248482 -0.0612806 0.548142)
(-0.114602 0.00734398 1.08969)
(0.133177 0.265617 1.35194)
(-0.00764903 0.242797 0.713361)
(-0.108725 0.0335254 0.59149)
(-0.0734972 0.0734372 0.392095)
(-0.139534 0.00607023 0.399023)
(-0.220811 0.0904679 0.539099)
(-0.0608795 0.268792 1.12541)
(0.0342729 0.0304376 0.633131)
(0.00372223 0.0679268 0.450917)
(-0.0483203 -0.0401236 0.53491)
(-0.137472 0.028932 0.502176)
(-0.196481 0.356669 0.556163)
(0.0915986 0.0681743 0.583387)
(0.104473 0.0342057 0.587404)
(0.0375621 -0.0211729 0.616166)
(0.0309275 -0.0330584 1.35479)
(-0.00877375 -0.0159771 0.792162)
(-0.0248499 0.0370958 0.838795)
(0.0151026 -0.0976893 0.73746)
(0.0993684 0.048963 1.288)
(-0.220103 -0.0302266 0.77174)
(-0.176909 -0.0193836 0.497004)
(-0.315913 -0.0466371 0.516345)
(-0.348392 -0.0536181 0.885144)
(0.0783048 0.155267 1.29496)
(-0.00331657 0.280412 0.824837)
(-0.0585111 0.0172556 0.668115)
(-0.0820472 0.0416531 0.389473)
(-0.156396 0.0264836 0.430909)
(-0.212564 0.0831776 0.527749)
(-0.189274 0.275123 0.836594)
(0.0609957 0.0392203 0.668565)
(0.0129377 0.0562041 0.459829)
(-0.0461576 -0.0229627 0.552704)
(-0.0849847 0.0120113 0.615856)
(-0.191875 0.320024 0.55962)
(0.113861 0.0606358 0.619498)
(0.116173 0.0249097 0.63122)
(0.0738404 -0.0317192 0.666656)
(0.038583 -0.0168295 1.35573)
(-0.0233823 0.00572486 0.899896)
(-0.085034 0.0420405 0.907494)
(-0.0769556 -0.0624669 0.781793)
(0.0550005 0.128074 1.26965)
(-0.214133 0.0349463 0.780622)
(-0.168102 -0.0176456 0.490596)
(-0.283832 -0.0133063 0.51997)
(-0.348647 -0.0388341 0.752339)
(0.0164682 -0.125314 1.20099)
(0.00484374 0.272381 0.929156)
(0.0126408 -0.0357639 0.69621)
(-0.10151 0.0121546 0.402925)
(-0.159108 0.0282813 0.454042)
(-0.169244 0.0191338 0.537458)
(-0.194019 0.149376 0.453293)
(0.0735727 0.05682 0.679279)
(0.0102059 0.0550501 0.468458)
(-0.0554926 0.00201975 0.564129)
(-0.0353408 -0.00309464 0.70121)
(-0.0814452 0.115234 0.612473)
(0.134618 0.0637486 0.652879)
(0.127481 0.0152758 0.670368)
(0.107305 -0.0463416 0.70562)
(-0.0387695 0.00910945 1.25389)
(-0.0414964 0.0313697 1.00116)
(-0.146669 0.0377316 1.00384)
(-0.153301 -0.0848029 0.852203)
(-0.0363564 0.0888132 1.222)
(-0.18687 0.0765096 0.829199)
(-0.11622 -0.0235152 0.479795)
(-0.134372 0.0276822 0.504544)
(-0.186424 0.0552606 0.678807)
(-0.0577522 -0.126317 0.98725)
(0.00839284 0.243585 1.0049)
(0.0634704 -0.0762242 0.653809)
(-0.133384 -0.00946985 0.419829)
(-0.171025 0.0162892 0.45868)
(-0.166895 -0.0365763 0.515839)
(-0.0386754 0.0158084 0.292932)
(0.0770327 0.105705 0.672041)
(-0.0111459 0.0533593 0.481402)
(-0.0814135 0.0202109 0.566248)
(-0.0195693 -0.0112766 0.71515)
(0.00326021 -0.022735 0.685909)
(0.141426 0.0683566 0.693152)
(0.136108 0.00847184 0.700996)
(0.133672 -0.0601507 0.733649)
(-0.136422 -0.0144991 1.17732)
(-0.051847 0.047743 1.0624)
(-0.171767 0.0467342 1.09578)
(-0.171577 -0.101763 0.890618)
(-0.121438 -0.0380397 1.21568)
(-0.11649 0.108706 0.899391)
(-0.0721389 -0.027892 0.47549)
(-0.0525327 0.0101625 0.462028)
(-0.0493914 0.136417 0.607822)
(0.0534279 0.0639126 0.793847)
(0.00146034 0.149396 1.04696)
(0.0205335 -0.0541835 0.586649)
(-0.158107 -0.0288216 0.435059)
(-0.186772 -0.00908081 0.462076)
(-0.171926 -0.0570524 0.488825)
(0.0191122 0.0399572 0.289424)
(0.0620656 0.154889 0.677861)
(-0.0563755 0.0229964 0.496184)
(-0.113771 0.00896475 0.558165)
(-0.0352585 -0.000794488 0.695556)
(0.0156229 -0.0209922 0.67139)
(0.147536 0.0759655 0.741819)
(0.134974 0.0063148 0.731069)
(0.140266 -0.0673115 0.756295)
(-0.168604 -0.03038 1.22202)
(-0.019322 0.0106076 1.09813)
(-0.134181 0.0678238 1.16006)
(-0.127022 -0.0998747 0.898476)
(-0.0838528 -0.125107 1.20684)
(-0.0120922 0.0958137 0.958312)
(-0.0584957 -0.031153 0.487492)
(-0.0458513 -0.042023 0.416768)
(0.00265137 0.141735 0.52945)
(0.126388 0.182607 0.694459)
(0.00204147 0.0428199 0.996662)
(-0.0707837 -0.00182188 0.575175)
(-0.171881 -0.0593822 0.449114)
(-0.187964 -0.0469936 0.460692)
(-0.174287 -0.0738085 0.484145)
(0.0362732 0.130687 0.330186)
(0.0568198 0.172534 0.717539)
(-0.101939 -0.0357203 0.499392)
(-0.144231 -0.0401852 0.541557)
(-0.116455 -0.0195438 0.658372)
(-0.0558138 -0.066118 0.57908)
(0.133704 0.0815159 0.789376)
(0.128349 -0.00120879 0.743213)
(0.133751 -0.0697858 0.759526)
(-0.145373 -0.03247 1.29233)
(0.0168958 -0.037163 1.14386)
(-0.0447396 0.078306 1.22434)
(0.0468784 -0.099057 0.934441)
(-0.0621881 -0.114378 1.20482)
(0.0713841 0.0161205 0.988807)
(-0.0684126 -0.0538761 0.504627)
(-0.0494954 -0.0859328 0.382636)
(0.0292625 0.115483 0.465563)
(0.144627 0.237386 0.686303)
(0.00633495 0.0309748 0.94963)
(-0.131986 0.0237183 0.602603)
(-0.172283 -0.0995591 0.462778)
(-0.182061 -0.0818062 0.455613)
(-0.172569 -0.077456 0.482347)
(0.0250448 0.219128 0.369275)
(0.0675584 0.180909 0.772957)
(-0.123881 -0.0997062 0.491483)
(-0.153802 -0.0968571 0.520518)
(-0.20634 -0.0846663 0.630165)
(-0.0852171 0.104095 0.34764)
(0.116915 0.0808095 0.830491)
(0.113671 -6.70844e-06 0.731266)
(0.0981975 -0.0575415 0.745622)
(-0.046664 -0.0217173 1.34143)
(0.0279146 -0.0438478 1.1688)
(0.0236926 0.0375457 1.25002)
(0.131108 -0.035731 1.01948)
(-0.0943704 -0.0393912 1.20629)
(0.0580175 -0.0373349 1.00444)
(-0.071713 -0.112586 0.528448)
(-0.0404346 -0.109531 0.369018)
(0.045045 0.105836 0.431155)
(0.140018 0.248089 0.707389)
(0.00699633 0.0664644 0.955946)
(-0.147611 0.00665404 0.636814)
(-0.154895 -0.131147 0.467825)
(-0.168161 -0.0962287 0.454092)
(-0.167571 -0.0715159 0.483218)
(0.0113588 0.275763 0.388422)
(0.0759985 0.17927 0.818106)
(-0.117854 -0.142512 0.482673)
(-0.152341 -0.127906 0.497096)
(-0.192564 -0.14593 0.58519)
(-0.0809614 0.177265 0.323803)
(0.0869448 0.0675592 0.841141)
(0.107871 -0.0353071 0.694521)
(0.0959971 -0.073029 0.732291)
(0.00952889 -0.00756259 1.35855)
(0.00201798 0.00711089 1.16478)
(0.0742641 -0.0236026 1.24002)
(0.151177 0.00924653 1.08629)
(-0.0302667 0.0555448 1.1548)
(0.011713 -0.00143646 1.01251)
(-0.0353928 -0.147401 0.553588)
(-0.0270845 -0.118204 0.379258)
(0.0465036 0.110478 0.422011)
(0.117473 0.234076 0.724892)
(0.0114164 0.107917 0.983191)
(-0.114936 0.0344418 0.670428)
(-0.131711 -0.134715 0.458582)
(-0.153442 -0.0951138 0.460923)
(-0.156587 -0.0567577 0.482346)
(-0.000453548 0.310251 0.392253)
(0.0889481 0.157224 0.872922)
(-0.092163 -0.148427 0.48306)
(-0.153811 -0.124153 0.483908)
(-0.169248 -0.153414 0.56306)
(-0.0896748 0.20548 0.350989)
(0.0503591 0.060122 0.86816)
(0.0373302 -0.0851781 0.549721)
(0.113327 -0.0957507 0.652731)
(0.0100059 -0.00483479 1.33891)
(-0.0303368 0.0606106 1.09955)
(0.107983 -0.0220806 1.23042)
(0.0827093 0.0315991 1.12617)
(0.109648 0.11601 1.06386)
(-0.0452177 0.05192 1.00112)
(0.0225828 -0.132502 0.591645)
(-0.0184524 -0.105125 0.406117)
(0.040802 0.13621 0.428783)
(0.0844473 0.217876 0.69814)
(0.0159535 0.160113 0.981998)
(-0.085507 0.0904475 0.704946)
(-0.111747 -0.111066 0.444295)
(-0.150448 -0.0854485 0.465336)
(-0.142119 -0.0381187 0.479612)
(-0.0106684 0.332295 0.397918)
(0.124093 0.163759 0.937931)
(-0.0245147 -0.118963 0.499858)
(-0.136834 -0.0988215 0.484153)
(-0.175162 -0.120816 0.560262)
(-0.104212 0.231107 0.392798)
(-0.0659392 0.00431718 0.873762)
(0.0146001 -0.0456966 0.428899)
(0.0427942 -0.049324 0.532126)
(0.0301785 0.0102916 1.09588)
(-0.0287578 0.0318618 1.04912)