/*--------------------------------*- C++ -*----------------------------------*\
| =========                 |                                                 |
| \\      /  F ield         | OpenFOAM: The Open Source CFD Toolbox           |
|  \\    /   O peration     | Version:  5.x                                   |
|   \\  /    A nd           | Web:      www.OpenFOAM.org                      |
|    \\/     M anipulation  |                                                 |
\*---------------------------------------------------------------------------*/
FoamFile
{
    version     2.0;
    format      ascii;
    class       surfaceScalarField;
    location    "7.7";
    object      phi;
}
// * * * * * * * * * * * * * * * * * * * * * * * * * * * * * * * * * * * * * //

dimensions      [0 3 -1 0 0 0 0];

internalField   nonuniform List<scalar> 
29271
(
-2.96207e-06
2.03211e-08
-6.04671e-07
3.53543e-06
-4.65457e-06
5.7706e-07
4.94119e-07
3.59066e-06
-1.09178e-05
-2.46845e-07
-9.25611e-07
2.69302e-07
1.02358e-07
1.17186e-05
-1.12735e-05
1.36831e-08
4.15583e-07
-1.20431e-06
-1.08625e-07
1.21571e-05
-1.03706e-05
4.80057e-07
-8.38418e-07
3.80809e-07
8.6335e-06
1.71464e-06
-1.14335e-05
-4.548e-07
-9.02763e-07
-3.77436e-08
-1.1003e-07
1.29388e-05
-9.81864e-06
2.28512e-06
1.27993e-06
-6.3275e-07
-2.05071e-06
8.93704e-06
-1.02378e-05
2.83216e-06
2.97419e-07
-4.86214e-07
-2.55698e-06
1.01514e-05
-1.01617e-05
1.92282e-06
1.10132e-06
-7.9472e-07
-1.92887e-06
9.86115e-06
-8.8643e-06
4.3791e-07
-8.4627e-07
8.88832e-06
3.29551e-07
-2.254e-06
1.14234e-07
4.26943e-07
1.70292e-06
-1.21435e-05
-2.15488e-07
7.65447e-07
-1.90439e-06
-1.49372e-06
1.49916e-05
-9.27162e-06
1.40881e-06
2.39502e-06
-1.31291e-06
-1.23941e-06
8.02012e-06
-9.14206e-06
1.68971e-06
5.58853e-07
-2.86742e-07
-1.25895e-06
8.43919e-06
-9.72784e-06
1.43582e-06
1.40387e-08
3.6293e-07
-1.16736e-06
9.08241e-06
-1.15419e-05
7.19141e-07
1.43171e-06
-8.70896e-07
1.10005e-05
-7.38537e-07
-1.13527e-05
8.75533e-07
-1.40774e-06
-1.87539e-06
1.13421e-05
2.41819e-06
-9.61645e-06
1.80925e-06
1.0979e-06
-1.14656e-06
-9.15101e-07
8.77096e-06
-9.63054e-06
7.64409e-07
5.6826e-07
-2.27074e-07
-4.23857e-07
8.9488e-06
-9.60751e-06
3.69501e-07
-4.94222e-07
9.12576e-06
7.4495e-07
-1.38484e-07
-3.93597e-06
1.08345e-06
-1.08219e-06
3.90508e-06
-8.47933e-06
5.08672e-07
-8.41691e-07
8.22258e-06
5.43471e-07
-1.08984e-05
2.98653e-07
-1.6106e-07
2.43673e-07
1.04894e-05
2.76995e-08
-3.69335e-06
2.73416e-07
5.47573e-08
3.33355e-06
-6.49256e-06
6.6103e-07
3.30971e-07
5.51396e-06
-3.11166e-06
1.39213e-06
-1.01584e-06
2.74233e-06
-1.49968e-07
-1.77387e-06
-1.25423e-05
1.89847e-06
2.79171e-09
1.25649e-05
-2.63687e-06
-1.26543e-05
-1.53388e-06
3.68365e-07
2.63058e-06
1.38262e-05
-5.95175e-06
-8.16894e-07
-4.11822e-07
6.44563e-06
1.50579e-06
-7.70962e-07
8.15856e-07
-1.09125e-06
-1.33129e-05
2.55523e-06
-6.99776e-07
1.17328e-05
3.33123e-06
-1.38365e-06
3.33967e-05
-6.34546e-06
-6.39959e-06
-5.72006e-06
-6.13054e-06
1.67769e-06
2.78144e-06
1.03445e-06
1.24606e-06
-8.85745e-07
-5.95803e-08
-8.76334e-06
-7.77963e-06
1.79248e-06
1.27326e-06
5.13228e-05
-8.18921e-06
-9.29751e-06
-7.05072e-06
-7.43348e-06
-1.45863e-06
-6.64896e-06
-5.45137e-06
-5.52741e-06
-1.98273e-06
-2.19784e-08
5.8678e-05
-1.42709e-05
-1.54003e-06
-2.04142e-06
-6.46117e-07
-1.55377e-06
-7.94306e-07
-8.39013e-07
-8.76854e-06
-8.23017e-06
-7.97051e-06
-8.226e-06
-9.49758e-06
7.43796e-08
-1.23712e-06
8.68785e-06
-1.54887e-06
3.04565e-07
-4.26745e-07
1.66204e-06
-4.8438e-07
-1.73566e-05
1.49744e-06
5.68117e-07
-1.90866e-06
1.76841e-05
2.41181e-06
-1.44277e-06
2.51087e-05
-6.10273e-06
-6.54278e-06
-6.31126e-06
-6.84556e-06
5.32862e-07
5.65811e-07
-1.45664e-06
-1.3011e-06
-8.78272e-09
-2.1915e-06
3.87387e-05
-8.04098e-06
-8.33708e-06
-8.13834e-06
-8.33697e-06
-1.17653e-06
-1.61127e-06
4.20342e-05
-1.22027e-06
-8.0612e-07
-6.26985e-07
-1.30271e-06
-5.81579e-07
-5.4385e-07
-8.5192e-06
-8.73164e-06
-8.26279e-06
-8.68207e-06
-1.04264e-05
5.94967e-07
1.50565e-06
-1.00251e-06
8.15175e-06
-1.13941e-05
9.85074e-07
-1.45616e-06
-1.47203e-06
1.16421e-05
1.69511e-06
1.18769e-06
-2.02413e-06
3.25963e-05
4.74719e-07
3.69876e-07
4.08497e-07
-2.07405e-07
-1.78843e-06
-1.00022e-06
-1.09357e-06
-7.59173e-06
-7.49363e-06
-7.55549e-06
-7.72523e-06
-1.00581e-06
-2.14095e-06
4.1313e-05
-7.15458e-07
-4.29927e-08
-7.16625e-08
-1.73445e-06
-1.27478e-06
-1.00437e-06
-8.45586e-06
-8.61472e-06
-8.56802e-06
-8.68776e-06
-8.40589e-06
1.89988e-08
-6.61286e-07
6.43109e-06
-3.60892e-06
9.32312e-07
-4.59707e-07
3.12932e-06
-8.10105e-06
1.08234e-06
-1.31438e-06
6.22228e-06
-9.22811e-06
1.37508e-08
9.06485e-07
-7.35003e-07
6.90193e-06
-3.14673e-06
3.26263e-07
-1.18716e-07
2.92979e-06
-4.03984e-06
-4.93138e-07
3.34708e-07
4.2054e-06
-3.18905e-06
-1.09227e-07
-3.67352e-07
3.66154e-06
1.54638e-07
-2.21557e-08
-9.93569e-06
2.84146e-07
1.15019e-06
8.36887e-06
4.76775e-07
-1.77378e-05
-1.05923e-06
1.78954e-06
7.7025e-07
1.57605e-05
-4.12406e-06
-2.75736e-08
3.95588e-07
-4.27279e-07
5.08113e-06
-8.97808e-07
2.32134e-07
-2.08868e-07
-7.83449e-06
2.51617e-06
-2.83203e-07
5.57826e-06
6.23321e-06
3.72853e-06
5.49046e-05
-4.74687e-06
-5.86169e-06
-1.31472e-06
-1.68452e-06
-7.01832e-06
-7.93425e-06
-1.27998e-06
-1.62925e-06
1.41727e-06
9.15136e-06
6.26124e-05
-6.48934e-06
-3.93372e-06
-2.84313e-06
-2.3589e-06
-3.89727e-07
1.36656e-06
8.12903e-05
-7.99104e-07
-9.43036e-07
-4.82542e-06
-6.57581e-06
-7.492e-07
-4.55729e-06
-3.72197e-06
-7.95383e-06
-3.53831e-07
2.11321e-07
7.72918e-06
-1.21569e-06
5.94634e-09
1.0093e-08
1.20229e-06
-8.17968e-07
-1.61177e-05
6.49794e-07
2.70563e-06
-5.4335e-07
1.41236e-05
6.19032e-06
4.8705e-07
3.44797e-05
-5.5785e-06
-3.66158e-06
-1.61643e-06
-1.46332e-06
8.67201e-08
-9.35967e-07
5.49297e-05
-6.85105e-07
-9.55616e-07
6.11558e-05
-2.6061e-07
-3.13168e-06
-3.5347e-06
-6.62158e-07
-4.32881e-06
-4.10957e-06
-9.37487e-06
-1.85532e-07
-1.25457e-06
1.67535e-07
9.96233e-06
-6.6681e-06
-2.50053e-07
8.34071e-07
1.02549e-06
5.27257e-06
-2.1398e-07
2.42142e-06
4.53683e-07
3.3199e-05
-1.74735e-06
-8.1908e-07
-1.16868e-06
-1.17357e-06
4.14831e-07
7.66047e-07
7.37048e-07
2.43416e-08
3.38653e-07
4.31159e-05
4.02976e-07
-2.45307e-07
-3.57945e-07
2.52419e-07
-2.28587e-07
-5.03921e-07
-6.19313e-06
-3.88329e-08
-4.07866e-07
5.70856e-06
-3.02094e-06
3.5877e-07
1.15472e-07
2.54577e-06
-5.05779e-06
-1.72305e-07
1.50573e-07
5.52502e-06
-6.27258e-06
-5.67331e-08
8.73882e-08
-4.34784e-08
6.62406e-06
-2.9734e-06
1.91726e-07
-8.04952e-08
2.87419e-06
-5.06557e-06
1.47994e-06
-1.32721e-06
4.91283e-06
-3.74535e-06
-6.8038e-09
2.5554e-06
1.19675e-06
-4.21396e-06
-1.27737e-06
-8.2293e-06
-1.13465e-06
6.86057e-06
7.99471e-06
-2.34922e-06
-1.53105e-05
3.49407e-06
-1.88589e-06
4.93203e-06
1.11195e-05
2.11973e-07
-1.06947e-06
-6.7447e-07
2.72414e-06
-1.54209e-06
3.49916e-07
-2.37483e-06
-1.17769e-06
-5.60294e-06
2.1155e-06
8.85845e-07
6.15411e-06
-6.02904e-06
-5.89728e-06
9.51712e-05
-3.25101e-06
-3.58022e-06
-5.35116e-06
-5.29607e-06
-1.29437e-06
-1.53351e-06
-4.00387e-06
-4.03011e-06
-1.2435e-05
1.07558e-06
7.83646e-05
-2.46587e-06
-2.56088e-06
-2.56654e-06
-2.82857e-06
-9.2652e-07
2.04888e-06
7.28985e-05
-3.45855e-06
-1.21559e-06
-7.32829e-08
-1.8878e-07
-7.44989e-07
5.02907e-07
1.26957e-08
-5.82118e-06
-8.25563e-08
2.45852e-07
4.73136e-06
-1.35452e-06
-4.96429e-08
2.68773e-08
1.37727e-06
-5.13459e-07
-1.2581e-05
-6.10618e-08
8.10559e-07
-5.48274e-08
1.23998e-05
-7.39666e-06
-1.72214e-05
5.52475e-05
-1.55377e-07
5.35916e-07
-1.07537e-06
-1.35226e-06
-3.57005e-06
-2.89481e-06
5.50734e-05
-2.75436e-07
-5.14346e-07
5.64954e-05
-2.34269e-07
1.35586e-06
1.98289e-06
-1.69756e-07
4.68528e-07
5.25723e-07
-7.31964e-06
4.0661e-07
2.44119e-08
-8.23252e-07
7.43643e-06
-5.14296e-06
1.79663e-06
-1.30442e-06
-3.91754e-06
7.33152e-06
1.23676e-06
-2.99522e-06
-4.0064e-06
4.16106e-05
3.52493e-07
5.72866e-07
-2.37218e-06
-3.19737e-06
-4.21968e-06
-4.71368e-06
-5.05375e-06
-4.57621e-08
-1.85588e-06
4.41662e-05
-1.80255e-07
-7.55611e-07
-6.12829e-07
-1.04831e-06
-1.27641e-06
-1.16536e-06
-2.11407e-06
9.27473e-07
-1.02044e-06
1.64693e-06
-8.61424e-07
9.44337e-07
-1.19777e-06
1.11486e-06
-6.28547e-06
2.45448e-06
-2.47874e-06
2.30333e-06
-6.70833e-06
1.0029e-06
2.65719e-07
-4.94514e-07
4.07834e-06
-1.47523e-06
1.03102e-06
-5.14409e-07
9.58624e-07
-4.0224e-06
6.32529e-07
1.66882e-07
3.22299e-06
-2.80374e-07
-2.51461e-07
-6.70114e-07
1.20195e-06
-7.1647e-07
1.12218e-06
-6.97465e-06
-1.16335e-06
2.38753e-06
5.34476e-06
-5.78233e-07
-8.81727e-06
1.71208e-06
-1.92551e-06
1.34811e-06
8.26082e-06
5.63646e-07
1.19202e-07
2.28099e-07
1.13713e-07
-2.44915e-06
1.42449e-06
9.04978e-07
9.58955e-07
-4.87703e-06
-2.64749e-07
-8.0382e-07
4.08166e-06
-9.20553e-07
2.1236e-08
0.000107074
-3.09076e-06
-3.80103e-06
-8.33269e-07
-1.40693e-06
-1.50607e-06
-2.1781e-06
1.02133e-06
7.90949e-07
-6.58109e-06
7.25593e-07
8.9147e-05
-2.32666e-06
-2.12511e-06
-9.03378e-07
-4.92313e-07
-1.00846e-07
7.28761e-07
6.47369e-05
-5.85784e-07
-6.18308e-11
1.53534e-08
1.34523e-06
-4.05027e-07
2.50986e-07
3.31928e-07
-4.99601e-06
-6.43682e-07
-7.7292e-08
5.61614e-06
-1.67116e-06
7.73977e-08
-5.75141e-07
2.1689e-06
1.51439e-06
-1.23514e-05
4.38573e-07
-2.56925e-07
7.69129e-08
1.05784e-05
-1.98146e-06
-6.19554e-06
6.33013e-05
-7.23169e-07
-5.79786e-07
4.66935e-07
9.80449e-07
-1.4137e-06
-4.45869e-06
5.969e-05
7.7538e-07
-1.4333e-06
5.38696e-05
1.55811e-06
9.31516e-07
1.46903e-06
-1.03601e-06
-1.85226e-08
-3.05295e-07
-9.2496e-06
3.87304e-07
6.11134e-07
-1.20277e-06
1.02293e-05
-6.30844e-06
-1.55884e-07
1.0453e-06
2.33082e-07
5.80273e-06
-6.16788e-07
-1.51258e-06
1.0544e-07
3.79029e-05
-1.533e-06
-4.03546e-07
-7.57651e-07
-4.1187e-07
-3.09408e-07
1.51222e-06
8.22517e-07
-5.74637e-07
-1.12376e-06
4.11602e-05
-3.86894e-07
-2.19292e-07
-1.462e-07
-1.20503e-06
1.53707e-07
5.36843e-07
-1.28445e-06
3.61333e-07
-2.2487e-06
1.16387e-06
-2.21114e-06
5.29198e-07
-1.35297e-06
3.03491e-06
-7.54169e-07
-3.09587e-07
-6.7518e-08
1.23671e-06
-1.96384e-06
4.29871e-07
-2.52871e-08
-6.41832e-07
1.07733e-06
-1.46003e-06
1.18258e-06
9.64205e-08
1.81036e-07
-2.567e-06
-2.47042e-07
5.78416e-07
2.23563e-06
-1.09461e-06
3.27046e-07
-8.93583e-07
1.66114e-06
8.03478e-07
2.4797e-07
-5.07728e-06
3.36847e-07
-1.08326e-06
4.77225e-06
6.83811e-07
-8.84787e-06
-8.23304e-07
4.1568e-07
-8.45841e-07
9.41753e-06
2.2259e-06
-8.87422e-07
1.71753e-07
3.04628e-07
-1.76056e-06
-5.42976e-08
9.58341e-07
8.82798e-07
-4.83868e-06
-1.92347e-06
-5.43016e-07
5.46403e-06
-1.0728e-07
9.33984e-07
0.000101978
-7.10384e-08
-1.37281e-06
8.25808e-07
1.31755e-08
1.23393e-06
9.33323e-07
1.35752e-06
1.35014e-06
-6.40323e-06
1.26175e-06
9.33486e-05
-6.55967e-07
-8.28666e-08
6.1851e-07
9.5299e-07
-2.86664e-07
-2.71053e-07
6.06888e-05
-2.9467e-07
5.475e-07
5.90214e-09
-6.4408e-07
-4.37085e-07
-4.72871e-07
-5.0212e-07
-5.26992e-06
-2.50221e-07
1.26105e-06
-4.87833e-07
4.46026e-06
2.67207e-07
-4.84047e-07
2.75515e-07
-5.86748e-08
-2.60349e-06
-1.3232e-07
-2.46317e-07
2.98213e-06
7.61067e-07
-9.70072e-06
-2.60053e-07
-9.22252e-07
1.19026e-06
8.9317e-06
1.23728e-06
-4.5236e-06
6.54822e-05
2.02048e-07
5.15695e-07
6.18559e-07
7.03116e-07
-9.5236e-07
-2.78659e-06
6.59279e-05
-1.02266e-07
-7.71467e-08
5.35145e-05
1.5763e-07
-3.27278e-07
-7.5582e-07
-1.40689e-08
1.67655e-07
8.29335e-08
-9.94059e-06
3.51417e-07
1.60845e-06
1.16572e-06
6.71274e-06
3.05457e-07
-9.6616e-07
-6.19923e-07
-4.02197e-07
1.68282e-06
-5.63563e-06
-6.98585e-07
5.72792e-07
1.92755e-06
5.50855e-06
-1.67468e-06
1.34208e-07
8.56417e-07
3.70801e-05
-9.35223e-07
-1.67788e-06
-1.0307e-06
-1.74592e-06
1.69923e-07
4.39636e-07
8.8761e-08
-7.26835e-07
-8.21059e-08
4.06924e-05
-1.06651e-06
-7.83141e-07
-8.49706e-07
5.14835e-07
1.47305e-07
6.61605e-07
-2.20649e-06
-7.50192e-07
2.80801e-08
2.12462e-06
-3.90005e-06
-5.11844e-07
7.49383e-07
3.66251e-06
-1.38273e-06
-8.89086e-07
1.54621e-06
1.58202e-06
-3.46025e-06
-5.74503e-07
-2.53441e-07
-1.82835e-07
4.38893e-06
5.06515e-07
6.37073e-08
-2.23063e-07
-3.47159e-07
-2.18141e-06
-5.28046e-07
3.85408e-07
2.32405e-06
-1.76845e-06
5.52656e-07
-3.12495e-07
1.52829e-06
1.43774e-06
-2.96476e-07
-5.14023e-06
6.03596e-07
-2.3376e-06
5.73297e-06
1.32221e-06
-9.62272e-06
-1.30339e-06
1.94434e-06
-1.88305e-06
9.54261e-06
9.2439e-07
-7.72635e-07
1.33011e-06
2.70427e-07
-2.66469e-08
-1.72564e-06
-7.40756e-08
6.44744e-07
-6.28238e-06
-1.41021e-06
3.5051e-07
6.77141e-06
1.2785e-06
4.2282e-06
9.31851e-05
8.26168e-07
-1.05714e-07
6.3309e-07
7.15055e-07
6.70008e-07
5.59712e-07
-2.14292e-07
2.01877e-07
-7.25247e-06
1.95547e-06
9.72201e-05
2.43956e-07
5.63521e-07
8.55357e-07
1.04112e-06
-5.58254e-07
-1.35202e-07
5.74735e-05
-7.7035e-08
-7.74125e-07
1.24033e-07
-8.48815e-07
-5.00631e-07
-8.11751e-07
-4.55335e-07
-3.94183e-06
-9.85124e-07
1.54482e-07
1.29331e-06
2.92091e-06
-2.42557e-07
-7.0158e-07
6.24173e-07
-7.5846e-07
-2.97866e-07
1.37629e-06
-3.35406e-06
-3.81133e-07
8.67097e-08
3.64848e-06
1.47942e-07
-8.4679e-06
-9.51038e-07
-4.96442e-07
1.44126e-06
8.32618e-06
3.78209e-06
-4.05424e-07
6.6697e-05
-4.1385e-08
-6.56153e-08
-9.41003e-08
-1.62194e-07
-2.25488e-07
-7.96585e-07
7.26876e-05
-7.29363e-08
-2.27272e-07
5.4584e-05
-5.31997e-07
4.82778e-08
-1.88237e-07
-2.13968e-07
-2.56328e-08
-2.18417e-07
-6.19231e-06
-2.14737e-07
1.47984e-07
-2.0616e-07
6.39229e-06
-2.48318e-06
4.92396e-07
1.56308e-07
-6.93586e-07
-3.98331e-07
2.92639e-06
-5.4932e-06
-1.02352e-06
1.47125e-06
1.79633e-06
4.88512e-06
-1.63598e-06
3.15522e-06
4.06699e-07
4.00852e-05
-1.78099e-06
-1.84495e-06
-1.81087e-06
-1.73732e-06
7.49193e-08
7.92849e-08
4.74396e-08
-9.04815e-07
4.21854e-07
4.43689e-05
-1.06592e-06
-9.01046e-07
-7.56666e-07
7.61993e-07
4.21937e-07
7.04821e-07
-2.6195e-06
-1.47296e-06
8.17445e-08
2.87862e-06
-2.41541e-06
-1.77378e-06
2.36633e-06
-5.88834e-07
2.41168e-06
5.79565e-07
6.78526e-07
-4.91594e-07
-7.66497e-07
-1.81828e-06
-6.2322e-07
4.25309e-07
2.42289e-06
-5.18133e-06
1.44172e-07
-6.87952e-07
2.53768e-07
5.8932e-06
1.26126e-07
-2.55561e-07
1.32472e-07
-3.03608e-09
-2.55909e-06
-3.75503e-07
1.63338e-07
2.77125e-06
-1.0149e-06
4.67022e-07
1.42771e-07
4.05105e-07
7.06497e-07
-7.97212e-07
-6.28999e-06
1.06166e-06
-1.14256e-06
6.46161e-06
1.1126e-06
-9.31057e-06
-1.05693e-06
1.69665e-06
-1.67554e-06
9.23379e-06
-9.18052e-07
-3.09577e-07
9.57078e-07
3.25096e-07
1.68544e-06
-1.73998e-06
-8.22728e-07
2.39013e-07
-6.51489e-06
1.85106e-07
1.16525e-06
5.74825e-06
3.77326e-06
8.60763e-06
8.31899e-05
-3.38917e-08
6.81376e-08
-2.31874e-07
3.24116e-07
-7.00978e-07
-6.74936e-07
-5.38391e-07
-5.97914e-07
-3.87229e-06
4.96416e-06
9.83581e-05
7.6973e-08
2.66005e-07
5.85807e-07
6.14646e-07
-8.83155e-07
2.07083e-06
5.7616e-05
-6.00101e-07
-1.11387e-06
-6.804e-07
-1.04868e-06
-3.48381e-07
-1.11625e-06
-2.94873e-07
-2.5448e-06
-7.98942e-07
-7.14706e-07
8.70915e-07
2.30438e-06
-1.68362e-06
5.74552e-07
1.611e-07
2.38135e-07
-6.1663e-07
1.32646e-06
-3.91013e-06
-6.73942e-07
4.61625e-07
4.12245e-06
-4.73923e-07
-8.41424e-06
-1.48021e-06
6.7702e-07
1.2314e-06
8.45995e-06
5.11189e-06
4.08797e-06
6.90333e-05
-8.67134e-07
-7.00874e-07
-8.04341e-07
-5.56122e-07
1.43003e-06
1.59294e-06
7.97406e-05
3.40284e-07
-1.70228e-07
5.67477e-05
3.78354e-07
6.12771e-07
4.04928e-07
-1.18345e-07
-7.26516e-08
-3.79459e-08
-6.95371e-06
-9.00752e-08
2.21999e-07
-5.36726e-07
7.6988e-06
-2.98835e-06
1.8084e-07
-1.50229e-07
-9.04232e-08
2.70067e-07
2.77809e-06
-4.22331e-06
-7.06156e-07
1.37366e-06
1.13266e-06
3.51166e-06
-1.08852e-06
5.47266e-06
1.55165e-07
4.48079e-05
-2.09353e-06
-1.50753e-06
-1.93433e-06
-1.24336e-06
2.59348e-07
-6.81071e-09
2.63669e-07
-6.1181e-07
6.76365e-07
5.00349e-05
-5.06504e-07
-1.52257e-07
-3.49561e-07
8.71187e-07
6.67182e-07
8.05023e-07
-3.59437e-06
-1.46577e-06
-1.74287e-07
4.45239e-06
-9.14522e-07
-2.39608e-07
2.46122e-06
-1.22556e-06
-8.15281e-08
1.12853e-06
-6.73209e-07
6.44806e-07
-1.59339e-07
-9.40791e-07
-2.83138e-06
3.24539e-07
-5.65153e-07
3.22716e-06
-6.20022e-06
3.86735e-07
-5.90545e-07
4.65341e-07
6.61505e-06
-2.4801e-07
-2.47245e-08
6.95778e-09
2.65777e-07
-2.86231e-06
-1.02685e-07
1.06562e-07
2.85843e-06
4.67817e-08
-1.60191e-07
4.39567e-07
-3.26157e-07
-2.10498e-07
8.82731e-08
-6.45659e-06
3.02907e-07
5.99861e-08
6.21592e-06
1.38785e-07
-9.45469e-06
-4.24061e-07
6.30605e-07
-6.76355e-07
9.78572e-06
-2.08671e-06
2.91121e-08
3.444e-07
3.2342e-07
2.0731e-06
-6.83314e-07
-8.02515e-07
-1.23348e-07
-5.01474e-06
4.27862e-07
1.14079e-06
4.37195e-06
5.50847e-06
8.55514e-06
7.49995e-05
-5.92507e-07
-4.79362e-07
-6.67637e-07
-4.51448e-07
-6.87686e-07
-1.23232e-06
-5.68289e-07
-1.19392e-06
-8.14438e-07
7.54647e-06
9.78512e-05
-2.9677e-07
-2.72359e-07
-1.84851e-07
3.72717e-08
-8.31429e-07
4.90014e-06
5.8988e-05
-1.17673e-06
-9.23842e-07
-1.06947e-06
-9.70409e-07
-2.23118e-07
-1.4184e-06
-4.73129e-07
-3.06843e-06
4.14714e-07
-9.09223e-07
-1.91763e-07
2.92327e-06
1.49696e-07
-1.44624e-07
9.19912e-07
-6.3706e-07
-2.87925e-07
-4.26504e-06
-5.24542e-07
5.10765e-07
4.27882e-06
-7.67571e-07
-8.55216e-06
-1.34121e-06
1.18351e-06
1.00389e-06
8.47354e-06
5.58595e-06
5.0206e-06
7.13032e-05
-1.28208e-06
-1.01242e-06
-1.19491e-06
-8.31854e-07
2.70079e-06
4.25451e-06
8.59178e-05
7.83519e-07
2.85488e-07
5.97974e-05
9.6979e-07
5.89071e-07
1.58215e-07
6.35967e-07
4.81933e-07
6.47226e-07
-7.92527e-06
3.81581e-07
6.44855e-07
7.73053e-08
7.60504e-06
-1.97768e-06
-1.85414e-07
-8.79701e-07
1.1368e-06
8.63113e-07
1.04288e-06
-2.95123e-06
-5.79086e-07
1.12338e-06
6.44932e-07
2.50237e-06
-7.40368e-07
6.05078e-06
4.94771e-08
4.82309e-05
-1.86139e-06
-8.99098e-07
-1.56255e-06
-7.48937e-07
3.11535e-07
-3.30651e-08
2.90876e-07
1.53037e-07
9.16406e-07
5.61175e-05
-1.05822e-07
3.98401e-07
-1.63202e-07
1.0741e-06
9.63516e-07
9.86219e-07
-5.40329e-06
-5.34569e-07
-2.05515e-07
6.58189e-06
3.17203e-07
-1.30242e-06
1.38745e-06
-4.0223e-07
-3.43697e-06
7.61199e-07
-9.50963e-07
3.67621e-06
-6.83838e-06
4.68088e-07
-4.40092e-07
5.90119e-07
7.13667e-06
-3.68601e-07
1.44892e-07
-2.60691e-07
4.844e-07
-2.84768e-06
2.37237e-07
-1.90449e-07
2.8009e-06
4.59617e-07
-6.02059e-07
6.45494e-07
-5.03052e-07
-5.74675e-07
9.65405e-07
-5.92588e-06
-9.34178e-07
1.03974e-06
5.42958e-06
-5.01928e-07
-9.8298e-06
5.82024e-07
-3.06157e-07
6.82024e-07
9.37384e-06
-1.90765e-06
2.23257e-07
-2.22981e-07
3.32705e-08
1.81773e-06
5.63709e-08
-7.76156e-07
-2.10041e-07
-4.07972e-06
4.39036e-07
5.532e-07
4.07368e-06
5.41815e-06
7.75414e-06
7.09509e-05
-1.05177e-06
-1.3543e-06
-1.17311e-06
-1.36315e-06
-5.70102e-07
-1.60901e-06
-6.02661e-07
-1.39958e-06
-7.01694e-08
7.98391e-06
9.77843e-05
-9.86348e-07
-5.34967e-07
-7.69279e-07
-1.38045e-07
-1.35664e-06
5.4044e-06
6.07916e-05
-1.16094e-06
-6.94944e-07
-8.26275e-07
-5.19326e-07
-1.09434e-06
-8.23644e-07
-8.02097e-07
-3.22146e-06
7.00393e-07
-1.46828e-06
2.63271e-06
-4.06699e-06
-3.52378e-07
8.68424e-07
3.55095e-06
-1.39984e-06
-8.25334e-06
-3.15615e-07
1.84492e-06
3.03837e-07
7.82003e-06
4.75172e-06
3.99718e-06
7.49939e-05
-1.70622e-06
-1.08071e-06
-1.35598e-06
-5.42615e-07
2.1789e-06
5.71256e-06
9.07619e-05
2.56552e-07
5.61099e-07
6.3215e-05
-1.28197e-07
5.80936e-07
2.6514e-08
9.2178e-07
9.70848e-07
9.76228e-07
-8.12527e-06
6.62028e-07
-6.24718e-08
5.71652e-07
7.21061e-06
-2.08639e-06
-4.08617e-07
6.38186e-07
1.73785e-07
1.8987e-06
-2.15665e-07
4.73395e-06
3.32151e-09
4.92473e-05
-9.75855e-07
-2.9607e-07
-6.15777e-07
-2.64494e-07
2.39687e-07
-5.25583e-08
2.08552e-07
4.32602e-07
1.26252e-06
6.02487e-05
6.67e-08
8.49423e-07
-1.57598e-08
1.259e-06
1.31224e-06
1.14859e-06
-8.09633e-06
-1.86452e-07
1.9355e-07
9.08293e-06
3.6526e-07
-1.22064e-06
1.20675e-06
-3.51371e-07
-3.83602e-06
1.0395e-06
-1.24357e-06
4.04341e-06
-7.34016e-06
6.39315e-07
-4.45851e-07
8.08067e-07
7.60114e-06
-6.26181e-07
1.19177e-07
-3.31667e-07
8.38671e-07
-2.69007e-06
4.42427e-07
-2.92262e-07
2.53991e-06
4.88088e-07
-5.25096e-07
4.60735e-07
-4.23727e-07
-4.71985e-07
8.64629e-07
-4.85795e-06
-1.0796e-06
1.28192e-06
4.26298e-06
-6.87482e-07
-8.62257e-06
1.05072e-06
-7.73956e-07
1.17318e-06
7.8601e-06
-1.76023e-06
3.48618e-07
-6.11061e-07
-2.67951e-07
1.79714e-06
4.93491e-07
-4.75584e-07
-6.86884e-08
-4.27366e-06
3.39061e-07
-1.54793e-07
4.63367e-06
4.71218e-06
5.84829e-06
6.9245e-05
-1.29961e-06
-1.81847e-06
-1.20399e-06
-1.41661e-06
-4.66703e-07
-1.39235e-06
-4.13556e-07
-8.43352e-07
-2.82056e-08
7.24551e-06
9.75734e-05
-1.10272e-06
-5.21981e-07
-5.79786e-07
-8.97384e-08
-3.49724e-07
4.79076e-06
5.89826e-05
-7.3845e-07
-2.72333e-07
-4.69169e-07
-1.95578e-07
-5.01363e-07
-2.25744e-07
-2.57596e-07
-2.39928e-06
7.84429e-07
-1.11085e-06
2.37598e-06
-2.88441e-06
-8.68996e-08
6.19538e-07
2.35178e-06
-1.33236e-06
-7.28274e-06
6.95658e-07
1.54794e-06
-5.03051e-07
6.87455e-06
2.86635e-06
1.88176e-06
7.77381e-05
-1.1188e-06
-3.8237e-07
-3.82731e-07
2.3985e-07
2.16409e-06
5.70801e-06
9.30017e-05
8.06351e-07
7.19505e-07
6.36995e-05
3.92933e-07
7.64917e-07
3.92068e-07
1.05877e-06
1.2589e-06
1.07686e-06
-6.11951e-06
4.82646e-07
3.94597e-07
4.96226e-07
5.5524e-06
-1.78069e-06
-2.65361e-07
8.68894e-08
-2.12917e-07
1.8291e-06
3.42981e-07
1.73621e-06
-2.17343e-09
4.82883e-05
3.52052e-08
3.34149e-07
2.81647e-07
3.24689e-07
1.28549e-07
-5.85726e-08
6.10879e-08
6.86272e-07
1.39026e-06
6.06715e-05
1.4133e-07
1.12279e-06
3.99429e-08
1.23034e-06
1.32654e-06
1.08388e-06
-1.04389e-05
4.27189e-07
6.65775e-07
1.07517e-05
2.09268e-07
-6.66759e-07
3.49427e-07
1.08063e-07
-4.27453e-06
1.10665e-06
-1.41919e-06
4.58489e-06
-7.78483e-06
8.85303e-07
-6.67136e-07
9.77972e-07
7.97895e-06
-1.05427e-06
-2.1225e-07
-8.91068e-08
1.35563e-06
-2.41594e-06
2.26297e-07
-1.74222e-07
2.36387e-06
2.94443e-07
-2.48727e-07
5.07901e-08
-9.65062e-08
-1.43446e-08
4.20723e-07
-3.77555e-06
-5.95117e-07
4.87493e-07
3.4768e-06
-4.61147e-07
-7.32057e-06
6.7451e-07
-7.49761e-07
6.47842e-07
7.20913e-06
-1.82691e-06
2.69992e-07
-9.60804e-07
-3.29355e-07
2.02957e-06
8.17507e-07
-1.00525e-09
5.32238e-07
-4.99952e-06
-2.88967e-07
-6.35853e-07
5.39311e-06
3.261e-06
1.47858e-06
6.77196e-05
-7.06365e-07
-1.14933e-06
-3.46337e-07
-4.21366e-07
-1.1063e-07
-5.63388e-07
4.84672e-08
3.47875e-08
-1.80996e-07
5.80334e-06
9.60284e-05
-6.59959e-07
-3.42105e-07
-8.80383e-08
2.73748e-07
1.16358e-07
2.42692e-06
5.46352e-05
-3.35285e-08
5.18027e-07
1.52987e-07
5.7105e-07
1.0986e-07
1.05805e-07
1.98942e-07
-2.32785e-06
7.89392e-07
-7.48638e-07
2.40345e-06
-1.97099e-06
-3.76032e-08
2.74978e-07
1.73361e-06
-8.09323e-07
-6.61868e-06
1.15471e-06
4.24481e-07
-7.431e-07
6.59192e-06
8.05547e-08
-2.80774e-07
7.65565e-05
1.94004e-07
5.65845e-07
9.69424e-07
1.1312e-06
2.29191e-06
4.72511e-06
9.18686e-05
7.9337e-07
9.41328e-07
6.11471e-05
5.94706e-07
6.30124e-07
5.07941e-07
1.15696e-06
1.46662e-06
1.18016e-06
-5.14246e-06
4.12253e-07
3.24167e-07
2.65283e-07
4.93412e-06
-1.90403e-06
-9.88805e-08
-2.10867e-07
-3.93835e-07
2.13663e-06
4.70985e-07
-8.57205e-07
5.37818e-08
4.60303e-05
5.94893e-07
7.30952e-07
7.86915e-07
6.71839e-07
2.08603e-08
8.55459e-09
-3.34404e-08
6.61071e-07
1.23072e-06
5.82711e-05
6.05534e-08
1.05435e-06
-2.12902e-08
1.08958e-06
1.156e-06
1.03738e-06
-1.15854e-05
6.88033e-07
1.15459e-06
1.13452e-05
-5.8676e-07
-4.17306e-07
-1.62223e-07
1.16629e-06
-4.89704e-06
9.96926e-07
-1.32014e-06
5.27404e-06
-8.18252e-06
9.90675e-07
-1.03947e-06
1.01485e-06
8.44719e-06
-1.73073e-06
-7.53136e-07
3.36647e-07
2.14722e-06
-2.35486e-06
-1.1825e-07
8.54423e-08
2.38766e-06
-1.74877e-07
-2.92178e-08
-3.14902e-07
5.18996e-07
5.20938e-07
1.80682e-07
-3.30399e-06
-1.23088e-07
-6.61961e-07
3.38742e-06
2.91453e-07
-7.49479e-06
1.27108e-07
-5.50293e-07
-3.11215e-07
7.93774e-06
-2.41544e-06
-8.89044e-08
-1.14225e-06
-1.51299e-07
3.03956e-06
7.5833e-07
2.20668e-07
1.33178e-06
-5.72333e-06
-1.23207e-06
-6.10895e-07
6.01384e-06
-8.11704e-07
-2.55941e-06
6.52372e-05
6.38408e-07
2.49642e-07
8.9034e-07
5.36228e-07
7.80458e-07
5.35279e-07
1.16762e-06
1.05555e-06
1.04277e-06
2.90061e-06
8.95393e-05
-1.56218e-08
3.0985e-07
6.70597e-07
7.69147e-07
5.51328e-07
-1.9694e-07
4.98056e-05
5.75168e-07
1.3937e-06
6.70417e-07
1.34732e-06
6.63775e-07
3.64316e-07
5.03235e-07
-2.37848e-06
9.7976e-07
-6.79935e-07
2.62998e-06
-1.63397e-06
-2.62311e-07
2.17147e-07
1.67914e-06
-1.45194e-07
-6.70661e-06
1.18233e-06
-6.44342e-07
-7.07965e-07
7.02178e-06
-3.01727e-06
-5.76712e-07
7.13717e-05
1.31738e-06
1.33072e-06
1.85765e-06
1.71356e-06
1.53363e-06
3.69314e-06
8.65251e-05
4.14275e-07
1.29798e-06
5.47835e-05
5.59809e-07
2.93318e-07
6.26817e-07
1.32461e-06
1.83925e-06
1.34424e-06
-4.78077e-06
2.03995e-07
3.59617e-08
2.64901e-07
4.69019e-06
-2.47171e-06
3.30818e-08
-4.12022e-07
-3.98086e-07
2.92886e-06
3.19878e-07
-3.02213e-06
1.79789e-07
4.4764e-05
7.77515e-07
7.58056e-07
9.99265e-07
6.97247e-07
2.90481e-08
2.10233e-07
6.06368e-08
4.00121e-07
1.07207e-06
5.41329e-05
-1.88953e-07
7.12588e-07
-2.4978e-07
1.04671e-06
1.03259e-06
9.83826e-07
-1.17342e-05
7.14347e-07
1.56539e-06
1.11526e-05
-1.73506e-06
-1.93238e-07
-4.01617e-07
2.32992e-06
-5.60189e-06
7.81894e-07
-1.03156e-06
6.03134e-06
-8.79379e-06
9.38181e-07
-1.26254e-06
9.58981e-07
9.23124e-06
-2.59066e-06
-1.14256e-06
6.96446e-07
3.03677e-06
-2.48631e-06
-1.16187e-07
-2.05201e-08
2.62302e-06
-9.15879e-07
1.30726e-07
-5.52496e-07
1.33765e-06
9.14791e-07
-1.47864e-07
-3.60575e-06
1.83611e-07
-1.39619e-06
4.0514e-06
1.19056e-06
-8.28966e-06
5.50268e-09
-1.85621e-07
-1.47172e-06
8.75094e-06
-3.85897e-06
-2.45099e-07
-1.02232e-06
2.47055e-07
4.57326e-06
3.06074e-07
5.73696e-07
1.94112e-06
-6.25962e-06
-2.57833e-06
-3.09985e-07
6.63312e-06
-6.03722e-06
-1.96695e-06
6.0182e-05
1.23165e-06
5.16998e-07
1.47607e-06
9.10889e-07
2.21187e-06
1.65963e-06
2.53128e-06
2.52101e-06
1.96509e-07
-6.36795e-07
7.87042e-05
1.22095e-06
8.85316e-07
1.85578e-06
1.27615e-06
4.19241e-07
1.10181e-06
4.46067e-05
1.78286e-07
1.156e-06
2.84675e-07
9.87858e-07
5.41646e-07
2.90393e-07
4.35573e-07
-2.69402e-06
9.64244e-07
-6.80995e-07
2.83002e-06
-1.87145e-06
-4.63274e-07
1.57461e-07
2.17726e-06
6.15065e-07
-7.51273e-06
4.63676e-07
-1.40084e-06
-2.78569e-07
8.1134e-06
-4.9939e-06
7.04328e-07
6.6437e-05
1.73096e-06
1.42855e-06
2.24525e-06
1.85261e-06
2.01857e-07
3.76033e-06
7.69323e-05
1.53082e-07
1.71253e-06
4.75392e-05
6.77354e-07
2.27187e-07
7.87349e-07
1.43638e-06
2.11722e-06
1.43687e-06
-4.74723e-06
8.44578e-08
-9.41112e-08
3.14125e-08
4.87855e-06
-3.44143e-06
8.16092e-08
-4.45932e-07
-2.21543e-07
3.94933e-06
7.7966e-08
-3.91092e-06
3.55571e-07
4.57521e-05
6.50139e-07
6.17436e-07
7.59657e-07
5.23763e-07
1.15854e-07
4.02234e-07
2.02461e-07
1.46513e-09
9.19681e-07
5.11017e-05
-4.56198e-07
2.26735e-07
-4.88859e-07
9.24669e-07
8.92911e-07
8.60198e-07
-1.12665e-05
5.08297e-07
1.81776e-06
1.06544e-05
-2.87019e-06
6.07287e-09
-4.88932e-07
3.35305e-06
-6.45538e-06
4.59745e-07
-6.35554e-07
6.98676e-06
-9.80965e-06
7.55113e-07
-1.20835e-06
7.81571e-07
1.0401e-05
-3.49136e-06
-1.22661e-06
7.95893e-07
3.92208e-06
-2.7303e-06
9.01518e-08
-1.10824e-07
2.75098e-06
-1.76897e-06
-4.17722e-08
-3.91427e-07
2.20217e-06
1.02102e-06
-3.97611e-07
-4.65246e-06
5.70174e-07
-1.80018e-06
5.25906e-06
1.16591e-06
-9.37947e-06
-2.9182e-07
2.56997e-07
-1.9325e-06
1.01809e-05
-5.26398e-06
-1.82286e-07
-6.88481e-07
3.44756e-07
5.92777e-06
-1.37779e-07
1.0009e-06
1.4825e-06
-7.05026e-06
-2.3271e-06
-4.99835e-07
7.3938e-06
-6.19139e-06
7.4013e-07
5.1813e-05
1.48509e-06
8.40131e-07
1.5016e-06
1.26061e-06
2.35617e-06
2.44888e-06
1.40393e-06
2.52383e-06
8.76255e-07
1.72241e-07
6.55736e-05
1.5185e-06
1.01907e-06
1.86039e-06
1.49274e-06
2.54761e-07
3.28018e-06
4.03871e-05
-2.4773e-07
4.7014e-07
-1.94815e-08
3.59098e-07
3.92441e-07
2.18009e-07
3.88353e-07
-2.93456e-06
8.13651e-07
-6.94694e-07
3.07036e-06
-2.55102e-06
-2.71703e-07
-1.23571e-07
2.9463e-06
7.0983e-07
-8.83022e-06
9.25629e-08
-1.47786e-06
2.05531e-07
9.30015e-06
-5.03089e-06
2.81304e-06
6.30748e-05
1.68513e-06
1.39946e-06
1.64652e-06
1.589e-06
-1.96434e-07
5.37805e-06
6.6892e-05
1.47173e-07
1.68757e-06
4.23037e-05
7.68206e-07
2.07669e-07
8.33755e-07
1.34744e-06
1.96264e-06
1.36478e-06
-5.11328e-06
3.12183e-07
6.09122e-08
-4.11036e-07
5.29839e-06
-4.48939e-06
1.47461e-07
-2.78512e-07
3.65542e-08
5.00026e-06
-4.16381e-07
-3.87775e-06
4.80241e-07
4.93528e-05
3.03957e-07
3.86751e-07
4.70266e-07
3.32156e-07
2.17685e-07
5.5428e-07
3.44745e-07
-3.01122e-07
7.9173e-07
5.05471e-05
-5.03185e-07
7.62543e-09
-4.09164e-07
8.11497e-07
8.35927e-07
8.21639e-07
-1.08333e-05
2.07717e-07
1.56641e-06
1.04456e-05
-3.76223e-06
1.41816e-07
-4.95803e-07
4.11622e-06
-7.54918e-06
2.46599e-07
-3.68724e-07
8.15155e-06
-1.1044e-05
6.14217e-07
-9.73655e-07
5.85738e-07
1.16094e-05
-4.30347e-06
-9.55489e-07
6.29905e-07
4.62905e-06
-2.6936e-06
2.90997e-07
-2.24168e-07
2.62678e-06
-2.59435e-06
-7.77969e-07
4.57329e-07
2.91499e-06
4.07272e-07
1.09721e-07
-5.77887e-06
2.90519e-07
-1.25968e-06
6.23104e-06
5.31413e-07
-1.11804e-05
-3.3133e-07
5.61331e-07
-1.51802e-06
1.1937e-05
-6.63909e-06
6.8226e-08
-4.87207e-07
1.85911e-07
7.32122e-06
-4.49063e-07
9.96313e-09
6.42564e-07
-7.2097e-06
1.80947e-07
-2.34452e-07
6.61068e-06
3.73892e-07
2.16075e-06
4.37361e-05
1.32426e-06
1.11288e-06
1.02157e-06
1.2319e-06
-2.33639e-07
1.01873e-06
-6.34106e-07
7.00614e-07
3.98779e-06
3.17997e-06
5.45549e-05
1.13648e-06
7.69021e-07
1.36196e-06
9.57456e-07
2.35137e-07
4.46994e-06
3.92084e-05
-4.41924e-07
1.29159e-07
-3.41655e-07
1.47758e-07
3.66719e-07
2.1759e-07
3.83853e-07
-3.24133e-06
7.85773e-07
-7.70043e-07
3.46073e-06
-3.30277e-06
-7.98423e-08
-1.81818e-07
3.56443e-06
3.19566e-07
-9.49847e-06
4.41502e-07
-4.7433e-07
-8.00402e-08
9.29177e-06
-2.66045e-06
4.63919e-06
6.09811e-05
4.81213e-07
5.81623e-07
5.62971e-07
6.49989e-07
1.03123e-06
7.24347e-06
5.91368e-05
1.19237e-07
1.46461e-06
4.01281e-05
8.28573e-07
1.46447e-07
8.62902e-07
1.24535e-06
1.77377e-06
1.23588e-06
-5.52694e-06
5.24283e-07
1.59619e-07
-7.17258e-07
5.67953e-06
-5.45696e-06
2.53162e-07
-2.60679e-07
8.51201e-09
5.69845e-06
-2.42487e-07
-3.11451e-06
5.33603e-07
5.43966e-05
1.12446e-07
1.75915e-07
4.90599e-07
1.92521e-07
3.04757e-07
5.27706e-07
3.72363e-07
-2.48911e-07
8.42742e-07
5.15015e-05
-2.80471e-07