/*--------------------------------*- C++ -*----------------------------------*\
| =========                 |                                                 |
| \\      /  F ield         | OpenFOAM: The Open Source CFD Toolbox           |
|  \\    /   O peration     | Version:  5.x                                   |
|   \\  /    A nd           | Web:      www.OpenFOAM.org                      |
|    \\/     M anipulation  |                                                 |
\*---------------------------------------------------------------------------*/
FoamFile
{
    version     2.0;
    format      ascii;
    class       surfaceScalarField;
    location    "9.95";
    object      phi;
}
// * * * * * * * * * * * * * * * * * * * * * * * * * * * * * * * * * * * * * //

dimensions      [0 3 -1 0 0 0 0];

internalField   nonuniform List<scalar> 
29271
(
-2.31527e-06
-8.51993e-08
1.57794e-07
2.21818e-06
-4.11609e-06
7.16312e-08
5.53809e-07
3.50665e-06
-9.37698e-06
-6.36007e-07
-4.20945e-07
7.29009e-07
1.27461e-06
8.43031e-06
-1.07872e-05
-8.02266e-07
-4.22061e-07
-1.59242e-07
1.22786e-06
1.09429e-05
-9.90605e-06
-2.00424e-07
4.70382e-08
7.10323e-07
9.03959e-06
3.09524e-07
-9.59463e-06
-8.69372e-07
-6.00315e-07
8.27608e-07
1.57309e-06
8.66362e-06
-1.00902e-05
-1.5744e-06
-7.97615e-07
1.69437e-07
1.71969e-06
1.05731e-05
-1.13005e-05
-1.22059e-06
1.97707e-07
-3.31884e-07
1.03426e-06
1.1621e-05
-1.08232e-05
-8.98241e-07
2.56329e-07
-2.3516e-07
6.20867e-07
1.10794e-05
-8.6684e-06
-5.17059e-07
3.92155e-07
8.67668e-06
1.17265e-07
-3.45666e-06
-7.38517e-07
1.30433e-06
2.93262e-06
-1.0356e-05
-1.19797e-06
-1.93113e-06
1.196e-06
1.84421e-06
1.04449e-05
-1.21761e-05
-2.27746e-06
-5.8658e-07
-8.51742e-07
2.04753e-06
1.38444e-05
-9.65231e-06
-7.43207e-07
6.42062e-07
-5.58685e-07
5.97689e-07
9.71445e-06
-1.01442e-05
-5.38021e-07
3.57252e-07
-2.88651e-07
3.9715e-07
1.02165e-05
-1.02793e-05
-3.55151e-07
5.94445e-07
4.72507e-07
9.54096e-06
2.65e-08
-1.05144e-05
-1.07989e-06
1.46077e-06
5.85892e-07
1.0888e-05
-1.34035e-06
-1.27252e-05
-6.52467e-07
-1.41918e-06
-1.45267e-06
1.22321e-07
1.61272e-05
-1.07102e-05
-7.84693e-07
1.22016e-06
-8.53341e-07
6.09937e-07
1.05181e-05
-1.00315e-05
-2.69093e-07
3.16271e-07
9.77748e-06
-3.41807e-07
5.4868e-07
-3.8382e-06
2.3309e-08
-2.51336e-07
4.05481e-06
-8.74507e-06
-1.99709e-07
-3.62536e-07
8.62672e-06
6.33726e-07
-1.06711e-05
2.73518e-07
-6.43978e-08
1.03016e-07
1.0525e-05
-1.66106e-07
-3.53955e-06
-5.15706e-08
2.86767e-08
3.52953e-06
-2.65843e-06
-1.03273e-07
-1.79224e-07
2.88791e-06
-3.54112e-06
-2.04401e-07
1.59054e-07
3.58607e-06
7.86082e-09
-1.02283e-07
-8.34677e-06
4.02723e-07
5.57606e-07
7.48087e-06
-4.17994e-08
-1.04638e-05
-2.22338e-07
-7.5171e-09
3.12695e-07
1.04228e-05
-8.76249e-06
-6.08135e-08
1.67739e-07
4.72821e-07
8.05166e-06
1.31089e-07
-1.31779e-07
-4.79615e-08
-8.70167e-06
5.76013e-07
-1.60414e-08
8.32143e-06
8.49712e-07
1.68771e-06
5.33916e-05
-1.10811e-05
-1.17192e-05
-1.19242e-05
-1.16379e-05
-1.53364e-06
-1.60179e-06
-1.04782e-06
-9.72223e-07
-1.44446e-06
-1.6603e-06
-6.0463e-07
-7.01702e-07
-3.71121e-07
2.08311e-06
4.79319e-05
-1.14916e-05
-1.10114e-05
-1.09763e-05
-1.0623e-05
-1.45991e-06
-1.56176e-06
-8.97739e-07
-7.72426e-07
-9.838e-07
6.25013e-07
4.80187e-05
-1.58407e-06
-1.23286e-06
-8.35033e-07
-6.84115e-07
-8.76585e-07
-5.64892e-07
-4.59236e-07
-1.08886e-05
-1.00138e-05
-1.0954e-05
-9.93785e-06
-9.1462e-06
-5.88822e-07
6.48431e-08
8.71863e-06
-2.4984e-06
7.38819e-08
-1.12925e-08
2.44149e-06
-1.51166e-07
-9.84797e-06
1.74727e-07
8.27597e-07
-2.15769e-07
9.21258e-06
1.663e-06
-7.27237e-07
6.20509e-05
-1.48193e-05
-1.15663e-05
-1.65941e-05
-1.10909e-05
-2.21407e-06
-2.42696e-06
-1.20103e-06
-1.38626e-06
-1.24858e-06
-1.51982e-06
4.74487e-05
-1.04269e-05
-1.06612e-05
-9.99079e-06
-9.85533e-06
-9.55235e-07
-1.31791e-06
4.46422e-05
-1.07696e-06
-4.8156e-07
-4.60093e-07
-8.34071e-07
-3.75894e-07
-2.54229e-07
-1.01744e-05
-9.83541e-06
-1.00393e-05
-9.46072e-06
-8.86877e-06
-7.56743e-08
1.95384e-07
1.83616e-07
7.61021e-06
-1.07518e-05
-1.16313e-07
4.82824e-07
3.82918e-07
1.01322e-05
-1.29858e-07
6.50432e-07
-1.26312e-06
6.01606e-05
-2.20605e-06
-1.48579e-06
-9.76442e-07
-5.5428e-07
-1.32258e-06
-5.4731e-07
-5.6658e-07
-1.67795e-05
-1.18761e-05
-1.25392e-05
-1.14213e-05
-1.26149e-06
-1.24008e-06
4.64433e-05
-8.21648e-07
-2.45016e-07
-1.87734e-07
-1.13348e-06
-5.90467e-07
-5.10826e-07
-1.0492e-05
-1.02226e-05
-1.06108e-05
-9.99651e-06
-9.44998e-06
-1.98082e-07
-4.05086e-07
7.47374e-06
-4.2842e-06
2.46275e-07
-5.13742e-08
4.10176e-06
-8.73425e-06
-2.67268e-07
-3.2188e-08
7.78857e-06
-1.03244e-05
-1.62928e-07
4.20235e-07
-3.49661e-07
9.17668e-06
-4.00187e-06
8.75397e-08
-4.27852e-08
3.95827e-06
-2.66529e-06
8.6614e-08
7.07998e-08
2.34933e-06
-3.66339e-06
-4.63621e-08
9.39398e-08
3.61563e-06
-1.37428e-07
2.49499e-09
-6.50716e-06
1.16576e-07
3.04208e-07
6.22131e-06
-2.23632e-07
-1.06605e-05
-6.40312e-08
-2.13253e-07
3.42893e-07
1.08185e-05
-7.52805e-06
-1.2365e-07
1.44095e-09
2.18192e-07
7.18378e-06
2.48287e-07
-9.07006e-08
-2.81675e-08
-8.48221e-06
8.26556e-08
1.09175e-08
8.5075e-06
7.06034e-07
2.58933e-06
5.6426e-05
-2.10391e-07
-4.82216e-07
-1.17419e-06
1.81196e-07
7.77826e-08
-2.21704e-07
-2.43541e-06
-2.06477e-06
-1.89001e-06
2.2718e-06
4.99956e-05
-4.9622e-07
-4.3055e-07
-4.45476e-07
-3.67229e-07
2.29797e-09
3.55563e-08
5.74006e-05
-2.77415e-07
-5.47987e-08
-2.07516e-06
-2.36458e-06
-1.37455e-07
-3.26646e-06
-3.13385e-06
-7.83102e-06
-4.94956e-08
2.02171e-07
7.68672e-06
-2.56271e-06
2.21249e-08
1.82369e-09
2.53751e-06
-1.02317e-07
-9.0581e-06
1.2375e-08
3.04522e-07
2.53265e-08
8.81819e-06
2.13681e-06
-2.1287e-06
7.44845e-05
-5.889e-07
-4.81187e-07
-4.51287e-06
-4.2694e-06
-3.42077e-06
-3.1003e-06
5.83784e-05
-2.36631e-07
-3.19028e-07
5.63453e-05
-1.46367e-07
-3.33262e-06
-3.96883e-06
-3.46555e-08
-3.75569e-06
-3.29447e-06
-8.17646e-06
-1.02412e-07
-1.44957e-07
1.68054e-07
8.01914e-06
-9.32989e-06
-8.63219e-08
1.7683e-07
2.10093e-07
9.12112e-06
-9.18221e-08
5.30552e-07
6.58599e-08
7.30225e-05
-1.63461e-07
-9.93981e-08
-3.26639e-06
-3.84498e-06
2.57296e-08
-3.94371e-06
-4.29485e-06
-9.00829e-08
4.77342e-09
5.7226e-05
1.89884e-07
-3.32988e-06
-3.02553e-06
-1.12148e-08
-3.56949e-06
-3.52088e-06
-6.7299e-06
1.30079e-07
-6.25907e-08
6.2533e-06
-4.25288e-06
-7.12101e-08
-2.20908e-07
4.53946e-06
-6.9924e-06
1.01968e-08
2.48987e-08
7.02494e-06
-8.27913e-06
-5.38359e-08
2.12684e-07
2.05125e-07
7.91993e-06
-4.31485e-06
-2.75342e-07
-3.51299e-07
4.92997e-06
-2.37713e-06
-9.30238e-09
-3.8699e-07
2.77343e-06
-3.33659e-06
6.49973e-07
-2.74274e-07
2.96089e-06
2.5e-07
-1.74592e-06
-5.31901e-06
2.26539e-06
4.03303e-07
4.14624e-06
-4.6302e-07
-1.33854e-05
-6.11588e-07
-7.05319e-07
1.11164e-07
1.50542e-05
-4.65836e-06
1.45529e-06
-1.89083e-06
-3.05668e-07
3.41596e-06
1.98361e-06
-2.45868e-08
-6.4081e-07
-6.64168e-06
1.41811e-06
5.18748e-08
5.83709e-06
1.18637e-07
1.09165e-06
6.08831e-05
-1.00018e-06
-3.79229e-07
7.73969e-07
-9.13821e-08
-1.8885e-06
-1.9423e-06
-6.47208e-07
-4.92603e-07
-1.84253e-06
9.68169e-08
5.18302e-05
-4.69363e-07
-2.45345e-07
3.79691e-07
3.64775e-07
-1.74368e-06
-3.41812e-08
5.29975e-05
-2.69576e-07
1.92809e-07
2.33435e-06
2.21123e-06
-9.71612e-07
3.27849e-07
5.13355e-07
-7.01744e-06
-1.30643e-07
-2.14807e-07
5.61922e-06
-1.84449e-06
2.35411e-07
4.16456e-08
1.56744e-06
-1.08411e-06
-8.22599e-06
1.39545e-07
2.66543e-06
-9.06812e-07
7.41194e-06
2.45406e-06
-6.37809e-07
8.2373e-05
-3.62522e-06
-3.49323e-06
-1.08821e-06
-4.06468e-07
2.34834e-06
6.92054e-07
5.78889e-05
-9.52755e-07
-5.18191e-07
5.63954e-05
-1.51919e-06
1.01915e-06
1.85547e-06
-8.06819e-07
1.85885e-06
1.32756e-06
-3.90646e-06
4.65491e-08
-6.60467e-07
-6.21631e-07
4.18925e-06
-7.64153e-06
1.25699e-07
2.25969e-06
-3.44133e-07
4.54755e-06
1.05272e-06
2.75759e-06
-2.3833e-06
8.0265e-05
-3.72902e-06
-2.98358e-06
-4.29253e-07
5.3888e-07
-2.70024e-06
9.50189e-07
9.8391e-08
-1.00875e-06
-2.71065e-06
6.57595e-05
-1.14759e-06
1.55711e-06
1.07715e-06
-2.92523e-06
1.08428e-07
-3.42729e-08
-4.27643e-06
-6.91056e-07
-9.95131e-07
4.43568e-06
-2.71499e-06
1.3766e-06
-1.55999e-07
1.49439e-06
-5.46712e-06
-2.2684e-06
1.76285e-06
3.58936e-06
-4.64749e-06
-1.26317e-06
1.12428e-06
-1.01944e-06
3.09518e-06
-3.83981e-06
4.64056e-07
9.87049e-07
2.38871e-06
-3.45651e-06
-2.6431e-07
-4.62045e-08
3.76703e-06
-2.0149e-06
1.41046e-06
-5.43245e-07
1.14769e-06
1.25096e-06
-1.89592e-06
-4.85016e-06
1.83637e-06
-1.57043e-06
5.22918e-06
-4.93831e-07
-1.60526e-05
-5.58348e-07
-8.60018e-07
-1.5934e-07
1.81241e-05
-3.93704e-06
1.2765e-06
-1.77219e-06
-1.6176e-06
4.23089e-06
1.81944e-06
1.50223e-07
-5.7455e-07
-5.45893e-06
7.95753e-07
1.43247e-07
4.94425e-06
9.94292e-07
-2.3458e-07
5.75882e-05
1.43793e-06
-1.56871e-08
1.98445e-06
1.03708e-06
-5.47721e-07
-5.30794e-07
-5.54927e-07
-2.75084e-07
-1.18458e-06
-2.20331e-07
5.21646e-05
2.18749e-07
1.26531e-07
8.61519e-07
8.58022e-07
6.86659e-07
-5.69522e-07
4.26147e-05
1.71026e-06
1.01483e-06
1.79652e-06
1.90644e-06
6.10038e-07
7.37001e-07
1.30601e-06
-4.70351e-06
-5.94384e-08
6.42127e-07
4.80748e-06
-1.70511e-06
-9.83644e-08
1.86966e-07
1.61651e-06
-1.23913e-06
-7.8728e-06
3.57541e-07
1.14349e-06
-1.61549e-06
9.22638e-06
3.44313e-06
-1.76893e-06
7.97147e-05
-7.47199e-07
5.9639e-07
-3.02832e-07
1.2031e-06
2.68482e-06
-3.49123e-07
5.8776e-05
1.15556e-06
1.03612e-06
4.67625e-05
2.4292e-06
1.91087e-06
2.61741e-06
1.10651e-06
7.5737e-07
7.35135e-07
-6.42115e-06
-5.42131e-08
4.06467e-07
-1.31758e-06
8.54204e-06
-3.5748e-06
-5.5094e-07
-5.78617e-07
2.04796e-07
3.36256e-06
1.13701e-06
3.97766e-06
1.12118e-06
7.07957e-05
3.80479e-07
-2.67815e-07
8.25995e-07
-2.97344e-07
4.36168e-07
1.04648e-06
4.77604e-07
1.43245e-06
7.63638e-07
6.02833e-05
1.27157e-06
1.13917e-06
1.01976e-06
1.15873e-06
9.34799e-07
1.38458e-06
-5.44413e-06
1.82671e-06
9.97901e-07
5.08809e-06
-1.48825e-06
3.81923e-07
-1.38231e-06
2.48865e-06
-3.07612e-06
-1.03457e-06
2.30215e-06
2.92973e-06
-5.45763e-06
-9.44462e-07
-6.77743e-07
1.79317e-07
7.66416e-06
-1.28167e-06
-4.49285e-07
5.24941e-07
1.20601e-06
-3.80008e-06
3.14498e-08
-9.77916e-10
3.76961e-06
-6.8406e-07
9.98626e-07
-7.25358e-07
4.10792e-07
7.88108e-07
-9.83037e-07
-6.01457e-06
1.12755e-06
-1.91108e-06
6.99303e-06
-1.36145e-07
-2.06758e-05
-8.88784e-07
-6.56413e-07
-6.045e-07
2.29617e-05
-4.2854e-06
-2.4307e-07
-4.74437e-07
-1.34542e-07
4.34521e-06
7.92234e-07
9.20525e-07
-8.41133e-07
-4.04505e-06
9.66843e-07
-2.43794e-07
3.24261e-06
2.79928e-06
-1.89164e-06
5.29078e-05
2.05432e-06
1.24792e-06
1.72986e-06
1.71034e-06
-8.04171e-07
-9.25751e-07
-7.71996e-07
-4.678e-07
-1.99365e-06
-2.62684e-06
5.53119e-05
7.47044e-07
8.8499e-07
1.22774e-06
1.41266e-06
-5.53862e-08
-1.63096e-06
3.96339e-05
8.2597e-07
5.20841e-07
8.67227e-07
1.93048e-07
3.05905e-07
-2.79894e-07
2.40408e-07
-4.00425e-06
4.41881e-08
7.79333e-07
-3.0168e-07
3.42702e-06
4.34222e-07
-5.62579e-07
5.18411e-07
-3.90055e-07
-1.32313e-06
-2.18516e-07
5.47945e-07
9.93697e-07
-1.24642e-06
-1.06803e-05
-3.52499e-07
1.09958e-06
-5.05886e-07
1.16855e-05
2.89086e-06
-2.9949e-06
7.70442e-05
-7.56089e-07
9.41541e-07
-2.29165e-07
9.26617e-07
2.11712e-06
-1.73902e-06
5.86619e-05
1.20492e-06
3.91431e-07
4.03946e-05
1.9697e-06
8.65142e-07
9.30443e-07
6.44671e-07
5.55034e-07
2.92663e-07
-9.7932e-06
1.4892e-07
2.93735e-06
8.47548e-08
7.82709e-06
-2.74106e-08
-1.48748e-06
-8.97732e-07
-6.21792e-07
3.03442e-06
-3.56081e-06
-1.10694e-06
-6.7283e-08
9.63567e-07
3.57035e-06
2.01122e-07
3.48194e-06
7.183e-07
6.30683e-05
4.96057e-07
-3.21136e-07
1.42586e-07
-4.60547e-07
9.2473e-08
5.66238e-07
1.65772e-08
1.05118e-06
8.0087e-07
5.41146e-05
9.45041e-07
1.20972e-06
6.46327e-07
1.22247e-06
7.88633e-07
1.24742e-06
-4.77377e-06
1.26259e-06
6.38292e-07
4.31549e-06
-3.9525e-06
8.22423e-07
-1.33593e-06
4.46601e-06
-2.77151e-06
-7.4726e-07
1.33906e-06
2.89801e-06
-9.41079e-06
-1.78578e-07
-8.96489e-07
9.30114e-07
1.03566e-05
-1.2325e-06
-5.61331e-07
4.10485e-07
1.38334e-06
-3.76216e-06
-5.22496e-08
5.19463e-08
3.76247e-06
-4.87506e-07
-7.27242e-07
6.1039e-07
6.04358e-07
-5.36029e-07
8.46295e-07
-7.67914e-06
-4.54606e-07
-2.02049e-07
8.02553e-06
5.47979e-08
-2.45343e-05
-1.89385e-07
-7.3102e-08
-2.73545e-07
2.50155e-05
-4.18282e-06
-4.9932e-07
5.54775e-07
-3.71679e-08
4.57184e-06
-4.0731e-07
3.85874e-07
-1.94198e-07
-2.66719e-06
9.87526e-07
-8.60032e-07
2.34802e-06
4.19442e-06
-3.21745e-06
5.13465e-05
1.21669e-06
1.19111e-06
9.3807e-07
6.70012e-07
-9.9347e-07
-7.44706e-07
-8.07776e-07
-8.85613e-07
-1.09184e-06
-3.98133e-06
6.20566e-05
6.72159e-07
7.02703e-07
7.08539e-07
4.39537e-07
-1.96795e-07
-1.77261e-06
3.90963e-05
6.31614e-07
-3.90581e-08
6.3619e-07
-6.85795e-08
2.61328e-07
-2.69305e-07
2.62988e-07
-3.32618e-06
-5.32982e-07
5.38632e-08
6.33436e-07
2.97507e-06
3.19276e-07
-6.05493e-07
1.07312e-06
-1.28967e-06
1.33974e-07
3.68793e-07
-8.13054e-07
-1.29478e-07
1.08478e-07
8.34053e-07
-1.40766e-07
-1.17463e-05
-3.56237e-08
4.4824e-07
8.03309e-07
1.06711e-05
4.3888e-06
-2.7247e-06
7.33338e-05
-5.83262e-07
1.5668e-08
-3.90377e-07
-2.1309e-07
3.81223e-06
-1.68278e-06
5.69399e-05
1.0542e-06
3.82137e-07
3.69146e-05
1.01129e-06
1.26903e-06
8.98319e-07
2.24224e-07
5.32351e-07
1.48169e-07
-7.99879e-06
3.02989e-07
1.33504e-06
-5.57841e-07
7.9728e-06
-4.13169e-06
3.23408e-08
-1.24297e-06
5.39191e-07
-3.14196e-07
5.11732e-06
-3.23583e-06
-3.42591e-07
4.44612e-07
1.21392e-06
3.14306e-06
-1.22318e-06
2.77876e-06
5.60802e-07
5.72825e-05
-1.77666e-07
-2.46653e-07
-2.39738e-07
-1.25318e-07
-1.17376e-08
5.05956e-07
1.67046e-08
9.97734e-07
7.87201e-07
4.77386e-05
5.7586e-07
1.0422e-06
4.80162e-07
1.27765e-06
9.0284e-07
1.40834e-06
-4.10345e-06
8.53914e-07
9.28972e-07
3.70043e-06
-4.18878e-06
-1.04904e-06
-1.07929e-06
9.85122e-07
5.33198e-06
7.04685e-07
-9.96883e-08
-2.63977e-07
-3.4102e-07
-3.37578e-06
-8.0249e-07
6.40606e-07
4.09847e-06
-1.10725e-05
3.98507e-07
-1.07206e-06
1.06568e-06
1.14675e-05
-1.68756e-06
-7.64094e-07
2.87877e-07
2.16378e-06
-3.76064e-06
-1.6764e-08
-1.09094e-08
3.78832e-06
-7.03671e-07
-1.7613e-06
1.69092e-06
7.74052e-07
-4.76006e-07
1.57483e-06
-8.20662e-06
-1.28354e-06
7.03995e-08
8.32095e-06
2.47172e-07
-2.46247e-05
2.98781e-07
2.92515e-07
7.16441e-07
2.30698e-05
-4.96455e-06
-4.35645e-07
5.80249e-07
5.49656e-07
5.21176e-06
-9.41476e-07
-1.11831e-06
7.75894e-07
-2.28795e-06
-3.87483e-07
5.48503e-07
2.46934e-06
4.40183e-06
-3.20531e-06
5.07621e-05
6.43597e-07
-6.7644e-07
6.84373e-07
-2.12056e-07
-1.71034e-07
-9.34136e-07
4.43254e-07
-3.89696e-07
1.45795e-06
-1.6792e-06
6.91284e-05
-8.33682e-07
-7.84167e-07
-6.76151e-07
-1.5479e-07
-7.10593e-08
1.22538e-06
4.11296e-05
-5.37093e-07
-5.42425e-07
-8.56101e-07
-3.87246e-07
5.33357e-07
-4.51913e-07
5.11738e-07
-3.23671e-06
-6.06299e-07
-6.62594e-07
9.70443e-07
3.4641e-06
-5.10622e-07
1.12363e-06
7.6677e-07
-3.55022e-07
-1.2334e-06
2.08652e-07
-1.05285e-06
-4.36561e-07
1.49569e-07
1.33984e-06
5.05376e-07
-8.94165e-06
-8.51055e-08
1.85143e-07
9.48871e-07
7.38737e-06
6.15205e-06
-1.75351e-06
6.87745e-05
-1.01538e-06
-8.35389e-07
-6.25535e-07
-5.6828e-07
5.12696e-06
-2.56606e-07
5.65424e-05
1.39007e-06
3.01014e-07
3.79724e-05
9.34084e-07
1.33674e-06
4.7966e-07
2.82115e-07
3.11724e-07
2.59073e-07
-8.03596e-06
-3.68909e-08
1.52228e-06
-2.17518e-07
8.15816e-06
-5.86554e-06
8.29364e-07
-1.7887e-06
7.45048e-07
-1.71216e-07
6.25105e-06
-3.3609e-06
-4.05697e-08
5.91949e-07
5.1018e-07
3.74818e-06
-1.44883e-06
2.08119e-06
6.32913e-07
5.25048e-05
-5.3847e-07
-9.63475e-08
-3.16415e-07
6.1828e-08
1.83109e-07
7.12685e-07
3.0371e-07
1.72712e-07
1.0591e-06
4.35153e-05
2.41064e-07
-2.92598e-08
4.98371e-07
1.48329e-06
1.14538e-06
1.47722e-06
-3.85565e-06
-1.22557e-07
3.85183e-07
4.06675e-06
-5.84601e-06
-3.02637e-07
1.99214e-07
-6.50945e-09
5.95594e-06
4.30301e-07
-7.33778e-08
9.16349e-09
7.26559e-09
-3.73352e-07
-4.86215e-06
-4.49422e-07
2.23507e-07
5.72098e-06
-1.18014e-05
5.03912e-07
-1.04887e-06
1.10051e-06
1.2305e-05
-2.76853e-06
-4.13815e-07
-1.31895e-07
3.31424e-06
-3.91327e-06
5.9298e-07
-8.52867e-07
4.17316e-06
-8.9045e-07
-2.29543e-06
2.12354e-06
1.06234e-06
-4.15449e-07
2.04115e-06
-8.57568e-06
-1.89786e-06
1.85775e-07
8.66207e-06
1.78748e-06
-2.04658e-05
1.11065e-06
2.88734e-07
-1.29914e-07
1.74088e-05
-5.35201e-06
-6.38437e-07
1.91969e-07
1.33212e-06
5.24881e-06
-7.8246e-07
-2.10443e-06
1.42647e-06
-2.81422e-06
-1.75128e-06
1.83432e-06
3.40914e-06
1.9051e-06
-5.64487e-07
4.75721e-05
-5.826e-08
-6.91192e-07
-4.96013e-07
-5.81665e-07
1.24687e-06
2.71137e-07
1.45272e-06
7.05818e-07
2.12155e-06
2.19575e-06
7.10141e-05
-1.68925e-06
-8.35799e-07
-8.68836e-07
-9.03927e-07
-3.10834e-07
3.37716e-06
4.50962e-05
-1.60453e-06
-5.0057e-07
-1.49167e-06
-3.89742e-07
5.31151e-07
-1.52218e-06
6.61478e-08
-5.01537e-06
1.0256e-06
-1.43163e-06
-8.84152e-08
5.19897e-06
1.28149e-06
8.60977e-07
4.06597e-07
-1.86832e-06
-6.80742e-07
-1.58156e-06
-6.83128e-07
4.48461e-07
1.81623e-06
-6.22496e-08
-6.54051e-06
-1.30228e-06
3.00696e-07
1.27704e-06
6.32731e-06
5.74822e-06
-1.77406e-07
6.47328e-05
-6.74345e-07
-7.65167e-07
-2.55525e-07
-3.98541e-07
5.23793e-06
-4.49828e-08
5.92934e-05
1.32898e-06
1.85593e-08
4.35893e-05
5.1854e-07
6.94371e-07
-5.3078e-07
5.42901e-07
7.56808e-08
3.49952e-07
-8.37945e-06
2.32707e-07
8.97317e-07
-3.39369e-08
8.61235e-06
-5.78775e-06
1.05539e-06
-1.14157e-06
1.52316e-06
6.78677e-07
3.6721e-06
-4.09915e-06
2.68539e-07
2.06481e-07
-5.9975e-08
4.44162e-06
-7.57514e-07
1.75882e-07
9.60481e-07
4.91898e-05
-4.12221e-07
1.08299e-07
-6.39527e-08
1.91776e-07
5.24159e-07
1.01766e-06
6.35541e-07
-8.63281e-07
8.47914e-07
4.10062e-05
1.86329e-07
-6.45943e-07
2.28523e-07
1.14756e-06
8.02637e-07
9.36186e-07
-5.07629e-06
-1.04295e-06
-4.12933e-07
5.68745e-06
-5.12304e-06
-1.55692e-06
1.26537e-06
5.4146e-06
-6.42437e-06
5.88414e-10
3.13823e-07
7.07044e-06
-1.30682e-05
-9.70666e-08
-5.586e-07
7.19242e-07
1.38525e-05
-3.81256e-06
1.9158e-07
-3.41853e-07
3.96283e-06
-4.3941e-06
8.02336e-07
-8.80193e-07
4.47196e-06
-1.26356e-06
-2.13415e-06
1.95228e-06
1.44543e-06
-6.12121e-07
2.31555e-06
-8.42435e-06
-2.44182e-06
1.36752e-06
7.79522e-06
6.76151e-07
-1.47157e-05
2.26211e-06
-7.32953e-07
3.67773e-07
1.21426e-05
-5.00601e-06
-1.06009e-06
7.67126e-08
1.37596e-06
4.74436e-06
-1.30937e-07
-2.2547e-06
1.22804e-06
-4.16115e-06
-1.95065e-06
2.15416e-06
4.98431e-06
-2.48725e-07
3.85942e-06
4.5384e-05
-1.75709e-06
-1.74255e-06
-2.33916e-06
-1.6131e-06
1.7961e-06
1.1037e-06
1.75641e-06
1.37314e-06
1.90338e-06
5.20957e-06
7.01667e-05
-1.84514e-06
-1.92365e-06
-1.43449e-06
-1.31106e-06
-1.69396e-06
2.93628e-06
4.9834e-05
-1.3161e-06
-1.29364e-07
-5.30972e-07
8.21302e-08
-9.56089e-07
-1.06295e-06
-1.63434e-07
-6.52526e-06
7.04609e-07
-2.11325e-06
6.23994e-06
-2.05207e-06
-4.7622e-07
2.71245e-07
2.25704e-06
-8.32469e-08
-6.52869e-06
-1.68201e-06
3.3785e-09
1.23759e-06
7.05298e-06
3.86259e-06
1.34824e-06
6.32961e-05
-1.48072e-07
-2.38045e-07
2.27044e-07
2.44316e-07
4.4231e-06
2.33798e-07
6.37087e-05
-2.62965e-07
-2.77641e-07
5.15358e-05
-7.73967e-07
4.88392e-07
-3.52513e-07
2.29862e-07
1.30457e-07
2.31253e-07
-1.16441e-05
8.56494e-07
-1.53378e-06
2.68015e-07
1.17904e-05
-4.80929e-06
3.24794e-07
-1.84957e-07
-1.35679e-07
5.2295e-06
-4.24371e-07
-1.86358e-06
1.08169e-06
4.77947e-05
2.59218e-08
3.71783e-07
3.4378e-07
4.15975e-07
6.32908e-07
1.04553e-06
6.89283e-07
-1.12265e-06
3.61577e-07
4.17101e-05
-2.24912e-07
-7.81554e-07
-6.07695e-07
1.49837e-07
4.07164e-07
-5.15408e-07
-6.69446e-06
-8.40294e-07
-7.91506e-07
6.92597e-06
-5.17868e-06
3.50573e-08
1.0791e-06
4.06452e-06
-7.57389e-06
3.29828e-07
2.75499e-07
8.05026e-06
-1.48345e-05
-3.91775e-07
-3.02959e-07
4.3989e-07
1.54509e-05
-3.76693e-06
8.15239e-07
-3.55543e-07
3.30723e-06
-4.54206e-06
8.55375e-07
-9.19486e-07
4.60617e-06
-1.63315e-06
-5.84452e-07
3.73441e-07
1.84416e-06
-1.31029e-06
1.16045e-06
-6.65749e-06
-9.13433e-07
2.5864e-06
5.13436e-06
1.18649e-07
-1.00408e-05
9.68741e-07
-4.98027e-07
6.94538e-07
8.75685e-06
-4.66905e-06
-4.34645e-07
-2.95644e-07
5.42112e-07
4.59679e-06
2.60435e-07
-1.10149e-06
7.06407e-07
-5.66285e-06
-1.56075e-06
1.47161e-06
6.14708e-06
-1.77564e-07
6.43832e-06
4.42907e-05
-2.96797e-06
-2.45387e-06
-2.73775e-06
-2.54193e-06
1.62323e-06
1.18643e-06
1.43842e-06
1.28599e-06
2.05314e-06
5.76883e-06
6.68973e-05
-1.60848e-06
-1.24581e-06
-1.17539e-06
-7.00483e-07
-8.32194e-07
2.09637e-06
5.1525e-05
-4.60514e-07
1.16671e-07
-1.99694e-07
8.2043e-08
1.06983e-07
-7.77551e-07
2.30067e-07
-6.19752e-06
8.37624e-07
-1.6386e-06
6.16631e-06
-2.38889e-06
4.75905e-08
-8.92478e-08
2.43054e-06
4.53617e-08
-7.75199e-06
-1.14717e-06
-2.96051e-07
6.7708e-07
8.47277e-06
2.0554e-06
2.34442e-06
6.29948e-05
3.17917e-07
3.79588e-07
7.57028e-07
8.85242e-07
4.03833e-06
-7.59071e-08
6.75705e-05
8.3948e-07
-2.34167e-07
5.62954e-05
-1.94077e-07
9.90396e-07
-1.87797e-07
-1.01682e-08
1.40394e-07
3.10148e-08
-1.15645e-05
8.61812e-07
3.49459e-07
-3.37048e-07
1.15297e-05
-5.62898e-06
2.13843e-07
-4.7288e-07
-5.27129e-09
6.03641e-06
-1.43123e-07
-2.51964e-06
9.02543e-07
4.77377e-05
2.79659e-07
5.25341e-07
5.43309e-07
5.7405e-07
6.22938e-07
7.46833e-07
7.26423e-07
-1.09442e-06
3.12765e-07
4.38268e-05
-1.04395e-06
-6.56245e-07
-1.10756e-06
-8.65625e-07
3.76966e-07
-6.34167e-07
-7.43684e-06
-4.77814e-07
-4.93916e-07
7.07998e-06
-3.67015e-06
1.27575e-07
1.65404e-07
3.37717e-06
-8.46834e-06
6.25347e-07
4.7643e-08
8.69789e-06
-1.59348e-05
-2.26453e-07
-1.60585e-07
5.16621e-07
1.6118e-05
-2.87044e-06
2.72619e-07
1.26633e-08
2.58516e-06
-4.61414e-06
5.14402e-07
-5.52808e-07
4.65255e-06
-2.021e-06
8.61405e-07
-9.42879e-07
2.10247e-06
-1.30072e-06
-5.90533e-08
-3.88657e-06
1.28671e-07
2.06878e-06
3.0489e-06
2.03171e-07
-8.09332e-06
-5.37503e-07
2.92912e-07
6.50835e-07
7.48391e-06
-4.50415e-06
-4.04476e-07
5.49125e-08
4.68621e-07
4.33198e-06
5.31058e-08
2.10272e-07
1.97877e-08
-6.57932e-06
-8.73872e-07
1.81051e-07
7.04208e-06
-5.76279e-07
6.49019e-06
4.46378e-05
-2.52819e-06
-3.01473e-06
-2.34568e-06
-2.81975e-06
1.24906e-06
9.67392e-07
1.12607e-06
1.10481e-06
5.99636e-07
5.39579e-06
6.46479e-05
-1.43677e-06
-9.48795e-07
-1.22135e-06
-7.15315e-07
-9.35707e-07
1.5871e-06
5.36515e-05
-4.70063e-07
-1.69949e-07
-3.01651e-07
-3.18371e-07
-6.75328e-08
-8.06674e-07
-4.40226e-08
-6.07399e-06
6.40544e-07
-1.18194e-06
5.67967e-06
-2.39909e-06
4.42105e-07
-3.8831e-07
2.34529e-06
2.33263e-07
-9.07186e-06
-5.16654e-08
-6.32474e-07
7.49093e-08
9.44783e-06
1.30987e-06
1.19883e-06
6.32523e-05
6.65322e-07
7.09978e-07
1.18298e-06
1.16577e-06
3.57817e-06
-2.38635e-07
7.09366e-05
8.18886e-07
-2.54551e-07
6.01669e-05
-1.99708e-07
8.40941e-07
-1.34672e-08
-3.52833e-08
3.40214e-08
1.0299e-07
-1.16841e-05
6.73263e-07
2.93442e-07
-1.67153e-07
1.17034e-05
-6.42841e-06
2.15317e-07
-6.66003e-07
4.64894e-09
6.7768e-06
9.76492e-08
-2.52872e-06
3.45276e-07
4.761e-05
3.98481e-07
6.31517e-07
7.88467e-07
6.55046e-07
4.23858e-07
2.00431e-07
4.12174e-07
-8.4455e-07
1.2249e-07
4.49261e-05
-1.12049e-06
-5.05929e-07
-1.04073e-06
-3.54289e-07
-3.66857e-08
-8.64672e-08
-7.14245e-06
-2.54943e-07
-2.19289e-07
6.51758e-06
-3.18755e-06
-6.31256e-08
2.45609e-07
3.00507e-06
-8.74611e-06
8.77738e-07
-1.52547e-07
8.36619e-06
-1.62879e-05
3.10904e-07
-4.73056e-07
5.0625e-07
1.60663e-05
-2.43874e-06
-1.78962e-07
2.80845e-07
2.33686e-06
-4.82536e-06
-2.72609e-07
1.20667e-07
4.9773e-06
-2.13003e-06
1.48145e-06
-1.48758e-06
2.13616e-06
-7.78955e-07
-7.89362e-07
-2.62369e-06
1.54508e-07
1.56792e-06
2.46958e-06
-7.9813e-07
-6.8232e-06
-1.90353e-07
2.20409e-07
1.44391e-06
6.14737e-06
-4.15336e-06
-6.25076e-07
1.68423e-07
7.42748e-07
3.85797e-06
9.29255e-09
1.06176e-06
-3.27637e-07
-7.53741e-06
-4.38551e-07
-7.77136e-07
8.01897e-06
-1.57671e-06
5.07163e-06
4.68341e-05
-2.17e-06
-2.87315e-06
-2.00538e-06
-2.63252e-06
1.06769e-06
8.56976e-07
9.64528e-07
1.10057e-06
-1.00809e-06
5.12975e-06
6.48619e-05
-1.75343e-06
-1.21528e-06
-1.82839e-06
-1.11526e-06
-8.67226e-07
9.26139e-07
5.63645e-05
-6.5303e-07
-3.35173e-07
-4.91261e-07
-2.79153e-07
-5.17587e-07
-7.38396e-07
-7.65436e-07
-5.22048e-06
7.18737e-07
-9.38863e-07
4.57338e-06
-2.31137e-06
6.06178e-07
-6.10772e-07
2.31596e-06
6.02625e-07
-9.76369e-06
5.77075e-07
-1.09396e-06
-3.24556e-07
1.00025e-05
1.1025e-06
-2.21144e-06
6.4601e-05
1.01608e-06
9.30958e-07
1.50097e-06
1.38382e-06
3.24149e-06
2.79048e-07
7.36483e-05
6.40708e-07
-3.06035e-07
6.3142e-05
1.12048e-08
5.91463e-07
2.62479e-08
5.63801e-08
1.49394e-09
1.71004e-07
-1.18092e-05
3.52063e-07
2.47028e-07
1.27139e-07
1.17237e-05
-7.15338e-06
4.61333e-07
-1.11129e-06
-3.23322e-08
7.52729e-06
3.08374e-07
-2.91637e-06
-3.18768e-07
4.5233e-05
9.26722e-07
8.20621e-07
1.38944e-06
7.9223e-07
-1.67022e-07
-3.29243e-07
-3.20796e-08
-6.98849e-07
-1.79273e-09
4.44352e-05
-9.19425e-07
-4.5498e-07
-8.13243e-07
2.1856e-07
1.73297e-07
3.49958e-07
-6.38e-06
-4.06742e-07
-4.20047e-08
5.82387e-06
-2.80927e-06
-2.5233e-07
4.73899e-07
2.58771e-06
-7.85274e-06
8.9098e-07
-2.76838e-07
6.91983e-06
-1.55479e-05
9.9019e-07
-1.10537e-06
7.71124e-07
1.48901e-05
-2.2385e-06
-4.69862e-07
5.31071e-07
2.1773e-06
-4.73696e-06
-5.74104e-07
1.39192e-06
3.91914e-06
-2.12198e-06
1.61504e-06
-1.58237e-06
2.08931e-06
-5.07589e-07
-1.20607e-06
-2.53199e-06
4.10451e-07
1.15121e-06
2.68398e-06
-2.09187e-06
-5.59436e-06
3.68324e-08
-1.11708e-07
2.50988e-06
5.25122e-06
-3.48698e-06
-5.28697e-07
-6.48985e-08
7.86341e-07
3.06542e-06
2.28815e-07
1.48664e-06
-5.72421e-07
-8.45091e-06
-1.39574e-07
-1.21109e-06
8.88736e-06
-1.88141e-06
2.64808e-06
5.06077e-05
-1.66259e-06
-2.50885e-06
-1.50592e-06
-2.22628e-06
8.37674e-07
7.91206e-07
7.41137e-07
9.93418e-07
-1.55581e-06
4.3719e-06
6.69066e-05
-2.22351e-06
-1.48054e-06
-1.93316e-06
-1.10502e-06
-6.47119e-07
-6.52532e-07
5.94431e-05
-5.92972e-07
-4.23071e-08
-2.66459e-07
3.23199e-08
-1.0134e-06
-5.12564e-07
-9.39315e-07
-4.03683e-06
8.39219e-07
-1.02958e-06
3.58007e-06
-2.36113e-06
6.03232e-07
-6.91475e-07
2.44937e-06
8.86627e-07
-1.02623e-05
9.06718e-07
-1.38065e-06
-6.28154e-07
1.04777e-05
5.05187e-07
-4.91738e-06
6.6e-05
1.23577e-06
1.16346e-06
1.64144e-06
1.62067e-06
2.89842e-06
3.10698e-07
7.53163e-05
2.34367e-07
-3.31188e-07
6.55403e-05
-1.32087e-07
6.29927e-08
-1.43941e-07
1.0002e-07
-5.77122e-08
1.15173e-07
-1.14563e-05
2.70211e-07
1.91224e-07
4.97427e-07
1.07318e-05
-7.95095e-06
5.95246e-07
-1.50283e-06
6.12637e-08
8.31786e-06
4.79407e-07
-3.33614e-06
-5.84562e-07
3.99605e-05
1.52041e-06
9.25221e-07
1.8358e-06
7.70162e-07
-2.35904e-07
-5.27258e-07
-1.25944e-08
-5.37945e-07
4.47699e-07
4.09506e-05
-5.03987e-07
-2.66357e-07
-2.84873e-07
4.97853e-07
6.52653e-07
4.54139e-07
-5.84121e-06
-5.96345e-07
-2.21094e-08
5.59053e-06
-2.42896e-06
-4.93523e-07
5.83651e-07
2.33883e-06
-6.06832e-06
7.64802e-07
-3.47668e-07
5.06663e-06
-1.4482e-05
6.97693e-07
-1.2037e-06
8.62901e-07
1.45728e-05
-2.11572e-06
-4.25391e-07
4.82714e-07
2.05839e-06
-2.6688e-06
-1.72713e-07
1.13195e-06
1.70957e-06
-2.02001e-06
1.45786e-06
-1.35231e-06
1.91446e-06
-1.19136e-07
-1.32191e-06
-2.82849e-06
6.82756e-07
6.39682e-07
2.9471e-06
-1.71382e-06
-5.0705e-06
1.35883e-07
-5.32102e-07
2.22324e-06
4.9573e-06
-2.64999e-06
-1.5611e-07
-4.4913e-07
3.26161e-07
2.32861e-06
6.00457e-07
1.66881e-06
-6.93933e-07
-9.26238e-06
8.0103e-08
-1.4011e-06
9.6085e-06
-2.09014e-06
2.07159e-07
5.50704e-05
-1.06262e-06
-1.84242e-06
-9.65879e-07
-1.45984e-06
6.72775e-07
5.73487e-07
6.86649e-07
8.1811e-07
-1.96522e-06
2.32275e-06
6.91704e-05
-1.79743e-06
-1.12383e-06
-1.19857e-06
-5.91646e-07
-3.23504e-07
-2.35878e-06
6.05818e-05
-1.64986e-07
3.82281e-07
4.06704e-07
4.57465e-07
-7.29806e-07
-2.4465e-07
-5.28691e-07
-3.21521e-06
7.33847e-07
-7.95156e-07
2.95301e-06
-2.56445e-06
3.71825e-07
-4.4742e-07
2.64005e-06
8.49879e-07
-1.07649e-05
9.89823e-07
-1.38822e-06
-7.18579e-07
1.1032e-05
-6.42907e-07
-5.9967e-06
6.68618e-05
1.24688e-06
1.33516e-06
1.62833e-06
1.7746e-06
2.20607e-06
-9.12657e-07
7.57027e-05
-7.40719e-08
-4.46725e-07
6.64369e-05
-1.03785e-07
-2.11683e-08
2.8607e-08
-6.29536e-08
-2.60213e-07
-1.08995e-07
-9.88637e-06
3.64346e-07
5.47435e-08
3.47233e-07
9.04598e-06
-8.7073e-06
4.02926e-07
-1.54338e-06
3.19091e-07
9.14274e-06
3.85923e-07
-3.59245e-06
-5.88138e-07
3.41097e-05
1.73024e-06
5.77311e-07
1.93288e-06
2.87159e-07
-6.05603e-08
-5.77109e-07
1.44704e-07
-3.34266e-07
6.27155e-07
3.51064e-05
-2.91814e-08
4.41799e-09
1.13924e-07
2.8988e-07
5.98912e-07
6.8295e-08
-5.91378e-06
-5.31231e-07
-2.11122e-07
5.87514e-06
-2.3123e-06
-4.47822e-07
4.65532e-07
2.29459e-06
-4.12421e-06
3.0884e-07
1.41614e-08
3.21307e-06
-1.52846e-05
-6.08457e-07
-3.1266e-07
6.51095e-07
1.61818e-05
-1.97743e-06
4.71191e-09
6.78655e-08
1.90485e-06
-1.24016e-06
-2.88105e-07
4.77971e-07
1.05029e-06
-1.78642e-06
1.17905e-06
-1.0834e-06
1.69077e-06
2.18844e-07
-1.29275e-06
-3.03017e-06
7.36266e-07
1.79726e-07
3.18808e-06
-9.27981e-07
-4.9354e-06
2.90298e-07
-8.42319e-07
1.22334e-06
5.19206e-06
-2.15831e-06
2.08011e-07
-6.99173e-07
-3.75415e-07
2.13956e-06
8.85326e-07
1.4413e-06
-2.9426e-07
-9.9146e-06
-5.96575e-08
-1.40084e-06
1.02281e-05
-2.29603e-06
-2.31222e-06
5.86385e-05
-4.36708e-07
-9.50291e-07
-2.87803e-07
-4.25576e-07
8.01239e-07
5.45877e-07
8.74507e-07
9.18906e-07
-2.30149e-06
-4.79205e-07
7.03607e-05
-6.73018e-07
-3.38789e-07
-4.20716e-09
3.10409e-07
-5.93945e-08
-2.90365e-06
5.86654e-05
4.40346e-07
7.64794e-07
9.81174e-07
8.22252e-07
-2.85337e-07
-4.99508e-09
-1.40247e-07
-2.72799e-06
4.84747e-07
-4.23307e-07
2.60716e-06
-2.61241e-06
2.2497e-07
-7.62093e-08
2.46365e-06
3.80455e-07
-1.13778e-05
1.05812e-06
-1.12552e-06
-6.29956e-07
1.16947e-05
-1.70395e-06
-5.53955e-06
6.61473e-05
1.09911e-06
1.36352e-06
1.43914e-06
1.744e-06
1.35801e-06
-2.12778e-06
7.42893e-05
2.497e-08
-5.95742e-07
6.5912e-05
8.0104e-08
8.21748e-08
1.32472e-07
-2.00576e-07
-3.47095e-07
-1.97097e-07
-8.41605e-06
3.10403e-07
-2.33536e-09
2.03501e-07
7.92946e-06
-9.7015e-06
-1.29106e-07
-1.22622e-06
6.73374e-07
1.02721e-05
1.11328e-07
-2.27505e-06
-4.76039e-07
2.93094e-05
1.46166e-06
-1.0788e-07
1.50251e-06
-2.95896e-07
1.69772e-07
-5.01937e-07
-2.16293e-07
-1.12664e-08
1.83326e-07