/*--------------------------------*- C++ -*----------------------------------*\
| =========                 |                                                 |
| \\      /  F ield         | OpenFOAM: The Open Source CFD Toolbox           |
|  \\    /   O peration     | Version:  5.x                                   |
|   \\  /    A nd           | Web:      www.OpenFOAM.org                      |
|    \\/     M anipulation  |                                                 |
\*---------------------------------------------------------------------------*/
FoamFile
{
    version     2.0;
    format      ascii;
    class       volScalarField;
    location    "4.1";
    object      Ksl;
}
// * * * * * * * * * * * * * * * * * * * * * * * * * * * * * * * * * * * * * //

dimensions      [1 -3 -1 0 0 0 0];

internalField   nonuniform List<scalar> 
10571
(
11344.1
8604.53
5465.46
4697.42
11715.5
6257.13
3537.52
319.184
1019.2
5315.65
4091.71
828.922
676.603
3222.12
3622.25
7744.57
6300.81
285.33
4595.15
123.562
263.99
5500.02
6316.34
9716.45
2221.52
7483.79
1566.63
744.777
382.794
764.446
502.647
806.13
1297.81
495.777
9799.74
655.436
567.594
1201.18
169.444
1844.76
7621.31
2622.16
1082.01
420.633
156.071
2823.36
2641.59
6037.61
2525.91
5767.07
323.652
380.699
184.68
553.713
398.524
641.203
666.403
699.182
11003.7
3272.54
1075.76
1137.99
561.917
1455.2
6879.3
2010.96
850.37
2698.18
135.518
1178.25
503
3000.97
2395.38
5782.83
450.941
39.7896
163.175
170.353
437.754
795.977
371.468
939.006
9325.39
5877.08
2020.11
682.393
694.858
1356.92
9981.82
6208.92
754.702
791.764
1048.05
4447.96
1384.6
3404.56
2138.88
1719.09
78.7236
14.4045
146.496
2399.23
1294.93
836.44
158.483
654.393
7383
2791.24
3180.6
590.447
205.398
1009.58
10393.2
2730.99
897.782
183.367
263.622
10479.2
1919.42
2188.81
1068.33
443.611
283.84
8.63034
70.6164
156.642
1893.34
573.802
173.986
261.922
13160.2
6568.01
776.911
1105.28
947.076
1100.55
2069.57
11443.7
218.036
428.45
1024.53
625.361
398.417
919.788
6499.62
4579.15
256.616
445.514
137.437
71.8595
266.215
892.475
693.854
466.118
249.246
59.1205
85.7411
1720.3
765.12
46.4669
284.485
656.292
341.638
175.498
6.94587
6.36357
75.8434
1051.09
1368.09
0
0.685277
110.226
5820.84
131.142
345.505
126.91
106.132
171.801
38.4582
13.8404
26.9621
462.987
495.396
10.1179
24.5539
8.59753
3.69837
5.16382
23.5294
42.2264
11.7847
13.2803
3.7363
2.00636
5.4373
1322.75
0
9.40844
5.00084
96.1487
236.377
256.994
96.2463
61.117
161.167
26.4751
11.1726
9.49395
31.1496
25.4558
0
-1.34114e-12
1.13976
3.18556
2.59916
0.504755
10.2592
0
6.22057
6.60003
2.19719
5.25359
62.0012
14.0592
4.01093
0
188.299
82.5758
101.591
184.394
367.681
5.32084
4.30754
6.79825
0.964248
7.48012
0
6.31501
3.77842
2.1022
0.64143
0
3.96953
2.95521
0.639042
0
0.619217
5.17024
0
0
89.0669
9.33512
10.9332
84.7558
11.7666
0
2.64316
1.94573
2.67127
0
0
8.3993
2.74546
0
0.899621
0
9.90007
2.28132
2.13848
0
0
3.95574
0.133294
0
0
0
6.65012
22.2284
0
11.1223
3.11715
0
0.970764
0
0
4.0961
1.55214
1.43568
1.15733
0
2.35402
0.593383
0.669417
5.16409
0
-5.7697e-14
0
0
0
8.1662
8.59435
0
5.82429
11.1815
2.01786
0
0.629608
0
0
8.28967
1.07431
0.701427
1.10895
5.43425
7.69367
1.09741
2.83084
0
0
0
-1.09138e-13
0
0
11.7472
0
0
0
5.44125
0.660595
0.884456
0
0
22.2232
15.2819
0.511215
2.02093
0.700013
0
3.16306
1.54616
-1.53353e-13
0
0
0
0
0
0
1.8401
0
0
0
0
1.14723
0
0
0
0.444214
0
0.510232
1.33272
0.0210327
0
8.11649
1.01381
0
0
0
13.6894
0
0
0
19.3531
6.73206
0
0
5.31734
1.35991
0
0.796462
0
10.4574
7.5626
1.66592
1.30484
0
0
2.99316
1.40302
1.16426
0
0
0
3.75244
0
0
17.6358
0
8.57913
1.48309
5.13772
0.581409
0
0
0
0
1.7514
2.32651
0
0.682751
0
0
0.480568
0.246884
0
0
0
0
0
0
3.42464
0
0
0
7.81904
0.557606
0
0
0
0
3.43121
0.912579
0
0
0
-8.9829e-13
1.25578
0.657317
0
0
0.234084
0
0
0
14.5517
0
0
0
0.39645
0.593425
0
0.755068
0
-1.16178e-12
3.03535
0.699782
0
0
0
0
0.96723
0
0
0
3.93115
0
0
0
0
0
0
0
11.399
2.18413
0
0
0
0
0
1.95847
1.81915
0
5.95114
0
1.024
0.0224299
0
0
0
0
0
0
0
0
0
0
0
-2.80474e-13
0
0
0
0
0
0.982098
1.22657
0
0
0
0.483257
0
0
0
0
0
0
0
0
0
0
0
9.89764
0.478633
0
0
0
0
4.21563
1.92526
-7.29459e-15
0
0
1.70164
0.509119
0.607343
0
0
0
0
0
0
0
0
0
0
0
0.805977
0
0
0
0
0
0
0
0
0
0
0
1.27967
0
0
0
0
0
0
0
0
0
0
0
1.14523
0.5275
0
0
0
7.84449
0.985705
0
0.390904
0
-8.19627e-13
0.192888
0
0
0
0
0
0
0
0
0
0
0
0
0
0.528241
0
0
0
0
0.526
0
0
0
-3.93741e-13
0
0
0
0
0
0.263203
0
0
0
0
0
0
0
0
0.510477
0
0
11.6027
0
0.514488
0
0
0
0
0
0
0
0
0
0
0
0
0
0
0
0
0
0
0
0
0
0
0
0
0
0
0
-7.80293e-13
0.45614
0
0
0
0
0
1.3393
0
0
0
0
0
0
0
0
0
0
0
0
0
0
0
0
2.80147
0.116311
0
0
0
0
0
0
0
0
0
0
0
0
0
0
0
0
0
3.79172
0
0
0
0
4.91609
0.568268
0
0
0
0
0
0
0
0
0
0
0
0
0
0
0
0
0
0
0
0
0
0
2.70976
0
0
0
0
0
0
0
0
0
0
0
0
0
0
0
0
0
0
0
0.524156
0
0
0
0
0
0
0
0
0
0
0
0
0
0
0
0
0
0
0
0
0
0
0
0
0
0
0
0
0
0
0
0
0
0
0
0
0
0
0
0
0
0
0
0
0
0
0
0
0
0
0
0
0
0
0
0
0
0
0
0
0
0
0
0
0
0
0
0
0
0
0
0
0
0
0
0
0
0
0
0
0
0
0
0
0
0
0
0
0
0
0
0
0
0
0
0
0
0
0
0
0
0
0
0
0
0
0
0
0
0
0
0
0
0
0
0
0
0
0
0
0
0
0
0
0
0
0
0
0
0
0
0
0
0
0
0
0
0
0
0
0
0
0
0
0
0
0
0
0
0
0
0
0
0
0
0
0
0
0
0
0
0
0
0
0
0
0
0
0
0
0
0
0
0
0
0
0
0
0
0
0
0
0
0
0
0
0
0
0
0
0
0
0
0
0
0
0
0
0
0
0
0
0
0
0
0
0
0
0
0
0
0
0
0
0
0
0
0
0
0
0
0
0
0
0
0
0
0
0
0
0
0
0
0
0
0
0
0
0
0
0
0
0
0
0
0
0
0
0
0
0
0
0
0
0
0
0
0
0
0
0
0
0
0
0
0
0
0
0
0
0
0
0
0
0
0
0
0
0
0
0
0
0
0
0
0
0
0
0
0
0
0
0
0
0
0
0
0
0
0
0
0
0
0
0
0
0
0
0
0
0
0
0
0
0
0
0
0
0
0
0
0
0
0
0
0
0
0
0
0
0
0
0
0
0
0
0
0
0
0
0
0
0
0
0
0
0
0
0
0
0
0
0
0
0
0
0
0
0
0
0
0
0
0
0
0
0
0
0
0
0
0
0
0
0
0
0
0
0
0
0
0
0
0
0
0
0
0
0
0
0
0
0
0
0
0
0
0
0
0
0
0
0
0
0
0
0
0
0
0
0
0
0
0
0
0
0
0
0
0
0
0
0
0
0
0
0
0
0
0
0
0
0
0
0
0
0
0
0
0
0
0
0
0
0
0
0
0
0
0
0
0
0
0
0
0
0
0
0
0
0
0
0
0
0
0
0
0
0
0
0
0
0
0
0
0
0
0
0
0
0
0
0
0
0
0
0
0
0
0
0
0
0
0
0
0
0
0
0
0
0
0
0
0
0
0
0
0
0
0
0
0
0
0
0
0
0
0
0
0
0
0
0
0
0
0
0
0
0
0
0
0
0
0
0
0
0
0
0
0
0
0
0
0
0
0
0
0
0
0
0
0
0
0
0
0
0
0
0
0
0
0
0
0
0
0
0
0
0
0
0
0
0
0
0
0
0
0
0
0
0
0
0
0
0
0
0
0
0
0
0
0
0
0
0
0
0
0
0
0
0
0
0
0
0
0
0
0
0
0
0
0
0
0
0
0
0
0
0
0
0
0
0
0
0
0
0
0
0
0
0
0
0
0
0
0
0
0
0
0
0
0
0
0
0
0
0
0
0
0
0
0
0
0
0
0
0
0
0
0
0
0
0
0
0
0
0
0
0
0
0
0
0
0
0
0
0
0
0
0
0
0
0
0
0
0
0
0
0
0
0
0
0
0
0
0
0
0
0
0
0
0
0
0
0
0
0
0
0
0
0
0
0
0
0
0
0
0
0
0
0
0
0
0
0
0
0
0
0
0
0
0
0
0
0
0
0
0
0
0
0
0
0
0
0
0
0
0
0
0
0
0
0
0
0
0
0
0
0
0
0
0
0
0
0
0
0
0
0
0
0
0
0
0
0
0
0
0
0
0
0
0
0
0
0
0
0
0
0
0
0
0
0
0
0
0
0
0
0
0
0
0
0
0
0
0
0
0
0
0
0
0
0
0
0
0
0
0
0
0
0
0
0
0
0
0
0
0
0
0
0
0
0
0
0
0
0
0
0
0
0
0
0
0
0
0
0
0
0
0
0
0
0
0
0
0
0
0
0
0
0
0
0
0
0
0
0
0
0
0
0
0
0
0
0
0
0
0
0
0
0
0
0
0
0
0
0
0
0
0
0
0
0
0
0
0
0
0
0
0
0
0
0
0
0
0
0
0
0
0
0
0
0
0
0
0
0
0
0
0
0
0
0
0
0
0
0
0
0
0
0
0
0
0
0
0
0
0
0
0
0
0
0
0
0
0
0
0
0
0
0
0
0
0
0
0
0
0
0
0
0
0
0
0
0
0
0
0
0
0
0
0
0
0
0
0
0
0
0
0
0
0
0
0
0
0
0
0
0
0
0
0
0
0
0
0
0
0
0
0
0
0
0
0
0
0
0
0
0
0
0
0
0
0
0
0
0
0
0
0
0
0
0
0
0
0
0
0
0
0
0
0
0
0
0
0
0
0
0
0
0
0
0
0
0
0
0
0
0
0
0
0
0
0
0
0
0
0
0
0
0
0
0
0
0
0
0
0
0
0
0
0
0
0
0
0
6147.34
5625.58
5974.31
6557.72
6307.83
8044.04
9272.26
9299.59
9182.02
8620.31
6423.13
7913.29
3692.21
5390.01
6112.66
1876.49
3061.15
6695.93
6850.16
6383.04
5320.95
9236.29
8987.31
8162.55
9931.2
9482.09
8095.04
3132.08
3940.6
7865.27
5083.19
3476.03
3595.94
1663.5
903.576
3834.92
3179.05
3374.07
6163.2
5496.51
5453.75
4766.33
4444.12
4583.2
5118.39
5235.2
8672.39
9339.53
4312.86
6580.32
8403.27
2983.97
3300.97
7237.94
8160.74
3660.09
5588.62
8811.78
8750
7427.03
4632.71
6298.15
5079.34
4143.7
5061.24
4666.73
5579.37
8891.41
8924.7
6319.57
7630.02
6835.59
6994.58
7926.33
5045.82
9003.24
9013
3755.2
4315.85
8070.71
5372.12
7302.52
8821.82
3148.61
4571.64
6956.84
5521.41
5206.08
8320.75
2396.53
4486.56
4062.46
7545.29
10557.3
5922.25
10766.7
7738.3
9911.15
10895
9980.66
11436.1
8944.34
9444.73
6289.04
12106.1
12099.1
5940.78
3137.59
2523.09
12724.9
3050.24
11399.9
4236.22
8044.41
11730.5
5341.97
6577.44
4968.68
7339.23
4587.56
11213.8
4911.89
7573.02
1664.63
3114.19
1388.5
704.593
6254.68
1171.73
6263.2
567.854
862.901
3945.8
5655.26
1706.95
10036.7
9572.95
1114.84
3700.45
4272.84
4875.41
9971.88
9472.27
8560.72
9814.87
7513.04
761.289
2829.41
4486.34
103.117
7238.83
6631.35
1326.46
10056.3
7136.66
5999.2
3523.48
10033.2
9853.07
333.879
1264.23
1085.1
279.269
525.145
2332.28
2753.51
100.984
4941.68
11970.1
5160.73
3640.65
8515.34
1519.52
1081.58
10560
3944.33
1647.89
4986.35
1070.46
12036
8564
1982.08
2050.44
1364.02
382.239
1386.11
386.437
346.837
370.243
503.788
1602.65
278.307
457.167
951.474
1038.73
2538.48
2631.66
5104.83
2883.69
3891.16
8428.34
3809.79
2240.77
2464.15
726.056
768.747
590.645
182.344
688.821
517.159
403.549
968.177
802.321
5960.9
8526.04
4542.57
6840.94
10209.4
9348.95
1646.95
2580.15
651.95
1342.5
3178
9974.87
9263.9
10669.2
9600.27
9534.79
3435.68
52.0219
1993.11
3675.1
348.069
6932.85
8161.04
3068.29
8978.67
5563.66
6990.16
2242.92
8404.74
3774.45
1006.22
2445.56
5572.5
616.817
1307.87
1974.17
7380.82
270.345
9269.29
3570.39
1284.97
211.6
1764.04
2293.19
120.116
1819.45
1295.92
1266.66
540.298
2342.51
3356.8
1043.23
1259.6
1538.49
335.951
271.164
1621.72
496.624
356.828
257.04
430.616
2314.44
399.134
432.968
1112.89
1186.39
3365.28
4676.48
1464.47
2155.59
1839
4368.88
1324.29
2567.14
1790.77
454.157
367.208
231.214
193.479
427.068
476.626
128.428
819.454
654.379
5591.75
10721.5
9666.48
2943.84
9913.61
4888.58
1767.56
4179.44
951.788
1265.64
4183.04
9146.89
10017.5
10117.6
8995.48
9595.35
3561.09
2836.12
1254.72
2947.85
3635.82
9424.48
10417.6
2552.44
7387.06
2361.54
8784.03
5988.93
7583.26
2637.05
2877.3
1054.23
4169.83
3341.54
2829.91
601.22
1252.68
1399.65
1343.49
2121.64
542.143
886.601
1285.92
539.067
2666.02
530.86
3260.45
461.392
703.502
4059.76
4082.4
1155.81
662.049
1768.51
521.245
297.26
1647.16
616.373
325.52
494.623
679.258
2512.08
439.135
768.45
1179.56
1124.45
5515.67
7381.17
1831.44
3753.75
2612.59
6395.04
1320.74
5143.74
4814.77
318.667
381.98
110.784
102.972
248.412
83.5735
113.184
581.676
336.803
2221.61
8371.96
2717.83
4162.12
5727.14
4432.69
949.989
3726.55
868.835
768.333
3777.36
9276.79
9918.8
9013.08
9013.07
10200
2862.16
2177.38
1082.16
2734.76
1212.89
10576.8
11527.9
9305.09
8713.5
6683.17
10999.1
10138.5
11156.2
9656.52
410.548
298.774
502.952
338.587
263.087
220.167
375.22
190.981
4000.75
6560.58
4582.54
4334
5231.78
5292.96
4742.85
1419.58
3884.35
1841.18
1376.77
4615.73
2782.11
467.901
372.923
1189.7
612.726
290.449
845.819
401.132
245.785
378.709
576.642
1462.62
262.113
411.843
423.922
239.907
9069.9
6313.97
774.875
4712.6
6106.81
455.092
437.501
1480.73
3253.54
274.725
136.22
109.838
119.413
120.859
211.599
118.262
250.349
432.486
7021.81
7433.51
6062.38
5932.12
8139.62
5551.76
599.692
4673.42
536.075
435.191
1857.69
6908.29
5670.62
7391.11
3403.4
870.459
3669.3
1131.43
1027.2
2060.01
1005.91
9939.68
1050.83
7840.12
12169.1
12219.3
675.189
757.343
2561.59
4983.79
241.326
184.586
361.641
119.136
101.82
175.516
197.284
233.332
11377.7
11116.9
8165.32
7536.68
12068.1
11419.4
8308.47
1239.99
4916.46
4020.17
2242.55
6756.48
3008.76
193.141
229.549
505.152
293.389
245.108
230.349
290.547
199.403
183.07
257.506
503.165
199.063
176.077
197.12
102.655
4680.21
5633.86
176.523
353.976
372.808
516.37
181.214
784.25
285.349
204.122
185.499
110.521
166.381
177.076
311.734
66.7806
389.251
382.764
4423.84
7903.99
3174.95
6117.97
7165.38
3740.48
3099.82
331.467
5821.37
123.496
354.082
162.968
452.648
13793
11720.6
10269.1
1489.78
10689.4
3629.57
11871
1737.59
879.064
5829.56
2353.98
362.023
8175.98
1544.55
4344.98
2456.6
3631.1
2832.15
3416.54
12706.7
10862.4
13435.4
4001.39
10121.2
2317.83
11585.9
278.6
85.6292
491.438
67.004
143.899
45.2592
66.679
15.0096
10.6804
106.695
605.479
286.049
1562.19
318.565
1465.86
549.273
701.08
525.922
17.0655
2507.41
4175.49
18.1281
45.3631
217.32
6049.11
7775.52
2529.99
7871.2
1734.6
6410.44
226.721
170.841
155.505
137.625
182.835
76.7789
122.709
137.164
134.659
205.496
183.179
151.079
161.654
96.8938
153.635
1914.75
348.964
214.052
344.776
439.288
340.028
217.116
112.258
78.9155
209.075
346.004
88.0838
218.421
308.514
198.76
156.104
415.783
125.656
581.115
322.726
21.5194
0
48.8722
0
1066.72
3270.87
2362.18
130.956
74.0598
149.024
344.328
50.5266
265.951
439.209
462.347
343.265
499.231
202.703
190.199
125.089
37.0397
3.18465
25.0474
0
978.643
61.9243
129.805
41.0451
11.4038
280.681
1010.83
816.961
91.4421
100.86
206.136
454.112
130.103
36.5209
266.811
64.1645
3.62948
29.8204
-2.82804e-13
2.02623
12.9667
25.6816
15.7449
5.75826
30.2724
4.45855
31.355
4.28363
934.544
1335.43
1084.97
158.076
919.811
619.766
1912.25
168.199
1115.52
271.718
10.0438
0
0
0
17.9435
5.65544
0
5.52441
6.15721
10.9903
982.93
9.77602
2.64343
1.90766
0
861.206
237.468
403.525
231.877
179.667
121.972
297.846
296.644
191.638
90.3141
120.056
223.147
116.052
156.675
209.222
268.954
155.718
60.4338
187.204
94.5041
33.3398
293.052
160.158
68.0456
77.4927
436.517
393.808
437.274
187.775
391.21
166.165
182.433
627.553
124.718
129.714
14.8358
19.1073
9.04525
10.4903
0
31.6126
0
7.38721
6.86682
13.0937
9.78965
114.758
607.71
79.2645
22.6672
8.99913
35.3684
17.3057
6.21965
6.4721
0
9.64155
2.56261
3.39332
0
6.54626
13.8193
12.0294
14.2589
10.9198
43.1825
61.2508
298.879
15.7128
21.5828
78.5017
93.4694
0
0.225695
0
0
0
4.74937
0
10.3192
27.779
20.1555
15.6486
20.1641
13.3009
11.7528
39.9902
19.8483
405.52
221.561
1497.76
0.625553
148.838
53.1685
476.472
191.246
584.827
24.9529
0
0
0
16.8911
29.4093
9.07725
11.8689
7.16656
3.96482
0
0
11.3507
2.40436
0
-1.45167e-12
0
439.765
290.107
310.623
420.081
328.81
348.333
473.967
376.792
119.099
148.89
195.598
145.227
254.086
362.559
271.583
55.3385
26.1877
169.063
101.206
69.3814
199.375
200.464
35.6226
43.8343
272.768
37.8625
156.834
164.539
238.788
18.3974
127.247
77.3438
55.749
18.6728
0
10.5149
4.23628
0
3.15345
18.3919
6.50505
0
27.8375
0
-4.33513e-14
5.25658
0
0
0
0
0
0
0
5.66924
16.5737
0
3.66784
12.4942
5.28813
37.2852
12.9524
0
0
11.4045
0
0
4.7016
0
0
0
0
0
27.289
40.2948
6.70088
5.51907
17.5586
11.7769
14.6848
20.5874
15.0466
29.2602
2.72772
82.9601
0
11.4361
0
10.0503
15.5608
-1.17491e-12
9.86534
0
19.1011
17.2975
3.54171
9.3482
0
13.1959
0.119127
0
-3.65144e-12
0
190.722
83.3088
345.93
229.804
267.798
155.301
102.704
70.2983
156.005
206.845
111.542
108.359
140.459
392.935
257.093
18.8303
0
88.3528
21.3131
20.7652
11.051
50.1981
8.22799
0
437.049
200.189
129.028
360.163
127.312
50.4815
49.7119
95.2627
65.6302
0
0
1.09584
0
0
4.02917
0
0
0
0
0
3.67254
-1.58548e-12
0
5.27996
0
0
6.56083
0
0
0
-2.99268e-12
28.8751
8.14047
20.4978
5.9984
4.49125
4.1677
7.84911
4.97822
0
4.05205
0
0
0
0
0
0
0
9.62236
0
0
15.3731
8.15429
0
4.94165
0
6.2315
0
0
0
9.77899
9.46233
47.6105
19.501
41.2767
29.446
2.1668
16.6446
98.4397
107.15
55.3571
30.4575
62.1972
44.1806
10.5373
0
6.00868
12.7116
0.676056
0.140728
-1.87558e-12
5.14176
2.09065
6.10492
-2.4272e-13
6.70059
-1.6887e-13
9.61253
1.52984
-6.14416e-14
11.4557
0
0
8.47529
0
-4.51452e-13
-1.84805e-12
16.281
-2.08992e-12
0
0
0
0
0
-7.95478e-13
9.64537
23.2836
10.0279
8.83922
0
0
0
0
0
-5.10562e-12
0
8.47075
2.32188
1.34553
4.92749
8.22929
0
3.68872
0
0
8.04706
5.3467
0
0
0
0
25.3253
11.344
0
0
5.51624
4.11423
15.0999
0
0
0
0
0
0
0
0
0
4.76375
5.25476
0
13.2653
0
8.30642
8.07152
0
3.49897
7.83346
0
0
-2.12935e-12
22.0317
0
-4.36774e-13
3.19496
0
4.98623
5.80386
1.44258
0
0
0
0
0
0
6.58133
0
13.8407
0
0
8.16
5.80558
0
0
0
0
0
0
0
10.2325
4.88704
0
3.60898
0
0
0
1.64876
0
0
8.20785
13.6718
3.9973
0
6.45578
7.97123
3.84113
0
0.119917
0
5.46278
0
0
0
0.141691
0
0
0
0
4.3247
0
3.21148
2.57685
0
0
0
4.11582
0
0
0
19.3652
0
0
5.82743
0.220765
0
5.9092
10.2493
0
0
0
0
0
0
0
-3.67876e-12
10.8328
5.4181
5.04409
6.02212
15.5583
5.26134
6.75524
11.0178
0
0
0
0
0
0
0
0
0
15.9272
0
0
7.1675
13.4412
0
0
0
0
0
0
4.06026
0
0
0
1.04567
0
0
0
0
0
-1.55073e-12
-2.35343e-13
0
4.66179
0
0.283779
3.7866
3.94147
3.32744
0
0
0
0
3.01815
0
0
0
0
0
0
0
0
0
0
0
0
0
0
0
0
0
5.19328
0
0
5.05577
0
5.86162
0
0
0
0
0
10.2158
0
20.5119
0
5.6343
5.07463
21.327
6.38139
16.9367
12.7979
3.27106
5.64244
0
0
0
0
0
4.72165
0
0
0
0
0
8.03825
0
0
-8.715e-13
0
0
0
0
0
10.702
0.294689
4.44067
6.44369
6.64734
0
0
5.38885
0
0
29.1456
-2.36945e-12
0
0
0
2.1536
3.99676
0
3.33014
-4.92921e-13
0
0
0
0
0
0
0
0
7.56088
0
0
0
0
0
0
0
0
0
0
0
0
10.2013
0
0
0
0
0
0
0
0
0
0
14.3924
0
0.474022
7.36575
4.29358
1.95612
9.09439
1.47705
25.5474
6.26768
22.86
8.73352
0
2.48773
6.3484
0
0.411317
0
0
0
0
0
0
16.4069
0
0
8.78029
0
0
0
0
0
7.1513
3.27543
0
2.5169
0
0
0
0
0
0
0.925214
0
4.01803
5.74182
3.21487
3.73235
4.97862
-6.59302e-14
9.04888
0
0
0
4.97756
0
0
0
0
0
0
0
0
0
0
0
0
0
0
5.90861
0
0
0
0
0
0
5.47752
0
0
0
0
2.9087
0
1.82816
5.00882
0
0
10.6201
10.5763
5.16221
13.9066
6.18714
1.48568
0
9.04675
0
10.6091
0
0
0
0
0
0
0
0
8.18491
0
-7.89183e-13
-2.03189e-12
12.0181
0
0
0
0
0
0
5.19043
0
0
1.05628
0
0
0
0
0
0
0
0
2.42489
5.56679
4.32454
2.91953
0.0838691
0
0
0
0
0
0
0
4.57135
0
0
12.3125
8.28166
3.62506
0
4.18468
0
0
0
0
0
0
0
0.507251
0
0
0
0
0
0
0
0
0.567656
0
0
2.558
0
10.0002
0
11.7334
22.1544
0
20.6174
11.3457
9.62514
10.9371
24.7344
6.19886
0
7.2985
0
0
0
0
0
0
0
30.5666
0
9.05359
-7.36738e-13
0
4.43175
0
0
0
0
0
0
0
0
3.35497
19.7256
0
0
0
0
0
6.75846
0
3.59231
0
0
6.30043
-4.09374e-14
5.85049
0
0
-1.26169e-12
0
5.41292
0
0
0
0
0.242144
0
0
0
0
0
0
5.96891
0
0
1.89301
0
0
0
0
0
0
0
0
0
0
0
0
0
0
0
0
0
-3.71487e-12
11.0251
2.74602
5.0319
-1.33217e-12
4.07496
0
14.07
0
0
0
0
0
0
0
0
0
0
6.24787
0
0
17.8169
15.1743
4.51963
0
0
0
0
0
3.62095
-1.1719e-12
3.68935
2.41062
0
0
0
0
21.728
0
0
6.66436
0
15.9749
5.1191
0
1.72303
-2.03409e-12
1.13996
0
0
0
0
0
0
0
0
6.71991
-2.22245e-12
3.30438
0
-8.43152e-14
0
0
3.82237
0
0
0
0
0
0
0
0
0
0
0
0
0
0
0
0
0
0
0
0
10.9072
-1.25704e-13
0
0.328004
6.10187
0
0
0
2.79031
0
0
0
0
0
0
0
0
0
19.6174
0
4.70295
0.209061
0
9.33295
0
0
0
0
0
4.23111
3.65589
0
2.8552
0
0
0
0
0
0
0
0
-7.34397e-13
0
0.685304
0
0
0
-1.11157e-13
0
0
8.57308
0
0
0
0
0
0
6.44063
0
0
0.562523
0
0
0
0
0
0
0
0
0
0
0
0
0
0
0
0
0
0
0
0
0
0
0
0
0
0
0
6.05191
0
0
0
5.95084
0
0
0
0
0
0
0
0
0
0
0
4.53108
12.129
0
5.27333
0
0
0
0
0
7.49741
0
12.7153
0
0
0
0
0
0
0
0
14.174
0
0
0.231938
0
3.76825
0
6.83648
0
0
0
0
0
0
0
0
0
0
0
0
0
0
12.4227
0
0
3.87263
0
1.10882
0
0
0
0
0
0.242128
0
0
6.15755
0
0
0
0
0
0
0
11.3503
11.343
0
0
0
0
0
0
5.72034
0
0
0
0
0
0
0
0
0
6.05457
0
3.53964
0
0
4.43373
0
0
0
0
0
0
0
0
0
0
0
0
0
0
0
2.10813
0
0
0
0
0.137419
3.751
0
0
0
4.88027
0
0
0
0
0
0
0
0
0
0
0
0
0
0
0
0
0
0
0
0
0
0
0
0
0
0
0
0
0
0
0
0
0
0
0
0
0
0
0
0
0
2.10748
0
0
0
0
0
0
0
0
0
0
5.84227
0
4.65215
0
0
0
0
0
0
0
0
3.86311
0
0
0
0
0
0
0
0
0
0
0
0
0
0
1.75856
0
0
3.8951
0
0
0
0
0
0
0
0
0
0
0
0
0
0
0
6.0858
0
0
0
0
0
0
0
0
0
0
0
0
0
0
0
0
0
0
0
0
11.1132
0
0
3.04205
0
0
0
0
0
0
0
0
0
0
0
0
0
0
0
0
0
0
23.725
0
0
0
0
0
0
0
0
0
0
7.94769
0
0
0
0
0
7.02608
1.4147
0
0
0
6.38001
0
0
0
0
0
0
0
0
0
0
0
0
0
0
0
0
0
0
0
0
0
6.07166
0
0
0
0
0
0
0
0
0
0
0
0
0
0
0
0
0
0
0
0
0
0
0
0
0
0
0
0
0
0
0
0
0
0
0
0
0
3.65838
0
0
0
0
0
0
0
0
0
0.150221
0
0
0
0
0
0
0
0
0
0
4.27667
0
0
3.28075
2.92692
0
3.75235
1.80901
0
0
0
0
0
0
0
0
0
0
0
0
0
0
0
0
0
0
0
0
0
0
0
0
0
0
0
0
0
0
0
0
0
0
0
0
0
0
0
0
0
0
0
0
0
0
0
0
0
0
0
0
0
0
0
3.26943
0
0
0
0
0
0
0
0
0.769577
3.0783
0
-3.17633e-14
-4.50534e-13
0
0
0
0
0
0
0
0
0
0
0
0
0
0
0
0
0
0
0
0
0
0
0
0
0
0
0
0
0
4.50043
0
-7.45921e-13
2.15087
0
0
0
0
0
0
0
0
0
0
0
0
0
0
0
0
0
0
0
0
0
0
0
0
0
0
0
0
0
0
0
0
0
0
0
0
0
0
0
0
0
0
0
0
0
0
3.32693
0
0
2.12393
0
0
0
0
0
0
0
0
0
0
0
3.01223
0
0
0
0
0
0
0
0
0
0
0
0
0
0
0
0
0
0
0
0
0
0
0
0
0
0
0
0
0
0
0
0
0
0
0
0
0
0
0
0
0
0
0
0
0
0
0
0
0
0
0
0
0
0
0
0
0
0
0
0
0
0
0
0
0
0
0
0
2.28925
0
0
3.39248
0
0
0
0
0
0
0
0
0
0
0
0
0
0
0
0
0
0
0
0
0
0
0
0
0
0
0
0
0
0
5.28645
0
0
0
0
0
0
0
0
0
0
0
0
0
0
0
0
0
0
0
0
0
0
0
0
0
0
0
0
0
0
0
0
0
0
0
0
0
0
0
0
0
0
0
0
0
0
0
0
0
-8.89152e-13
0
0
0
0
0
0
0
0
0
0
0
0
0
0
-3.22603e-14
0
0
0
0
0
0
0
0
0
0
0
0
0
0
0
0
0
0
0
0
0
0
0
0
0
0
0
0
0
0
0
0
0
0
0
0
0
0
0
0
0
0
0
0
0
0
0
0
0
0
0
0
0
0
0
0
0
0
0
0
0
0
0
0
0
0
0
0
3.55507
0
0
-3.95408e-13
0
0
0
0
0
0
0
0
2.42639
0
0
0
0
0
7.08378
0
0
0
0
0
0
0
0
0
0
0
0
0
0
0
0
0
0
0
0
0
0
0
0
0
0
0
0
0
0
0
0
0
0
0
0
0
0
0
0
0
0
0
0
0
0
0
0
0
0
0
0
0
0
0
0
0
0
0
0
0
0
0
0
0
0
0
0
1.95139
7.75361
0
0
0
0
0
6.57205
0
0
0
-7.68197e-13
0
0
0
0
0
0
0
0
0
0
0
0
0
0
0
0
0
0
0
0
0
0
0
0
0
0
0
0
0
0
0
0
0
0
0
0
0
0
0
0
0
0
0
0
0
0
0
0
0
0
0
0
0
0
0
0
0
0
0
0
0
0
0
0
0
0
0
0
0
0
0
0
0
0
0
0
0
0
0
0
0
0
0
0
0
0
0
0
0
0
0
0
0
0
0
0
0
0
0
0
0
0
0
0
0
0
0
0
0
0
0
0
0
0
0
0
0
0
0
0
0
0
0
0
0
0
0
0
0
0
0
0
0
0
0
0
0
0
0
0
0
0
0
0
0
0
0
0
0
0
0
0
0
0
0
0
0
0
0
0
0
0
0
0
0
0
0
0
0
0
0
0
0
0
0
0
0
0
0
0
0
0
0
0
0
0
0
0
0
0
0
0
0
0
0
0
0
0
0
0
0
0
0
0
0
0
0
0
0
0
0
0
0
0
0
0
0
0
0
0
0
0
0
0
0
0
0
0
0
0
0
0
0
0
0
0
0
0
0
0
0
0
0
0
0
0
0
0
0
0
0
0
0
0
0
0
0
0
0
0
0
0
0
0
0
0
0
0
0
0
0
0
0
0
0
0
0
0
0
0
0
0
0
0
0
0
0
0
0
0
0
0
0
0
0
0
0
0
0
0
0
0
0
0
0
0
0
0
0
0
0
0
0
0
0
0
0
0
0
0
0
0
0
0
0
0
0
0
0
0
0
0
0
0
0
0
5.5831
0
0
0
0
0
0
0
0
0
0
0
0
0
0
0
0
0
0
0
0
0
0
0
0
0
0
0
0
0
0
0
0
0
0
0
0
0
0
0
0
0
0
0
0
0
0
0
0
0
0
0
0
0
0
0
0
0
0
0
0
0
0
0
0
0
0
0
0
0
0
0
2.96718
0
0
0
0
0
0
0
0
0
0
0
0
0
0
0
0
0
0
0
0
0
0
0
0
0
0
0
0
0
0
0
0
0
0
0
0
0
0
0
0
0
0
0
0
0
0
0
0
0
0
0
0
0
0
0
0
0
0
0
0
0
0
0
0
0
0
0
0
0
0
0
0
0
0
0
0
0
0
0
0
-3.41446e-13
0
0
0
0
0
0
0
0
0
0
0
0
0
0
0
0
0
0
0
0
0
0
0
0
0
0
0
0
0
0
0
0
0
0
0
0
0
0
0
0
0
0
0
0
0
0
0
0
0
0
0
0
0
0
0
0
0
0
0
0
0
0
0
0
0
0
0
0
0
0
0
0
0
0
0
0
0
0
0
0
0
0
0
0
0
0
0
0
0
0
0
0
0
0
0
0
0
0
0
0
0
0
0
0
0
0
0
0
0
0
0
0
0
0
0
0
0
0
0
0
0
0
0
0
0
0
0
0
0
0
0
0
0
0
0
0
0
0
0
0
0
0
0
0
0
0
0
0
0
0
0
0
0
0
0
0
0
0
0
0
0
0
0
0
0
0
0
0
0
0
0
0
0
0
0
0
0
0
0
0
0
0
0
0
0
0
0
0
0
0
0
0
0
0
0
0
0
0
0
0
0
0
0
0
0
0
0
0
0
0
0
0
0
0
0
0
0
0
0
0
0
0
0
0
0
0
0
0
0
0
0
0
0
0
0
0
0
0
0
0
0
0
0
0
0
0
0
0
0
0
0
0
0
0
0
0
0
0
0
0
0
0
0
0
0
0
0
0
0
0
0
0
0
0
0
0
0
0
0
0
0
0
0
0
0
0
0
0
0
0
0
0
0
0
0
0
0
0
0
0
0
0
0
0
0
0
0
0
0
0
0
0
0
0
0
0
0
0
0
0
0
0
0
0
0
0
0
0
0
0
0
0
0
0
0
0
0
0
0
0
0
0
0
0
0
0
0
0
0
0
0
0
0
0
0
0
0
0
0
0
0
0
0
0
0
0
0
0
0
0
0
0
0
0
0
0
0
0
0
0
0
0
0
0
0
0
0
0
0
0
0
0
0
0
0
0
0
0
0
0
0
0
0
0
0
0
0
0
0
0
0
0
0
0
0
0
0
0
0
0
0
0
0
0
0
0
0
0
0
0
0
0
0
0
0
0
0
0
0
0
0
0
0
0
0
0
0
0
0
0
0
0
0
0
0
0
0
0
0
0
0
0
0
0
0
0
0
0
0
0
0
0
0
0
0
0
0
0
0
0
0
0
0
0
0
0
0
0
0
0
0
0
0
0
0
0
0
0
0
0
0
0
0
0
0
0
0
0
0
0
0
0
0
0
0
0
0
0
0
0
0
0
0
0
0
0
0
0
0
0
0
0
0
0
0
0
0
0
0
0
0
0
0
0
0
0
0
0
0
0
0
0
0
0
0
0
0
0
0
0
0
0
0
0
0
0
0
0
0
0
0
0
0
0
0
0
0
0
0
0
0
0
0
0
0
0
0
0
0
0
0
0
0
0
0
0
0
0
0
0
0
0
0
0
0
0
0
0
0
0
0
0
0
0
0
0
0
0
0
0
0
0
0
0
0
0
0
0
0
0
0
0
0
0
0
0
0
0
0
0
0
0
0
0
0
0
0
0
0
0
0
0
0
0
0
0
0
0
0
0
0
0
0
0
0
0
0
0
0
0
0
0
0
0
0
0
0
0
0
0
0
0
0
0
0
0
0
0
0
0
0
0
0
0
0
0
0
0
0
0
0
0
0
0
0
0
0
0
0
0
0
0
0
0
0
0
0
0
0
0
0
0
0
0
0
0
0
0
0
0
0
0
0
0
0
0
0
0
0
0
0
0
0
0
0
0
0
0
0
0
0
0
0
0
0
0
0
0
0
0
0
0
0
0
0
0
0
0
0
0
0
0
0
0
0
0
0
0
0
0
0
0
0
0
0
0
0
0
0
0
0
0
0
0
0
0
0
0
0
0
0
0
0
0
0
0
0
0
0
0
0
0
0
0
0
0
0
0
0
0
0
0
0
0
0
0
0
0
0
0
0
0
0
0
0
0
0
0
0
0
0
0
0
0
0
0
0
0
0
0
0
0
0
0
0
0
0
0
0
0
0
0
0
0
0
0
0
0
0
0
0
0
0
0
0
0
0
0
0
0
0
0
0
0
0
0
0
0
0
0
0
0
0
0
0
0
0
0
0
0
0
0
0
0
0
0
0
0
0
0
0
0
0
0
0
0
0
0
0
0
0
0
0
0
0
0
0
0
0
0
0
0
0
0
0
0
0
0
0
0
0
0
0
0
0
0
0
0
0
0
0
0
0
0
0
0
0
0
0
0
0
0
0
0
0
0
0
0
0
0
0
0
0
0
0
0
0
0
0
0
0
0
0
0
0
0
0
0
0
0
0
0
0
0
0
0
0
0
0
0
0
0
0
0
0
0
0
0
0
0
0
0
0
0
0
0
0
0
0
0
0
0
0
0
0
0
0
0
0
0
0
0
0
0
0
0
0
0
0
0
0
0
0
0
0
0
0
0
0
0
0
0
0
0
0
0
0
0
0
0
0
0
0
0
0
0
0
0
0
0
0
0
0
0
0
0
0
0
0
0
0
0
0
0
0
0
0
0
0
0
0
0
0
0
0
0
0
0
0
0
0
0
0
0
0
0
0
0
0
0
0
0
0
0
0
0
0
0
0
0
0
0
0
0
0
0
0
0
0
0
0
0
0
0
0
0
0
0
0
0
0
0
0
0
0
0
0
0
0
0
0
0
0
0
0
0
0
0
0
0
0
0
0
0
0
0
0
0
0
0
0
0
0
0
0
0
0
0
0
0
0
0
0
0
0
0
0
0
0
0
0
0
0
0
0
0
0
0
0
0
0
0
0
0
0
0
0
0
0
0
0
0
0
0
0
0
0
0
0
0
0
0
0
0
0
0
0
0
0
0
0
0
0
0
0
0
0
0
0
0
0
0
0
0
0
0
0
0
0
0
0
0
0
0
0
0
0
0
0
0
0
0
0
0
0
0
0
0
0
0
0
0
0
0
0
0
0
0
0
0
0
0
0
0
0
0
0
0
0
0
0
0
0
0
0
0
0
0
0
0
0
0
0
0
0
0
0
0
0
0
0
0
0
0
0
0
0
0
0
0
0
0
0
0
0
0
0
0
0
0
0
0
0
0
0
0
0
0
0
0
0
0
0
0
0
0
0
0
0
0
0
0
0
0
0
0
0
0
0
0
0
0
0
0
0
0
0
0
0
0
0
0
0
0
0
0
0
0
0
0
0
0
0
0
0
0
0
0
0
0
0
0
0
0
0
0
0
0
0
0
0
0
0
0
0
0
0
0
0
0
0
0
0
0
0
0
0
0
0
0
0
0
0
0
0
0
0
0
0
0
0
0
0
0
0
0
0
0
0
0
0
0
0
0
0
0
0
0
0
0
0
0
0
0
0
0
0
0
0
0
0
0
0
0
0
0
0
0
0
0
0
0
0
0
0
0
0
0
0
0
0
0
0
0
0
0
0
0
0
0
0
0
0
0
0
0
0
0
0
0
0
0
0
0
0
0
0
0
0
0
0
0
0
0
0
0
0
0
0
0
0
0
0
0
0
0
0
0
0
0
0
0
0
0
0
0
0
0
0
0
0
0
0
0
0
0
0
0
0
0
0
0
0
0
0
0
0
0
0
0
0
0
0
0
0
0
0
0
0
0
0
0
0
0
0
0
0
0
0
0
0
0
0
0
0
0
0
0
0
0
0
0
0
0
0
0
0
0
0
0
0
0
0
0
0
0
0
0
0
0
0
0
0
0
0
0
0
0
0
0
0
0
0
0
0
0
0
0
0
0
0
0
0
0
0
0
0
0
0
0
0
0
0
0
0
0
0
0
0
0
0
0
0
0
0
0
0
0
0
0
0
0
0
0
0
0
0
0
0
0
0
0
0
0
0
0
0
0
0
0
0
0
0
0
0
0
0
0
0
0
0
0
0
0
0
0
0
0
0
0
0
0
0
0
0
0
0
0
0
0
0
0
0
0
0
0
0
0
0
0
0
0
0
0
0
0
0
0
0
0
0
0
0
0
0
0
0
0
0
0
0
0
0
0
0
0
0
0
0
0
0
0
0
0
0
0
0
0
0
0
0
0
0
0
0
0
0
0
0
0
0
0
0
0
0
0
0
0
0
0
0
0
0
0
0
0
0
0
0
0
0
0
0
0
0
0
0
0
0
0
0
0
0
0
0
0
0
0
0
0
0
0
0
0
0
0
0
0
0
0
0
0
0
0
0
0
0
0
0
0
0
0
0
0
0
0
0
0
0
0
0
0
0
0
0
0
0
0
0
0
0
0
0
0
0
0
0
0
0
0
0
0
0
0
0
0
0
0
0
0
0
0
0
0
0
0
0
0
0
0
0
0
0
0
0
0
0
0
0
0
0
0
0
0
0
0
0
0
0
0
0
0
0
0
0
0
0
0
0
0
0
0
0
0
0
0
0
0
0
0
0
0
0
0
0
0
0
0
0
0
0
0
0
0
0
0
0
0
0
0
0
0
0
0
0
0
0
0
0
0
0
0
0
0
0
0
0
0
0
0
0
0
0
0
0
0
0
0
0
0
0
0
0
0
0
0
0
0
0
0
0
0
0
0
0
0
0
0
0
0
0
0
0
0
0
0
0
0
0
0
0
0
0
0
0
0
0
0
0
0
0
0
0
0
0
0
0
0
0
0
0
0
0
0
0
0
0
0
0
0
0
0
0
0
0
0
0
0
0
0
0
0
0
0
0
0
0
0
0
0
0
0
0
0
0
0
0
0
0
0
0
0
0
0
0
0
0
0
0
0
0
0
0
0
0
0
0
0
0
0
0
0
0
0
0
0
0
0
0
0
0
0
0
0
0
0
0
0
0
0
0
0
0
0
0
0
0
0
0
0
0
0
0
0
0
0
0
0
0
0
0
0
0
0
0
0
0
0
0
0
0
0
0
0
0
0
0
0
0
0
0
0
0
0
0
0
0
0
0
0
0
0
0
0
0
0
0
0
0
0
0
0
0
0
0
0
0
0
0
0
0
0
0
0
0
0
0
0
0
0
0
0
0
0
0
0
0
0
0
0
0
0
0
0
0
0
0
0
0
0
0
0
0
0
0
0
0
0
0
0
0
0
0
0
0
0
0
0
0
0
0
0
0
0
0
0
0
0
0
0
0
0
0
0
0
0
0
0
0
0
0
0
0
0
0
0
0
0
0
0
0
0
0
0
0
0
0
0
0
0
0
0
0
0
0
0
0
0
0
0
0
0
0
0
0
0
0
0
0
0
0
0
0
0
0
0
0
0
0
0
0
0
0
0
0
0
0
0
0
0
0
0
0
0
0
0
0
0
0
0
0
0
0
0
0
0
0
0
0
0
0
0
0
0
0
0
0
0
0
0
0
0
0
0
0
0
0
0
0
0
0
0
0
0
0
0
0
0
0
0
0
0
0
0
0
0
0
0
0
0
0
0
0
0
0
0
0
0
0
0
0
0
0
0
0
0
0
0
0
0
0
0
0
0
0
0
0
0
0
0
0
0
0
0
0
0
0
0
0
0
0
0
0
0
0
0
0
0
0
0
0
0
0
0
0
0
0
0
0
0
0
0
0
0
0
0
0
0
0
0
0
0
0
0
0
0
0
0
0
0
0
0
0
0
0
0
0
0
0
0
0
0
0
0
0
0
0
0
0
0
0
0
0
0
0
0
0
0
0
0
0
0
0
0
0
0
0
0
0
0
0
0
0
0
0
0
0
0
0
0
0
0
0
0
0
0
0
0
0
0
0
0
0
0
0
0
0
0
0
0
0
0
0
0
0
0
0
0
0
0
0
0
0
0
0
0
0
0
0
0
0
0
0
0
0
0
0
0
0
0
0
0
0
0
0
0
0
0
0
0
0
0
0
0
0
0
0
0
0
0
0
0
0
0
0
0
0
0
0
0
0
0
0
0
0
0
0
0
0
0
0
0
0
0
0
0
0
0
0
0
0
0
0
0
0
0
0
0
0
0
0
0
0
0
0
0
0
0
0
0
0
0
0
0
0
0
0
0
0
0
0
0
0
0
0
0
0
0
0
0
0
0
0
0
0
0
0
0
0
0
0
0
0
0
0
0
0
0
0
0
0
0
0
0
0
0
0
0
0
0
0
0
0
0
0
0
0
0
0
0
0
0
0
0
0
0
0
0
0
0
0
0
0
0
0
0
0
0
0
0
0
0
0
0
0
0
0
0
0
0
0
0
0
0
0
0
0
0
0
0
0
0
0
0
0
0
0
0
0
0
0
0
0
0
0
0
0
0
0
0
0
0
0
0
0
0
0
0
0
0
0
0
0
0
0
0
0
0
0
0
0
0
0
0
0
0
0
0
0
0
0
0
0
0
0
0
0
0
0
0
0
0
0
0
0
0
0
0
0
0
0
0
0
0
0
0
0
0
0
0
0
0
0
0
0
0
0
0
0
0
0
0
0
0
0
0
0
0
0
0
0
0
0
0
0
0
0
0
0
0
0
0
0
0
0
0
0
0
0
0
0
0
0
0
0
0
0
0
0
0
0
0
0
0
0
0
0
0
0
0
0
0
0
0
0
0
0
0
0
0
0
0
0
0
0
0
0
0
0
0
0
0
0
0
0
0
0
0
0
0
0
0
0
0
0
0
0
0
0
0
0
0
0
0
0
0
0
0
0
0
0
0
0
0
0
0
0
0
0
0
0
0
0
0
0
0
0
0
0
0
0
0
0
0
0
0
0
0
0
0
0
0
0
0
0
0
0
0
0
0
0
0
0
0
0
0
0
0
0
0
0
0
0
0
0
0
0
0
0
0
0
0
0
0
0
0
0
0
0
0
0
0
0
0
0
0
0
0
0
0
0
0
0
0
0
0
0
0
0
0
0
0
0
0
0
0
0
0
0
0
0
0
0
0
0
0
0
0
0
0
0
0
0
0
0
0
0
0
0
0
0
0
0
0
0
0
0
0
0
0
0
0
0
0
0
0
0
0
0
0
0
0
0
0
0
0
0
0
0
0
0
0
0
0
0
0
0
0
0
0
0
0
0
0
0
0
0
0
0
0
0
0
0
0
0
0
0
0
0
0
0
0
0
0
0
0
0
0
0
0
0
0
0
0
0
0
0
0
0
0
0
0
0
0
0
0
0
0
0
0
0
0
0
0
0
0
0
0
0
0
0
0
0
0
0
0
0
0
0
0
0
0
0
0
0
0
0
0
0
0
0
0
0
0
0
0
0
0
0
0
0
0
0
0
0
0
0
0
0
0
0
0
0
0
0
0
0
0
0
0
0
0
0
0
0
0
0
0
0
0
0
0
0
0
0
0
0
0
0
0
0
0
0
0
0
0
0
0
0
0
0
0
0
0
0
0
0
0
0
0
0
0
0
0
0
0
0
0
0
0
0
0
0
0
0
0
0
0
0
0
0
0
0
0
0
0
0
0
0
0
0
0
0
0
0
0
0
0
0
0
0
0
0
0
0
0
0
0
0
0
0
0
0
0
0
0
0
0
0
0
0
0
0
0
0
0
0
0
0
0
0
0
0
0
0
0
0
0
0
0
0
0
0
0
0
0
0
0
0
0
0
0
0
0
0
0
0
0
0
0
0
0
0
0
0
0
0
0
0
0
0
0
0
0
0
0
0
0
0
0
0
0
0
0
0
0
0
0
0
0
0
0
0
0
0
0
0
0
0
0
0
0
0
0
0
0
0
0
0
0
0
0
0
0
0
0
0
0
0
0
0
0
0
0
0
0
0
0
0
0
0
0
0
0
0
0
0
0
0
0
0
0
0
4477.46
997.909
1143.03
4253.77
2953.82
1042.99
884.667
6389.64
562.805
767.504
2615.67
1454.59
726.385
902.218
5687.54
762.457
1037.23
1177.82
2359.27
318.366
67.9218
694.467
1240.69
904.251
1613.84
962.51
105.087
346.982
1447.85
1173.17
1503.03
1131.18
873.017
806.106
1225.6
1240.77
3983.81
4272.69
793.804
568.893
1621.1
730.909
741.167
4447.54
1116.73
2097.08
429.865
5252.74
3119.4
490.872
1035.82
576.054
122.515
143.57
947.092
628.04
3810.53
3833.65
506.18
2222.93
1614.09
5376.52
439.763
1415.2
242.922
269.988
140.573
106.165
106.214
79.1783
914.802
3828.27
3496.69
3029.8
2814.98
8635.74
5893.07
297.83
4618.73
2318.18
5473.59
262.814
4568.15
667.605
856.433
641.427
313.329
782.603
717.894
601.093
509.146
912.723
557.639
728.29
637.745
382.208
788.281
880.075
663.914
90.4093
146.586
996.289
199.36
455.372
98.4059
258.303
4032.16
1790.99
597.631
173.486
3445.51
736.876
513.682
636.587
507.383
322.076
364.986
611.074
476.725
136.012
844.823
767.639
125.012
16.2643
692.238
743.827
35.3651
621.795
106.246
290.605
51.6305
762.686
30.0833
298.414
5187.54
631.384
5586.58
521.322
7638.18
1407.12
362.189
498.176
465.511
412.611
290.46
721.535
437.306
63.1726
714.896
1177.07
45.7307
64.7449
771.933
694.876
144.732
1138.91
8.48624
346.055
652.205
2042.13
35.5175
724.049
9434.54
4252.38
4973.3
1045.16
10484.4
6800.17
81.0784
2179.2
1310.19
195.827
24.7867
2739.06
2388.37
11.8541
764.865
207.744
8.44588
21.1338
352.861
160.003
2635.18
1359.52
85.0596
2530.68
3363.38
648.491
171.996
1008.41
5267.5
4581.83
2236.41
1754.75
401.352
1892.16
41.3184
1000.65
342.834
170.867
55.8926
396.67
234.555
104.583
117.531
163.028
36.3542
200.615
115.509
86.2779
946.824
476.578
909.904
592.634
402.335
280.739
1042.66
3334.59
661.711
2459.36
401.3
501.89
764.209
620.915
64.7816
429.808
542.362
211.001
167.618
186.638
646.068
283.86
319.864
188.379
117.679
119.015
217.632
186.465
1260.52
980.481
1561.73
96.0395
143.98
374.714
532.202
549.888
114.887
53.7138
232.614
136.408
9.68584
16.6249
398.27
75.0122
167.775
90.6505
253.796
58.5588
24.628
78.5651