/*--------------------------------*- C++ -*----------------------------------*\
| =========                 |                                                 |
| \\      /  F ield         | OpenFOAM: The Open Source CFD Toolbox           |
|  \\    /   O peration     | Version:  5.x                                   |
|   \\  /    A nd           | Web:      www.OpenFOAM.org                      |
|    \\/     M anipulation  |                                                 |
\*---------------------------------------------------------------------------*/
FoamFile
{
    version     2.0;
    format      ascii;
    class       surfaceScalarField;
    location    "7";
    object      phi;
}
// * * * * * * * * * * * * * * * * * * * * * * * * * * * * * * * * * * * * * //

dimensions      [0 3 -1 0 0 0 0];

internalField   nonuniform List<scalar> 
29271
(
-7.37725e-06
1.09681e-06
4.66013e-06
1.66764e-06
-2.16673e-05
8.59848e-06
-1.50276e-05
2.81269e-05
-4.81016e-05
-5.83515e-06
-2.46409e-06
-3.35567e-06
7.60828e-06
5.21483e-05
-4.99583e-05
-1.71401e-05
1.19607e-05
-2.44143e-05
1.61071e-05
6.3445e-05
-3.01298e-05
-6.59643e-07
-2.19137e-06
6.87831e-06
1.17368e-05
1.43656e-05
-4.24599e-05
1.90251e-06
-1.22435e-05
2.00311e-05
4.48009e-06
2.82897e-05
-4.66048e-05
-7.5772e-06
-1.26355e-05
9.86629e-07
1.41143e-05
5.17166e-05
-5.50678e-05
-1.73143e-05
1.82193e-05
-4.46929e-05
1.5845e-05
8.30106e-05
-5.26942e-05
-1.35834e-05
4.71301e-05
-2.25025e-05
1.81177e-05
2.35323e-05
-3.34384e-05
-5.31619e-06
1.91789e-06
3.04227e-05
6.49115e-06
-1.1025e-05
-2.95386e-06
9.6961e-06
4.40918e-06
-4.35707e-05
-1.10454e-05
-1.28086e-05
6.82879e-06
9.49694e-06
5.1099e-05
-5.43638e-05
-1.61754e-05
-4.11286e-06
-2.50187e-06
1.12213e-05
6.59327e-05
-5.16994e-05
-1.10279e-05
1.62674e-05
-3.60241e-05
7.58519e-06
7.48989e-05
-4.96287e-05
-2.01736e-05
4.77822e-05
-2.67661e-05
1.28757e-05
3.59105e-05
-2.01601e-05
1.57724e-06
1.21543e-06
2.55471e-06
7.26434e-06
7.54838e-06
-5.27057e-05
1.56313e-07
-3.91068e-06
1.59375e-07
5.84512e-05
-2.15052e-06
-4.42135e-05
4.14905e-06
-2.35202e-06
-2.37868e-06
-1.57506e-06
4.63702e-05
-4.89557e-05
-1.2955e-06
5.46563e-06
-1.3389e-05
6.98666e-07
5.74759e-05
-4.32141e-05
-2.9711e-05
1.50085e-05
4.73207e-05
-1.54186e-05
2.60145e-05
-1.40978e-05
-4.28682e-06
1.23994e-05
6.18428e-06
-3.58374e-05
8.65388e-06
-8.01706e-06
3.05695e-05
4.63332e-06
-4.78647e-05
4.85806e-07
4.06264e-06
-9.17176e-07
4.59433e-05
-1.70981e-06
-1.85351e-05
-1.38311e-06
-3.90229e-06
2.38225e-05
2.93897e-08
-9.53404e-07
1.3247e-06
-4.00784e-07
-2.94305e-05
6.49368e-07
8.89526e-06
1.98936e-05
-5.06585e-06
-2.52379e-07
-4.39027e-05
2.26723e-06
1.14747e-05
3.5479e-05
-1.22742e-05
-6.65608e-05
-3.18613e-06
-2.50536e-06
2.41307e-05
6.03958e-05
-5.29773e-06
-1.00585e-06
-9.91069e-07
1.5442e-06
1.45932e-06
4.29113e-06
-7.63099e-06
2.12622e-07
-1.37211e-05
7.96104e-07
9.37459e-06
1.09688e-05
-3.13357e-05
5.64768e-05
0.000344863
-5.98255e-05
-7.59778e-05
-6.42471e-05
-8.35878e-05
-2.14265e-05
-2.32756e-05
-2.6712e-05
-2.10103e-05
-2.54532e-06
-3.93456e-08
8.33291e-07
7.80967e-06
-4.59883e-05
2.6905e-05
0.00030886
-9.07125e-05
-2.8238e-05
-9.30811e-05
-3.55882e-05
-2.67321e-05
-1.07229e-05
-2.13134e-05
-1.47239e-05
-9.04071e-06
1.06982e-05
5.03796e-05
-4.90353e-07
-5.31489e-07
-5.47579e-07
-4.61452e-07
-6.59907e-06
-6.45976e-06
-5.37884e-06
-1.40418e-05
-2.71902e-05
-1.37949e-05
-2.25299e-05
-3.26271e-05
9.62631e-07
-3.70394e-06
2.64838e-05
-1.54934e-06
-1.37133e-06
2.50132e-06
4.29187e-07
-2.73284e-06
-5.70674e-05
-5.41168e-06
-1.86493e-07
3.29551e-06
6.21029e-05
-4.14765e-05
-4.07915e-06
0.000415293
-7.63063e-05
-9.44596e-05
-7.68344e-05
-7.9805e-05
8.93523e-07
3.13504e-07
6.56034e-06
6.37722e-06
-4.95109e-05
-3.2517e-05
0.00035637
-8.9142e-05
-5.10043e-05
-8.6552e-05
-6.22158e-05
-7.99504e-06
-8.90701e-06
0.000128895
-5.98651e-06
-6.27239e-06
-5.49791e-06
-5.69224e-06
-1.52888e-05
-1.51545e-05
-2.41113e-05
-2.0992e-05
-2.74535e-05
-2.43563e-05
-6.19755e-06
-1.19691e-06
-8.27902e-06
3.70404e-06
3.9744e-06
-6.6307e-05
3.83337e-06
-7.95972e-06
-4.12442e-06
7.39188e-05
6.38942e-07
-2.09255e-05
-2.71718e-06
0.000150595
1.28217e-05
1.61123e-05
2.04193e-05
1.93857e-05
-4.73049e-06
-5.65534e-07
-4.02021e-06
-4.76776e-05
-5.63613e-05
-4.52025e-05
-4.12127e-05
8.15556e-07
-1.13888e-06
0.000128551
2.16069e-06
1.08296e-05
8.27654e-06
1.15516e-06
-1.15901e-06
2.14192e-06
-5.53493e-05
-6.48564e-05
-3.44263e-05
-5.0443e-05
-3.97954e-05
-3.3466e-06
-7.51276e-06
4.25633e-05
-3.48113e-06
-1.22594e-06
3.65088e-06
1.14127e-06
-2.83587e-05
1.5837e-05
-1.68084e-05
2.66113e-05
-4.34041e-05
3.62268e-06
4.36121e-06
-9.22137e-07
3.52035e-05
-2.62122e-05
7.3338e-06
-6.89685e-06
2.57716e-05
4.36905e-07
-4.05241e-07
4.14375e-07
-3.82908e-07
-8.45232e-06
-1.18785e-06
7.03959e-06
2.70281e-06
-5.3979e-06
1.37686e-06
-2.14491e-05
2.00961e-06
8.34706e-06
1.51135e-05
-2.61406e-06
-4.50076e-05
-4.75471e-06
5.59903e-06
1.92886e-05
2.74887e-05
-1.37653e-06
-4.28515e-07
2.91592e-07
3.94757e-06
3.6512e-07
-2.79923e-06
-9.68336e-06
-1.67204e-06
-1.73292e-05
7.11256e-07
3.64162e-07
2.76092e-05
-2.38388e-05
3.00414e-05
0.000386263
-1.32294e-05
-1.97924e-05
-7.89685e-06
-1.42792e-05
-1.90166e-07
1.15494e-06
3.02155e-06
3.60915e-06
-2.38957e-05
1.05395e-06
0.00037238
-1.88055e-05
-1.69331e-05
-1.43965e-05
-1.43819e-05
-6.17307e-06
-1.69259e-05
7.1961e-05
-4.38063e-06
-2.83199e-07
-3.17297e-06
-1.91065e-07
-5.10928e-06
-4.92896e-06
-4.312e-06
-2.02905e-05
-7.42111e-08
1.94833e-07
1.39945e-05
2.00228e-07
6.84928e-07
-3.38689e-07
-5.23616e-07
-3.72215e-06
-7.19738e-05
8.80806e-06
-3.27043e-06
-7.63514e-06
7.77935e-05
-1.67279e-05
-9.12785e-06
0.000447581
3.7369e-06
4.39445e-06
8.39647e-06
7.08206e-06
-2.56343e-05
-2.25984e-05
0.000388669
-3.19286e-06
-1.93495e-05
0.000168604
-3.37743e-06
-3.02962e-06
-2.65215e-06
-2.04528e-05
-1.45581e-05
-1.56575e-05
-6.82232e-07
-6.93084e-07
-1.98679e-06
5.3557e-07
-3.66331e-07
-8.42702e-05
7.33275e-06
-1.29764e-05
-8.91061e-06
9.22203e-05
6.60418e-06
-1.42719e-06
-1.84399e-06
9.88698e-05
1.28085e-05
1.30805e-05
1.27499e-05
1.16025e-05
-2.11061e-06
-9.7647e-07
-1.28585e-06
2.85987e-06
-5.34722e-06
0.00011705
2.03151e-06
2.30645e-06
1.56402e-06
-3.66243e-06
-3.59582e-06
-8.68158e-06
-4.72281e-05
5.37087e-06
-1.69583e-05
4.2326e-05
-1.22335e-06
2.48295e-06
-2.92188e-06
1.67505e-06
-2.16577e-05
1.39994e-05
-5.5649e-06
1.14029e-05
-2.91738e-05
-2.73987e-07
6.03714e-06
-1.95679e-06
2.00202e-05
-2.37735e-05
8.90067e-06
-5.09924e-06
1.99761e-05
2.76411e-07
-1.64662e-07
6.74881e-07
-7.55219e-07
-1.36283e-07
3.09385e-07
7.95943e-07
-9.62443e-07
-2.83559e-06
9.60274e-07
-1.18521e-05
-6.29311e-07
4.6833e-06
9.67347e-06
-1.71819e-06
-1.60383e-05
-9.24672e-07
9.2598e-07
7.38932e-06
1.03659e-05
2.15124e-07
-7.54141e-08
1.3939e-07
8.16219e-07
-7.48786e-07
-3.46532e-07
2.70684e-06
-1.7908e-06
-4.25701e-05
1.77297e-06
-1.6623e-05
5.65041e-05
-2.53506e-05
1.49516e-06
0.000423528
-4.22305e-06
-7.74811e-06
-1.73125e-06
-3.59997e-06
9.75484e-07
-6.80148e-07
1.91962e-06
1.67822e-06
-2.34081e-05
-1.04998e-05
0.000419312
-1.30995e-05
-1.35496e-05
-6.30594e-06
-5.42002e-06
-3.81327e-06
-4.22798e-05
0.000106422
-3.96855e-06
4.22665e-08
-5.9945e-07
1.01851e-07
-3.12005e-06
-2.11826e-06
-2.11429e-06
-8.26175e-06
-1.08738e-07
5.59394e-07
3.96418e-06
4.13846e-07
5.6272e-07
-7.70635e-07
-1.74285e-07
-4.56029e-06
-8.42022e-05
2.20548e-05
-1.30737e-06
-1.68642e-05
8.48793e-05
-1.32117e-06
-8.14895e-06
0.000439926
5.02194e-06
2.04643e-06
8.11486e-06
3.4367e-06
-5.74834e-06
-2.25942e-05
0.00040519
-6.60746e-07
-1.58804e-05
0.000168382
-7.05733e-07
-3.29032e-07
-3.97314e-07
-9.84334e-06
-1.24768e-05
-7.51203e-06
1.20058e-06
-6.52261e-08
-2.48302e-07
-6.79244e-07
-8.6855e-07
-9.62235e-05
4.70591e-06
-9.25537e-06
-6.85385e-06
9.92745e-05
8.35234e-06
5.03154e-06
-1.22279e-07
7.62398e-05
3.87509e-06
4.05449e-06
9.98239e-07
1.04248e-06
-2.86846e-07
2.22829e-08
-1.33957e-07
-4.63272e-06
-5.27575e-06
0.000139726
-4.06343e-06
-3.78388e-06
-2.84946e-06
-1.09666e-05
-3.76556e-06
-4.90059e-06
-4.43923e-05
-9.34606e-07
-1.65024e-05
4.13163e-05
-1.23916e-06
1.20756e-06
-5.10906e-07
5.70021e-07
-3.55786e-06
4.67702e-06
-8.83639e-07
-3.09235e-07
-1.71768e-05
1.28062e-06
-5.9749e-06
-7.33507e-07
1.73288e-05
-1.45871e-05
6.05378e-06
2.45896e-06
6.11426e-06
1.02432e-06
2.74036e-07
-2.92757e-07
-9.73955e-07
1.28112e-06
9.27664e-07
-1.93444e-06
-3.88016e-07
1.48002e-06
-4.50557e-07
-1.01562e-05
-1.6663e-07
-1.91563e-06
1.1209e-05
5.09626e-07
-8.2747e-06
-1.50102e-07
1.30884e-07
9.16602e-07
6.86769e-06
5.12407e-07
3.09365e-07
-2.26389e-07
-3.66931e-07
-2.30294e-07
1.84186e-09
1.47462e-05
2.80113e-06
-6.76505e-05
-1.11257e-06
-2.62307e-05
7.74465e-05
-1.48852e-06
-4.32417e-05
0.000432478
6.92369e-06
3.82284e-06
1.13041e-05
7.45911e-06
1.1887e-06
-5.16649e-07
2.55669e-06
3.042e-06
-3.73267e-06
-1.58653e-05
0.000433675
-3.90584e-06
1.31202e-06
3.48524e-06
2.85447e-06
-2.05074e-07
-4.0749e-05
0.000141487
-2.41067e-07
3.77524e-07
6.60121e-07
5.89716e-07
5.86088e-09
2.68033e-07
4.96588e-07
-1.43011e-06
-6.94696e-08
1.14361e-07
1.10595e-06
-8.57139e-08
4.55052e-07
-9.93641e-07
6.15191e-07
-3.59129e-06
-8.28492e-05
3.68007e-05
2.9413e-06
-2.71852e-05
7.38837e-05
2.37187e-05
-1.55637e-06
0.000381696
3.15447e-06
-3.90487e-06
3.84703e-06
-1.0271e-05
2.23073e-05
4.63266e-06
0.000386104
1.7498e-06
-8.00894e-06
0.000158187
1.32193e-06
2.03379e-06
1.77247e-06
-3.62254e-06
-9.93495e-07
-2.49966e-06
9.7262e-07
6.70732e-07
1.1399e-06
-9.2751e-07
-1.05935e-07
-9.77719e-05
-2.90074e-06
1.28462e-06
-9.88304e-07
9.33474e-05
7.02901e-06
1.29676e-05
-5.04974e-08
0.000110508
-9.29828e-06
-6.72121e-06
-2.10927e-05
-1.33289e-05
5.41571e-07
6.86677e-08
1.08965e-06
-5.37917e-06
-1.21366e-07
0.00016985
-1.71114e-06
-5.83922e-06
-2.23376e-06
3.25955e-07
1.24106e-06
1.19399e-06
-3.72442e-05
-4.25447e-06
-4.17925e-06
3.22898e-05
1.36331e-07
1.4021e-07
1.77874e-07
-4.67246e-07
8.78829e-07
-2.23112e-06
7.88229e-07
5.49322e-07
-1.88223e-05
1.12006e-06
-3.50664e-06
2.30223e-07
2.08573e-05
-1.11916e-06
2.24479e-07
1.16446e-06
-2.54965e-07
3.14703e-07
-1.31009e-06
-2.19025e-06
3.12065e-06
-2.50917e-06
4.4465e-06
-8.98246e-06
6.97012e-06
7.3709e-06
-1.54714e-06
-1.45155e-05
2.56124e-07
-1.28069e-05
2.12425e-05
5.58285e-06
-8.91127e-06
-1.3012e-06
2.34079e-06
-8.08762e-06
1.03764e-05
-1.08606e-07
4.94516e-07
-5.86046e-07
-3.97911e-07
1.9427e-06
-1.34466e-06
2.51387e-05
8.782e-06
-8.5008e-05
-5.79471e-06
-2.78138e-05
8.46957e-05
1.0665e-05
-1.81545e-05
0.000369604
1.4597e-05
9.67493e-06
1.60951e-05
1.4326e-05
3.85849e-06
1.11926e-06
4.89197e-06
5.79978e-06
2.37736e-05
-5.98117e-06
0.000406824
2.67981e-06
2.95435e-06
7.45911e-06
6.63088e-06
2.86948e-06
-3.53562e-05
0.000168208
4.56126e-06
3.08718e-06
7.51723e-06
2.90254e-06
4.22055e-06
2.5063e-06
4.74461e-06
-1.06997e-06
2.02937e-07
1.63045e-06
-1.67056e-07
2.27312e-06
-1.75976e-07
7.10128e-09
5.36129e-08
1.15077e-07
-1.34082e-06
-1.12789e-06
-6.94457e-07
3.06211e-06
6.75664e-06
-6.00516e-05
2.11009e-05
-3.10939e-06
-9.86794e-06
4.51715e-05
1.06427e-05
2.00267e-05
0.000325834
2.87037e-07
-3.39919e-06
6.65683e-06
3.49391e-06
2.08754e-05
3.42937e-05
0.000335596
3.58352e-06
3.49561e-06
0.000119066
3.2785e-06
5.84713e-06
3.32077e-06
4.11818e-07
4.50832e-06
1.93789e-07
-1.72943e-07
7.62232e-07
9.47677e-07
-1.11964e-06
3.16619e-06
1.32277e-09
-1.01501e-07
6.33804e-09
-1.15871e-07
2.1254e-07
-8.19029e-05
-3.05835e-06
7.62082e-06
1.2461e-05
6.382e-05
1.05955e-06
7.62201e-06
1.71738e-06
0.000166459
-1.57708e-05
-2.3174e-05
-5.82608e-06
-1.12042e-05
2.58841e-06
2.98807e-06
5.13423e-06
-8.41562e-06
4.4081e-06
0.000204304
-3.73334e-06
-3.83254e-06
-3.06929e-06
5.80798e-06
6.26954e-06
1.00271e-05
-2.7333e-05
-1.87982e-06
4.07148e-06
2.02213e-05
6.44252e-07
-4.35766e-09
3.59549e-08
-6.80062e-07
-2.74406e-06
-3.76241e-06
1.60929e-06
6.56511e-06
-2.1657e-05
3.82187e-07
-1.0367e-06
3.54795e-06
2.31717e-05
6.46656e-07
-1.65287e-06
1.38574e-06
-4.63856e-07
-9.09305e-06
-5.54395e-06
1.13114e-06
1.35096e-05
-1.17056e-05
1.09625e-06
-7.88219e-06
1.84248e-05
1.76465e-05
2.39785e-06
-2.95658e-05
5.47329e-07
-1.99083e-05
2.88824e-05
4.30323e-06
-1.20839e-05
-8.4857e-07
3.85891e-07
-6.63057e-06
1.48739e-05
-5.49485e-06
4.99293e-06
-1.08434e-06
-9.94758e-06
1.18631e-05
-3.29276e-07
1.76609e-05
1.51217e-05
-8.1966e-05
-1.44684e-05
-1.01722e-05
7.3824e-05
8.8264e-06
2.0329e-05
0.000304453
9.38928e-06
2.83618e-06
6.16003e-06
4.07663e-06
3.76513e-06
4.4468e-06
2.51125e-06
2.81057e-06
3.41694e-05
5.81071e-06
0.00034536
4.09897e-06
6.7584e-06
8.56349e-06
1.08891e-05
4.10558e-06
-1.12045e-05
0.000153083
1.12702e-05
3.9218e-06
1.16479e-05
5.1047e-06
6.87732e-06
4.74299e-06
1.28277e-05
-3.35694e-06
8.04214e-07
3.37285e-06
-9.86992e-08
3.38416e-06
-3.88155e-07
2.82837e-07
-1.93959e-06
5.46046e-07
5.38276e-08
1.44504e-06
-7.12525e-06
-6.77629e-06
2.87399e-07
1.355e-05
5.60443e-06
-3.85248e-05
-4.01671e-06
-8.23788e-06
4.7037e-06
4.04712e-05
-1.57439e-05
2.85343e-05
0.000302963
5.77166e-06
6.96131e-06
8.29989e-06
9.37661e-06
5.92978e-06
5.19278e-05
0.000267805
6.42754e-06
2.42368e-06
7.71781e-05
3.06823e-06
1.29949e-05
3.21263e-06
1.11e-06
5.35017e-06
2.02636e-06
-7.30057e-06
4.17981e-07
3.60022e-06
-1.21621e-06
1.09261e-05
-1.27205e-06
2.98051e-07
-1.01e-06
-1.01771e-06
-1.0759e-06
4.07761e-06
-4.62171e-05
4.43527e-06
5.40074e-07
-5.39613e-06
4.42678e-05
2.37005e-06
-6.89785e-06
3.87517e-06
0.00019112
-1.48054e-06
-2.62837e-06
3.10447e-06
-2.71093e-06
3.36468e-06
4.19066e-06
3.056e-06
-2.08275e-06
1.00201e-05
0.00021005
-9.93576e-07
5.94391e-08
1.66918e-06
1.0009e-05
1.06198e-05
9.98239e-06
-1.59042e-05
1.50272e-07
3.21391e-06
1.2881e-05
7.37587e-07
-2.59092e-07
-1.34234e-07
1.58525e-07
-6.82816e-07
6.24401e-07
-3.59372e-07
6.0478e-07
-1.00182e-06
-1.13101e-05
-9.94795e-07
-3.48816e-06
1.96423e-05
-2.69384e-05
4.13341e-06
-3.57801e-06
2.56536e-06
3.38378e-05
-4.493e-07
-1.73231e-06
-1.51328e-06
3.50008e-06
-1.5879e-05
-3.69732e-06
2.4038e-06
1.71748e-05
-3.10061e-05
-6.05727e-07
-7.72982e-06
3.9243e-05
8.50641e-06
-1.15203e-06
-2.21329e-05
1.83603e-06
-5.63749e-06
1.858e-05
5.25542e-07
-2.27297e-05
1.32129e-06
-2.55288e-06
-5.041e-06
2.84768e-05
-1.82565e-05
6.05242e-06
-1.32221e-06
-8.12171e-06
1.96875e-05
1.96043e-06
2.669e-06
1.18453e-05
-5.74726e-05
-5.9194e-06
4.95363e-06
4.39241e-05
-1.01163e-05
1.5238e-05
0.000269275
1.8027e-06
3.04117e-06
1.51782e-06
3.68554e-06
2.2766e-06
5.74539e-06
4.24758e-06
7.73979e-06
1.45586e-05
3.68874e-06
0.000278012
8.21291e-06
7.53765e-06
1.16013e-05
1.16329e-05
3.55499e-06
4.52576e-06
0.000121894
5.08537e-06
2.30641e-06
6.60149e-06
5.80671e-06
9.18391e-06
3.21956e-06
5.46351e-06
-4.96477e-06
9.11789e-07
1.9093e-06
6.92983e-07
5.00568e-06
-8.84619e-07
1.03306e-06
-1.94206e-06
2.37077e-06
-1.53516e-06
9.58002e-07
-1.70957e-05
-6.42966e-06
4.45401e-06
1.90713e-05
3.51661e-06
-4.37557e-05
-5.89454e-06
-5.684e-06
5.46859e-06
4.6349e-05
-2.09503e-05
2.04297e-05
0.000291644
6.61034e-06
6.01472e-06
7.37791e-06
7.07427e-06
5.25522e-06
3.41734e-05
0.000211115
4.89962e-06
5.81509e-06
6.29635e-05
1.29235e-06
5.89987e-07
2.36955e-07
3.00322e-06
5.51777e-06
2.64064e-06
-1.43245e-05
-3.54776e-06
6.62008e-06
3.91224e-06
1.22396e-05
-8.21757e-06
-8.79924e-07
-4.96114e-06
5.14418e-07
2.45167e-06
1.10925e-05
-5.27392e-05
1.55369e-07
-3.18807e-06
-2.03897e-08
5.82038e-05
-2.41151e-06
-8.28802e-06
2.47633e-06
0.000199275
2.57372e-06
1.08302e-06
3.71054e-06
1.95307e-06
2.13588e-06
3.52337e-06
3.10644e-06
1.13971e-06
6.86262e-06
0.000195332
3.96499e-06
2.22335e-06
4.4783e-06
7.65734e-06
6.78567e-06
7.49134e-06
-1.39616e-05
1.13016e-06
1.89978e-06
1.78865e-05
-1.93714e-07
-2.97877e-06
1.52668e-06
-1.4027e-06
3.03693e-06
1.06367e-06
-1.68525e-06
6.81923e-07
1.81416e-08
-1.37936e-07
-2.61964e-05
4.09421e-06
-6.05177e-06
3.06018e-05
-3.7675e-05
4.05401e-06
6.08387e-07
3.12044e-06
3.67548e-05
-9.61686e-06
3.9617e-06
-7.11027e-06
1.27592e-05
-1.8099e-05
-3.11724e-06
2.53426e-06
1.86819e-05
-4.16278e-05
4.33982e-07
-2.29099e-06
4.34871e-05
2.97857e-06
1.62033e-06
-1.58028e-05
-4.60268e-06
1.3441e-06
1.44625e-05
2.72842e-07
-3.2475e-05
6.94168e-06
-2.747e-06
-7.73911e-06
3.57466e-05
-2.12003e-05
1.86659e-06
-5.51213e-07
-2.44448e-06
2.18208e-05
5.08633e-07
1.24919e-06
5.50319e-06
-3.94093e-05
-3.61999e-06
-4.234e-07
3.67003e-05
-7.13239e-06
1.3069e-05
0.000266705
-1.51917e-06
-1.70274e-07
-4.28016e-06
-1.52652e-06
2.3872e-06
2.20757e-06
-1.1165e-06
6.51137e-07
-1.15738e-05
1.72807e-06
0.000261727
5.99232e-06
5.54315e-06
4.36855e-06
3.09393e-06
-4.2394e-07
1.5777e-06
0.000110234
3.48275e-06
2.89806e-06
2.46618e-06
6.72508e-07
4.98603e-07
-8.60971e-06
-2.47517e-06
-6.70685e-06
2.30896e-06
-2.28879e-06
-1.86648e-06
8.12922e-06
-6.90727e-06
6.38795e-06
-5.12989e-06
-1.07052e-06
6.72311e-06
-2.03032e-05
-4.42914e-06
3.30245e-06
2.14299e-05
8.54626e-07
-4.89766e-05
-1.27216e-07
-3.80743e-06
1.23295e-06
5.08236e-05
-1.67463e-05
1.70344e-05
0.000285649
4.20099e-06
4.11622e-06
5.07828e-06
5.38025e-06
-1.1895e-05
2.11082e-05
0.000186884
-1.77795e-07
3.72152e-06
5.40938e-05
-2.33375e-06
-8.30611e-07
-6.54996e-06
1.22402e-06
3.44866e-06
5.02471e-08
-8.86771e-06
-9.0063e-07
4.91788e-07
3.73237e-06
5.36639e-06
-8.86274e-06
7.52374e-07
-9.38855e-07
1.70494e-06
1.76608e-06
5.5782e-06
-6.1419e-05
4.7438e-07
-1.83962e-06
4.19484e-07
6.3365e-05
-1.00022e-06
-6.74672e-06
2.64097e-06
0.000209051
1.37784e-06
6.3157e-07
2.29195e-06
2.29289e-07
2.35822e-06
2.17128e-06
2.30432e-06
-5.44427e-07
6.31093e-06
0.000186187
1.89287e-06
-2.29156e-06
2.91762e-07
6.29284e-06
5.9726e-06
5.58122e-06
-2.15276e-05
1.1002e-06
2.25407e-06
2.13504e-05
-6.02782e-06
-4.889e-06
3.12038e-06
7.79737e-06
-3.51816e-05
2.32666e-06
-3.31807e-06
3.8814e-05
-3.55519e-05
3.0836e-06
-1.57994e-06
5.13459e-06
3.52246e-05
-1.59471e-05
2.11299e-06
-3.96759e-06
1.78017e-05
-1.9029e-05
-3.03738e-06
2.90942e-06
1.9157e-05
-4.48904e-05
3.83719e-07
-7.99714e-07
4.53057e-05
1.70812e-06
8.44491e-07
-1.42102e-05
-5.85023e-06
2.8459e-06
1.46619e-05
-8.9983e-07
-3.62597e-05
7.80586e-06
-3.02851e-06
-3.6836e-06
3.60658e-05
-2.17083e-05
-1.51781e-07
5.308e-07
8.975e-09
2.11134e-05
2.069e-07
-5.66086e-07
3.16169e-06
-3.25393e-05
5.49297e-07
-9.75212e-07
3.03696e-05
-8.1424e-06
1.51936e-05
0.000266705
-3.35723e-06
-2.09826e-06
-1.92586e-06
-7.4471e-08
-8.88759e-07
4.97178e-09
-9.17886e-08
1.3801e-06
-1.68121e-05
4.59092e-06
0.000258356
2.22978e-06
9.69452e-07
2.95842e-06
1.29252e-06
-8.07998e-06
6.3875e-07
0.000108374
1.30384e-06
-1.71244e-08
1.948e-06
-1.65362e-07
-3.5404e-06
-5.9726e-06
-1.06811e-06
-1.33338e-05
-1.93093e-06
-1.90314e-06
9.0876e-06
-2.20362e-05
-3.4346e-06
3.10318e-06
2.23676e-05
-2.7817e-07
-5.20164e-05
2.75666e-06
-2.05202e-06
-1.17976e-06
5.27697e-05
-1.61394e-05
1.34206e-05
0.000287283
3.15368e-06
3.12198e-06
4.92173e-06
5.08161e-06
-1.95024e-05
1.37551e-05
0.000181083
-2.61938e-06
1.37641e-06
5.1011e-05
-7.30727e-06
-1.03882e-06
-5.36078e-06
-9.69254e-07
1.34618e-06
-1.208e-06
-9.43494e-06
-6.1877e-07
-3.57351e-06
2.69816e-06
8.30968e-06
-6.55754e-05
-9.08138e-07
-1.17487e-06
2.69979e-07
6.78173e-05
-4.28951e-07
-7.5913e-06
1.47419e-06
0.000221935
7.6064e-07
-4.48041e-07
2.05475e-06
2.47327e-09
1.19405e-06
1.55775e-06
1.53183e-06
-4.22162e-06
3.61591e-06
0.000186071
-8.1729e-07
-3.3615e-06
-1.07859e-06
4.39662e-06
3.53318e-06
4.21278e-06
-2.11869e-05
-1.42675e-06
4.43619e-07
1.93248e-05
-7.53414e-06
3.28843e-07
2.60413e-06
4.60141e-06
-4.12546e-05
1.32659e-06
-1.78064e-06
4.31828e-05
-3.7911e-05
1.70364e-06
-2.07027e-06
2.29082e-06
3.96027e-05
-1.87283e-05
1.32665e-06
-1.59857e-06
1.90027e-05
-1.91201e-05
-2.96542e-06
3.1371e-06
1.89484e-05
-4.53764e-05
-3.63787e-07
5.06094e-07
4.52341e-05
1.11936e-06
1.55046e-06
-1.55798e-05
-5.59469e-06
1.90228e-06
1.66024e-05
-1.01452e-06
-3.55741e-05
6.14246e-06
-1.92912e-06
-2.24073e-06
3.4616e-05
-2.06229e-05
-9.64787e-07
1.17165e-06
6.30203e-07
2.00994e-05
-3.13513e-07
-1.05483e-06
2.18421e-06
-2.9686e-05
-8.70589e-08
-1.46844e-06
3.01122e-05
-1.17321e-05
1.52778e-05
0.000255371
-7.12411e-07
-6.29263e-07
4.77614e-07
3.38212e-07
1.30983e-06
1.61987e-06
2.02928e-06
3.35563e-06
-8.76489e-06
6.89307e-06
0.000245386
1.13799e-06
-9.2523e-07
2.14622e-06
7.50294e-07
-2.76487e-06
1.5851e-06
0.000102079
8.12749e-07
-1.28643e-06
1.21785e-06
-1.82142e-06
3.23112e-08
-3.7161e-07
1.27374e-07
-6.33169e-06
-3.61155e-06
9.85029e-07
6.19335e-06
-2.23671e-05
-2.54613e-06
2.69066e-06
2.22248e-05
-6.44742e-07
-5.39591e-05
3.47324e-06
-1.65477e-06
-2.50782e-06
5.52932e-05
-1.25588e-05
1.35361e-05
0.000285945
3.07131e-06
2.7437e-06
5.06062e-06
4.76292e-06
-1.16358e-05
1.28858e-05
0.000174167
-6.00237e-07
3.8458e-08
5.20537e-05
-4.04245e-06
-7.85752e-07
-3.08733e-06
-1.84036e-06
6.32839e-07
-1.40847e-06
-8.16012e-06
-9.83474e-07
-1.03846e-06
6.62006e-07
8.91981e-06
-7.0466e-05
-1.62108e-06
-6.17726e-07
-3.47534e-08
7.2288e-05
4.51489e-07
-7.93221e-06
1.33765e-06
0.000235695
4.59569e-07
-4.71994e-07
2.05892e-06
-5.16521e-08
1.09845e-06
1.48534e-06
1.79222e-06
-3.21312e-06
2.83302e-06
0.00018273
-9.25542e-07
-1.62123e-06
-2.51432e-07
3.87472e-06
3.4605e-06
4.13858e-06
-1.8679e-05
-5.1203e-07
-1.0954e-06
1.71118e-05
-3.2111e-06
1.94729e-06
-1.42816e-06
2.69085e-06
-4.49647e-05
5.13675e-07
-9.08005e-07
4.66967e-05
-4.11683e-05
1.27245e-06
-1.54965e-06
1.88288e-06
4.23957e-05
-1.92139e-05
1.67795e-06
-1.74177e-06
1.92777e-05
-1.8742e-05
-3.01133e-06
3.23e-06
1.85234e-05
-4.50113e-05
-4.42486e-07
7.47557e-07
4.47063e-05
1.34296e-06
1.02455e-06
-1.80205e-05
-3.74192e-06
3.55244e-09
1.93913e-05
1.34448e-08
-3.29019e-05
4.29783e-06
-2.44104e-07
-1.39219e-06
3.02269e-05
-1.97819e-05
-2.42943e-06
4.09912e-06
1.16809e-06
1.94679e-05
-2.52382e-06
-1.10567e-06
1.80343e-06
-3.12448e-05
-4.52694e-07
-1.83594e-06
3.28357e-05
-1.01893e-05
1.5066e-05
0.000241176
7.84912e-07
-1.45993e-06
1.27225e-06
1.64704e-07
1.72232e-06
2.07528e-06
1.45402e-06
3.30416e-06
-4.28247e-06
8.59451e-06
0.000231596
-9.4615e-07
-8.08822e-07
7.24132e-07
3.19947e-07
1.08897e-06
5.87593e-06
9.68968e-05
-7.6543e-07
-3.13984e-06
-1.51522e-06
-3.57413e-06
5.79235e-07
1.77265e-06
5.77062e-07
-7.43686e-06
-5.37552e-06
4.99366e-06
8.90769e-06
-2.21754e-05
-2.16769e-06
2.16028e-06
2.21831e-05
-2.16774e-07
-5.67438e-05
3.66414e-06
-1.74981e-06
-2.87243e-06
5.79187e-05
-1.03584e-05
1.3829e-05
0.000283188
2.97537e-06
2.32934e-06
4.81834e-06
4.22867e-06
-8.23797e-06
1.00407e-05
0.0001706
-7.29739e-07
3.9128e-07
5.52157e-05
-2.51302e-06
-1.05306e-06
-2.5017e-06
-5.77031e-07
1.27153e-06
1.87676e-07
-9.68973e-06
-3.31186e-06
-1.61323e-06
3.41009e-06
1.0475e-05
-7.44693e-05
-1.99606e-06
8.12858e-08
-4.69733e-07
7.5899e-05
9.54771e-07
-5.35248e-06
1.3298e-06
0.000246643
1.42931e-07
-4.60937e-07
1.82764e-06
-1.01845e-07
1.66599e-06
1.41547e-06
2.41466e-06
-2.14295e-06
2.44874e-06
0.000177722
1.96042e-07
-1.36448e-06
4.67892e-07
3.64057e-06
2.85483e-06
3.59488e-06
-1.70684e-05
2.91451e-07
-1.38182e-06
1.64071e-05
-2.60511e-06
-1.58966e-07
-3.49018e-07
3.11309e-06
-4.8057e-05
-3.44544e-07
5.26702e-07
4.92056e-05
-4.42588e-05
3.83598e-07
-9.30732e-07
1.46121e-06
4.57934e-05
-1.93936e-05
1.89572e-06
-1.87155e-06
1.93714e-05
-1.81497e-05
-2.6619e-06
3.28504e-06
1.75265e-05
-4.43424e-05
-5.5697e-07
8.89368e-07
4.401e-05
1.36784e-06
8.1161e-08
-2.06779e-05
-1.2778e-06
-1.27428e-06
2.17809e-05
-4.27582e-07
-2.86245e-05
1.7819e-06
6.36594e-07
-1.83911e-06
2.84727e-05
-1.91155e-05
-5.99725e-06
6.22608e-06
3.77317e-06
1.85299e-05
-3.41634e-06
-1.02378e-06
1.28658e-06
-3.44102e-05
4.3906e-07
-2.0195e-06
3.57278e-05
-8.19525e-06
1.62453e-05
0.00022414
1.21354e-06
-6.01999e-08
1.66795e-06
1.36853e-06
5.3232e-07
1.48262e-06
2.05013e-07
2.57601e-06
-2.26844e-06
1.06305e-05
0.000219155
5.22163e-08
-2.15619e-06
3.90695e-07
-2.40301e-06
2.43439e-06
9.16532e-06
9.44611e-05
-3.68217e-06
-4.27173e-06
-3.93742e-06
-4.3292e-06
9.49625e-07
2.51805e-06
1.32046e-06
-1.01503e-05
-5.58414e-06
6.90569e-06
1.12631e-05
-2.2243e-05
-1.98091e-06
1.89964e-06
2.23242e-05
1.47595e-07
-5.91997e-05
3.56051e-06
-1.89107e-06
-2.81404e-06
6.01967e-05
-8.02776e-06
1.46491e-05
0.000280014
2.7249e-06
1.74583e-06
4.63821e-06
3.68908e-06
-6.45703e-06
7.68508e-06
0.000171975
-1.23498e-06
1.1206e-06
6.01171e-05
-2.6106e-06
-1.25389e-06
-2.46701e-06
8.25099e-07
2.13067e-06
1.29705e-06
-1.11174e-05
-4.88787e-06
-2.57259e-06
5.60782e-06
1.17351e-05
-7.76875e-05
-2.60433e-06
7.00593e-07
-2.77813e-07
7.89935e-05
8.75577e-07
-2.77636e-06
1.48953e-06
0.000255129
-2.58503e-07
-4.45763e-07
1.39751e-06
-2.23883e-07
2.33342e-06
1.71624e-06
2.93107e-06
-1.93096e-06
1.73882e-06
0.000174403
1.03088e-06
-1.19222e-06
1.31875e-06
2.72954e-06
2.06686e-06
2.46659e-06
-1.71611e-05
-3.46024e-07
-9.10604e-07
1.76073e-05
-3.8365e-06
-2.03458e-06
1.22429e-06
4.64679e-06
-5.00254e-05
-9.14581e-07
1.51804e-06
5.09093e-05
-4.80454e-05
-7.82405e-07
-5.59156e-09
6.73691e-07
4.98985e-05
-1.97006e-05
1.71248e-06
-2.02861e-06
2.00167e-05
-1.65074e-05
-2.14753e-06
4.02919e-06
1.46258e-05
-4.36731e-05
-3.15187e-07
9.47734e-07
4.30405e-05
1.16193e-06
-1.7934e-07
-2.2739e-05
-5.09154e-07
-1.80057e-06
2.40661e-05
-4.4825e-06
-2.84279e-05
2.89694e-07
1.97404e-06
3.39499e-06
2.72517e-05
-1.81733e-05
-7.63405e-06
6.84192e-06
5.5e-06
1.81233e-05
-4.65778e-06
-8.98754e-07
1.04689e-06
-3.66421e-05
1.03369e-06
-2.0573e-06
3.75176e-05
-9.74461e-06
1.73666e-05
0.000205823
2.00664e-06
8.61984e-08
2.49282e-06
-8.16762e-08
4.93231e-07
1.77624e-06
7.81291e-07
3.14102e-06
5.44766e-07
1.36737e-05
0.000209997
-3.07148e-06
-4.19071e-06
-3.68177e-06
-3.86085e-06
2.96202e-06
1.12376e-05
9.27976e-05
-5.11363e-06
-4.61545e-06
-4.75979e-06
-4.50452e-06
1.8623e-06
3.00849e-06
2.13123e-06
-1.21699e-05
-5.37345e-06
7.22974e-06
1.32756e-05
-2.24406e-05
-1.76839e-06
1.64608e-06
2.25629e-05
5.24931e-07
-6.1389e-05
3.46236e-06
-2.30519e-06
-2.5352e-06
6.22421e-05
-7.71578e-06
1.62244e-05
0.000276278
2.78627e-06
1.53472e-06
4.64708e-06
3.62636e-06
-5.55916e-06
8.90974e-06
0.000174582
-1.19247e-06
1.47516e-06
6.57386e-05
-2.52672e-06
-1.01163e-06
-2.20043e-06
1.40945e-06
2.47269e-06
1.63088e-06
-1.23976e-05
-5.17473e-06
-2.74249e-06
5.90331e-06
1.3219e-05
-8.0491e-05
-3.26693e-06
1.42459e-06
3.25374e-07
8.13837e-05
6.24245e-07
-9.88717e-07
1.89641e-06
0.000262617
-7.31453e-07
-5.02314e-07
9.86396e-07
-3.96671e-07
2.83041e-06
2.30445e-06
3.33749e-06
-1.80001e-06
1.21717e-06
0.000174515
1.90412e-06
-6.91849e-07
2.08296e-06
1.86931e-06
1.50043e-06
1.72645e-06
-1.96077e-05
-9.45314e-07
-5.79773e-07
2.08079e-05
-5.31575e-06
-2.46361e-06
1.90082e-06
5.87854e-06
-5.16735e-05
-1.32008e-06
2.37061e-06
5.25194e-05
-5.2484e-05
-1.75217e-06
8.99208e-07
-3.645e-07
5.49187e-05
-2.05943e-05
1.8116e-06
-2.11974e-06
2.09024e-05
-1.15993e-05
-1.79372e-07
3.16044e-06
8.61826e-06
-4.21135e-05
-3.86642e-07
1.18319e-06
4.13169e-05
8.31234e-08
7.99439e-07
-2.63255e-05
-2.2554e-06
-1.72631e-06
2.94246e-05
-8.07515e-06
-2.50271e-05
4.04167e-07
3.6508e-06
7.43657e-06
2.16107e-05
-1.81495e-05
-6.23663e-06
6.84015e-06
5.51919e-06
1.7482e-05
-5.45515e-06
-3.23168e-07
8.22703e-07
-3.83895e-05
8.82522e-07
-2.27307e-06
3.92805e-05
-1.0467e-05
1.76186e-05
0.000186519
2.79954e-06
-1.98264e-06
2.52126e-06
-1.50654e-06
1.47227e-06
2.79854e-06
1.7293e-06
4.32052e-06
3.30423e-06
1.73245e-05
0.00019931
-5.81609e-06
-5.32319e-06
-4.80613e-06
-4.46392e-06
3.03006e-06
1.25477e-05
9.23593e-05
-5.35428e-06
-4.60459e-06
-4.73694e-06
-4.26545e-06
2.07372e-06
2.90749e-06
2.14484e-06
-1.43847e-05
-5.1244e-06
6.92659e-06
1.56126e-05
-2.26328e-05
-1.5844e-06
1.53039e-06
2.26868e-05
1.03867e-06
-6.31705e-05
3.12748e-06
-2.81664e-06
-2.03553e-06
6.38566e-05
-7.45531e-06
1.79672e-05
0.000270249
2.85049e-06
1.65976e-06
4.76225e-06
3.86255e-06
-5.00572e-06
1.19723e-05
0.000177485
-1.10588e-06
1.42587e-06
7.33261e-05
-2.33046e-06
-9.5007e-07
-2.02174e-06
1.25732e-06
2.47896e-06
1.20044e-06
-1.4198e-05
-4.98568e-06
-2.56463e-06
5.64281e-06
1.49996e-05
-8.26055e-05
-3.76733e-06
2.03236e-06
6.0063e-07
8.33846e-05
3.55166e-07
1.2064e-06
2.50513e-06
0.00026916
-1.20938e-06
-7.39999e-07
6.42283e-07
-5.05673e-07
3.05226e-06
2.87485e-06
3.59861e-06
-1.17729e-06
8.8489e-07
0.00017824
2.60383e-06
2.58613e-07
2.96959e-06
1.33845e-06
1.24496e-06
1.33079e-06
-2.36216e-05
-7.70553e-07
-5.68787e-07
2.52095e-05
-6.34324e-06
-2.46618e-06
1.90072e-06
6.9087e-06
-5.34067e-05
-1.46739e-06
3.02306e-06
5.43561e-05
-5.7761e-05
-2.47546e-06
2.09717e-06
-1.22045e-06
6.02446e-05
-2.14813e-05
2.12112e-06
-2.46151e-06
2.18217e-05
-6.62994e-06
-5.50824e-07
1.81398e-06
5.36678e-06
-4.06011e-05
6.05947e-07
5.01786e-07
3.94934e-05
-1.50919e-06
9.40527e-07
-3.25459e-05
-2.04007e-06
8.68068e-07
3.42865e-05
-5.7307e-06
-1.79695e-05
-1.2383e-06
2.35734e-06
7.1818e-06
1.53994e-05
-1.59824e-05
-4.45516e-06
4.60985e-06
5.05386e-06
1.3276e-05
-2.50215e-06
7.70342e-07
7.66663e-07
-3.99293e-05
8.33434e-07
-2.5246e-06
4.00835e-05
-6.75812e-06
1.96806e-05
0.00017212
5.85251e-07
-3.31857e-06
-1.67196e-06
-3.10734e-06
1.13953e-06
2.83953e-06
1.12048e-06
3.88911e-06
4.64665e-06
2.02854e-05
0.000188697
-6.12676e-06
-5.51103e-06
-5.13692e-06
-4.30244e-06
2.31107e-06
1.22047e-05
9.31134e-05
-5.04675e-06
-3.92005e-06
-4.03911e-06
-3.18251e-06
1.7296e-06
2.09223e-06
1.74337e-06
-1.66837e-05
-4.04047e-06
5.76676e-06
1.72685e-05
-2.28003e-05
-1.48201e-06
1.26674e-06
2.30156e-05
1.67447e-06
-6.46852e-05
2.82923e-06
-3.45542e-06
-1.603e-06
6.52399e-05
-6.88102e-06
2.07176e-05
0.00026203
2.99462e-06
1.95201e-06
4.93153e-06
4.1855e-06
-3.85696e-06
1.41939e-05
0.000180552
-1.09153e-06
9.50923e-07
8.4485e-05
-2.18151e-06
-9.20492e-07
-1.84398e-06
2.05413e-07
2.07845e-06
-8.37826e-09
-1.58408e-05
-4.41917e-06
-2.35965e-06
4.996e-06
1.65321e-05
-8.45633e-05
-4.02868e-06
2.40138e-06
9.08016e-07
8.52569e-05
2.57112e-08
3.47922e-06
2.94734e-06
0.000275519
-1.53604e-06
-9.15565e-07
5.11604e-07
-5.91863e-07
3.32925e-06
3.2069e-06
3.92813e-06
-1.91655e-07
6.86537e-07
0.000183559
3.46527e-06
1.4945e-06
3.80283e-06
8.81338e-07
1.0546e-06
1.16037e-06
-2.85398e-05
4.36734e-09