/*--------------------------------*- C++ -*----------------------------------*\
| =========                 |                                                 |
| \\      /  F ield         | OpenFOAM: The Open Source CFD Toolbox           |
|  \\    /   O peration     | Version:  5.x                                   |
|   \\  /    A nd           | Web:      www.OpenFOAM.org                      |
|    \\/     M anipulation  |                                                 |
\*---------------------------------------------------------------------------*/
FoamFile
{
    version     2.0;
    format      ascii;
    class       volVectorField;
    location    "7";
    object      Us;
}
// * * * * * * * * * * * * * * * * * * * * * * * * * * * * * * * * * * * * * //

dimensions      [0 1 -1 0 0 0 0];

internalField   nonuniform List<vector> 
10571
(
(0.146403 0.0268019 -0.134789)
(0.0479275 -0.000970902 -0.288614)
(0.168071 -0.0393991 -0.188746)
(0.00203163 0.126639 0.0632556)
(-0.0298253 0.0843431 -0.0645891)
(0.0615648 0.142071 -0.244039)
(0.249016 0.0677095 -0.137478)
(-0.111072 0.0530503 0.0672317)
(-0.203936 0.0769418 -0.0087856)
(-0.00749477 0.0955398 -0.0687159)
(0.0370612 0.0708755 -0.196051)
(0.115361 0.124057 -0.14179)
(0.211997 0.10889 -0.0929311)
(0.214943 0.0345141 -0.0768164)
(-0.240855 0.0998265 0.0290055)
(-0.0515285 -0.048387 -0.15396)
(0.0675597 0.110999 -0.159804)
(0.118243 0.0298992 -0.166661)
(0.159104 -0.0462314 -0.174049)
(-0.142963 0.0794796 0.107778)
(-0.0290488 -0.0206158 -0.0852865)
(0.0164463 -0.00933638 -0.271927)
(0.0923578 -0.037875 -0.282121)
(0.0918599 -0.0650638 -0.0947808)
(0.111131 0.0133638 -0.197637)
(-0.0746465 0.126964 -0.364845)
(0.0789584 0.0431443 -0.190549)
(0.239505 0.00110864 -0.0558863)
(0.0654074 0.0836963 -0.124748)
(-0.0422041 0.15346 -0.273498)
(0.16487 0.0852957 0.00475845)
(0.0599584 0.0706548 0.125012)
(-0.0861051 -0.0472892 -0.0681292)
(-0.064872 0.0125212 -0.0729478)
(0.000768351 -0.0653881 -0.297249)
(0.064798 -0.0529582 -0.113385)
(0.155972 -0.0154415 0.0524597)
(0.0737882 -0.0300166 0.076372)
(-0.0578359 -0.0275402 -0.0568218)
(-0.0625195 -0.0425409 -0.233773)
(0.063272 0.0643189 -0.0401176)
(0.0524885 -0.0573943 -0.117726)
(0.126541 -0.0748103 -0.0919945)
(0.119675 -0.0942882 -0.0190728)
(0.0477881 -0.120819 -0.172846)
(-0.0050663 0.00963385 -0.195279)
(0.0600586 -0.0442702 -0.216343)
(0.170538 -0.064738 -0.13429)
(0.0104051 0.0135083 -0.28663)
(-0.0656602 0.0989794 -0.329199)
(-0.0304834 0.14886 -0.228777)
(0.154116 0.0420093 -0.0770563)
(0.102116 0.0525906 -0.133893)
(-0.0130584 -0.0210629 -0.119259)
(0.138161 0.00152838 0.124642)
(0.196286 0.028935 0.215234)
(0.00838541 -0.080987 -0.0216463)
(0.0373165 0.112191 -0.0656823)
(0.00112358 -0.0653715 -0.209951)
(0.0607996 -0.134573 0.00699209)
(0.11904 -0.12003 0.0991603)
(0.172383 -0.0944382 0.0666244)
(0.0778231 -0.123885 -0.0291377)
(-0.0114435 -0.0675097 -0.247476)
(0.0297999 -0.0272911 0.0430654)
(0.0679696 -0.0227781 -0.0975542)
(0.107644 -0.0332883 -0.0700697)
(0.201032 -0.133317 -0.00102662)
(0.076682 -0.143228 -0.143123)
(-0.0149358 -0.030826 -0.136351)
(0.0222256 -0.0518021 -0.145878)
(0.134718 -0.0863065 -0.0504023)
(-0.0398713 0.00321764 -0.405029)
(-0.0206884 0.0225687 -0.291263)
(-0.0797102 0.0705613 -0.222296)
(0.0867155 -0.00309779 -0.0832691)
(0.0744687 0.01021 -0.106782)
(-0.0127856 -0.237019 0.052597)
(0.128716 -0.171923 0.277254)
(0.209918 -0.0424132 0.31329)
(0.0489339 -0.109231 0.0473348)
(0.0394083 0.0683306 -0.063494)
(-0.00185918 -0.0687482 -0.116602)
(0.0572308 -0.211907 0.120644)
(0.130845 -0.139846 0.20881)
(0.174429 -0.106867 0.229866)
(0.134208 -0.155483 0.0734826)
(0.0110504 -0.0765458 -0.210161)
(0.0336587 -0.0562528 0.124399)
(0.0695443 0.0150604 -0.0337748)
(0.0229164 -0.0174411 0.0179371)
(0.16414 -0.0894493 0.0636293)
(0.0329879 -0.0711978 -0.152615)
(-0.002181 -0.0223774 -0.108719)
(-0.12528 -0.0242085 -0.11729)
(-0.0547983 -0.00360735 -0.179129)
(-0.0468969 0.000687343 -0.381046)
(-0.0337008 -0.0110544 -0.207803)
(-0.0283184 -0.0474758 -0.0310343)
(0.0789162 -0.0778929 -0.0290539)
(-0.0127167 -0.0204839 -0.114273)
(-0.105925 -0.395454 0.242555)
(0.135444 -0.242141 0.388879)
(0.205872 -0.159815 0.43682)
(0.0817909 -0.114976 0.136998)
(0.0240891 -0.0134948 -0.0400382)
(-0.00835578 -0.0545857 -0.0367974)
(0.043983 -0.243439 0.213304)
(0.0946751 -0.064273 0.303009)
(0.170524 -0.0923495 0.367312)
(0.0686415 -0.132795 0.0939707)
(0.0149426 -0.078834 -0.143579)
(0.0607149 -0.0582977 0.220232)
(0.0683234 0.0539255 0.0690444)
(-0.060371 0.0147155 0.0671954)
(0.0285796 -0.0780233 0.0683247)
(0.0147659 -0.0203428 -0.181723)
(0.00116148 -0.0123039 -0.0143745)
(-0.162834 0.0317482 -0.115572)
(-0.0722228 0.0381869 -0.242459)
(-0.0556292 -0.0312802 -0.309972)
(-0.0659169 -0.0310544 -0.144233)
(-0.0507504 -0.0974004 0.0554781)
(0.0559752 -0.101637 0.057083)
(-0.0494729 -0.00173212 -0.23511)
(-0.182199 -0.347419 0.341578)
(0.0666221 -0.152588 0.422839)
(0.179096 -0.120155 0.447281)
(0.163538 -0.0899414 0.266115)
(0.0490641 -0.0501277 0.0465196)
(-0.00234884 0.0031497 -0.00199158)
(-0.0303461 0.043983 0.0112456)
(-0.138597 -0.116047 0.219461)
(0.00513774 0.0484654 0.293973)
(0.140863 -0.0124609 0.380571)
(0.0761348 -0.0918533 0.129515)
(0.0247116 -0.0797949 -0.0777477)
(-0.00136894 -0.00476912 -0.000255137)
(-0.0870806 0.00930063 0.228199)
(0.0308712 0.097929 0.188766)
(-0.127097 0.0598799 0.151668)
(-0.0476527 -0.0180437 0.0975275)
(0.000992273 -0.00559753 -0.196612)
(0.0412285 0.0294857 0.131391)
(-0.172457 0.0859759 0.0207479)
(-0.0790427 0.0638714 -0.226742)
(0.00930388 0.0481309 -0.334667)
(-0.0782959 -0.0426945 -0.055414)
(-0.0994828 -0.162923 0.0907555)
(-0.0216778 -0.104058 -0.0786013)
(-0.00931125 -0.0491963 -0.250486)
(-0.229554 -0.255935 0.432818)
(-0.116534 0.0266784 0.210237)
(0.117346 -0.0500315 0.436386)
(0.187055 -0.0869718 0.314883)
(0.120169 -0.0545669 0.141941)
(0.0463662 0.0398526 -0.0580115)
(-0.316473 0.245115 -0.0165289)
(-0.268332 0.174014 0.104243)
(-0.168559 0.172501 0.191481)
(0.0776764 0.049325 0.464896)
(0.0796654 -0.00355451 0.0950511)
(0.103274 -0.0787501 0.0637184)
(0.0849877 0.135972 -0.118082)
(-0.0910706 0.0020562 0.338952)
(-0.153463 0.19559 0.226376)
(-0.104355 0.117443 0.169227)
(-0.0212351 0.0929939 -0.0284548)
(0.0235713 0.0264881 -0.184028)
(0.147005 -0.0173598 -0.120275)
(-0.0938596 0.101035 0.137916)
(-0.174857 0.13488 0.0579258)
(-0.048248 0.117095 -0.147219)
(0.136193 0.10344 -0.0361397)
(-0.157939 -0.0822017 0.0462814)
(-0.0575829 -0.109667 0.0250509)
(-0.0540247 -0.0683856 -0.321452)
(-0.0191761 -0.068153 -0.183143)
(-0.222192 0.0386239 0.156806)
(-0.136941 0.0633378 0.139458)
(-0.000975509 0.0338201 0.261496)
(0.119132 0.0213451 0.152601)
(0.117994 0.0372259 0.0799037)
(0.198262 0.0268338 -0.188148)
(-7.40609e-14 8.31673e-14 -9.5763e-14)
(-0.216178 0.272952 -0.0456371)
(-0.168691 0.153241 0.192573)
(-0.0422895 0.131301 0.256614)
(0.0595346 0.120337 0.0150581)
(0.114463 0.0431192 -0.0183382)
(0.198284 0.147805 0.0312893)
(-0.333566 0.11255 0.0584556)
(-0.183125 0.220197 0.223802)
(-0.0869164 0.214943 0.212415)
(-0.0238864 0.211387 -0.174965)
(0.00273169 0.06452 -0.162338)
(0.123082 0.0890723 -0.18759)
(-0.238839 0.263519 0.0969372)
(-0.123628 0.174935 0.0929809)
(0.0103637 0.112069 -0.267915)
(0 0 0)
(0.00745312 0.0823155 -0.229703)
(-0.0625664 -0.0292181 -0.0453371)
(0.063162 0.00578913 -0.651803)
(0.0199447 -0.0100666 -0.517203)
(0 0 0)
(-0.106177 0.041878 -0.166781)
(-0.0846512 0.0222361 -0.0236411)
(-0.00252934 0.00293626 -0.0846987)
(0.0389979 -0.0316479 -0.154016)
(0.114692 -0.00836245 -0.174947)
(0 0 0)
(-0.010558 0.089031 -0.307765)
(-0.149649 0.111681 -0.0641809)
(-0.0776751 0.126968 0.121089)
(0.00697748 0.0965249 -0.0696016)
(0.0966006 0.0891504 -0.0588763)
(0.17376 0.0845034 -0.110538)
(0.0190169 0.081356 -0.207751)
(-0.111193 0.17065 0.0426257)
(-0.0870068 0.192886 0.172114)
(-0.137335 0.0733049 -0.572205)
(-0.123458 0.170506 -0.310843)
(0 0 0)
(-0.104584 0.244413 0.12274)
(0 0 0)
(0 0 0)
(-0.0578701 0.00427431 -0.545516)
(0 0 0)
(0.0632825 0.0304834 -0.690954)
(0.0449415 0.0816439 -0.740129)
(0 0 0)
(-0.00864437 0.0866698 -0.450086)
(0.0157167 0.0826528 -0.469134)
(0.0477767 0.0759194 -0.579883)
(0.0853402 0.102013 -0.648654)
(0 0 0)
(-0.0283353 0.0541988 -0.271672)
(0.00290145 0.169664 -0.382969)
(0.00565818 0.121473 -0.443176)
(-0.0345681 0.088487 -0.553609)
(-0.00756955 0.0995451 -0.595056)
(0 0 0)
(-0.0790893 0.171618 -0.265876)
(0.00949802 0.113871 -0.404589)
(0 0 0)
(-0.157974 0.00128643 -0.462964)
(0 0 0)
(0 0 0)
(-0.0545877 -0.127495 -0.341277)
(0 0 0)
(0 0 0)
(0.0382151 0.0375317 -0.687002)
(0 0 0)
(0 0 0)
(-0.014923 0.0362858 -0.514389)
(0.0103447 0.0567887 -0.373131)
(0.0159392 0.093797 -0.449601)
(0.0325863 0.0764452 -0.592892)
(0 0 0)
(0.0861748 0.0867826 -0.203301)
(0 0 0)
(-0.0469497 0.118707 -0.310677)
(0.00787295 0.109545 -0.447808)
(-0.0829728 0.0631818 -0.523658)
(0.0113149 0.093151 -0.535524)
(0.171279 0.061379 -0.113105)
(-0.0370005 0.174032 -0.197667)
(0.0458134 0.14941 -0.415501)
(-0.153502 -0.0124522 -0.503581)
(0.0737947 0.115377 -0.538202)
(0 0 0)
(0 0 0)
(0 0 0)
(0 0 0)
(0 0 0)
(0 0 0)
(0 0 0)
(0.0688802 0.0244499 -0.611285)
(0 0 0)
(-0.00275706 0.0635564 -0.392952)
(0.0586385 0.0460844 -0.492067)
(0.0476138 0.037392 -0.479964)
(0 0 0)
(0.0569653 0.0633547 -0.165068)
(0 0 0)
(-0.0148915 0.132772 -0.316268)
(0.0494062 0.134206 -0.38808)
(-0.0164957 0.112318 -0.550091)
(-0.0757247 0.057578 -0.466616)
(-0.0623633 0.147768 -0.0561196)
(0 0 0)
(0.0491093 0.148596 -0.372169)
(-0.120681 -0.0478981 -0.453624)
(0 0 0)
(0.142886 -0.124361 -0.0279288)
(0 0 0)
(-0.0790718 -0.100508 -0.257682)
(0 0 0)
(0 0 0)
(0 0 0)
(0 0 0)
(0 0 0)
(0 0 0)
(0.00829949 0.0687941 -0.460087)
(0.0372043 0.0391364 -0.420248)
(0.0754914 0.0829559 -0.598915)
(0 0 0)
(0 0 0)
(0 0 0)
(-0.0498935 0.143556 -0.263591)
(0.0620841 0.118516 -0.387987)
(-0.114979 0.0813041 -0.557755)
(0 0 0)
(0 0 0)
(-0.000521997 0.170531 -0.151549)
(0.00660555 0.0863456 -0.292646)
(0 0 0)
(0 0 0)
(-0.0336407 0.17 -0.0195949)
(0 0 0)
(0 0 0)
(0 0 0)
(0 0 0)
(0 0 0)
(0 0 0)
(0 0 0)
(0 0 0)
(-0.019446 0.0671266 -0.372616)
(0 0 0)
(0.117403 0.0522749 -0.563217)
(0 0 0)
(0 0 0)
(0 0 0)
(-0.0437546 0.152412 -0.199977)
(0.0503084 0.0885353 -0.477308)
(0 0 0)
(0 0 0)
(0 0 0)
(0.00610962 0.19181 -0.131915)
(0.0543955 -0.154277 -0.109692)
(0 0 0)
(0 0 0)
(0 0 0)
(0 0 0)
(0 0 0)
(0 0 0)
(0 0 0)
(0 0 0)
(0 0 0)
(0 0 0)
(0 0 0)
(-2.06131e-15 2.86357e-14 -2.60523e-13)
(0 0 0)
(0 0 0)
(0 0 0)
(0 0 0)
(0 0 0)
(-0.0192229 0.146636 -0.229382)
(0.0348158 0.103829 -0.276645)
(0 0 0)
(0 0 0)
(0 0 0)
(0 0 0)
(0 0 0)
(0 0 0)
(0 0 0)
(0 0 0)
(0 0 0)
(0 0 0)
(0 0 0)
(0 0 0)
(0 0 0)
(0 0 0)
(0 0 0)
(0 0 0)
(0 0 0)
(0 0 0)
(0 0 0)
(0 0 0)
(0 0 0)
(0 0 0)
(0 0 0)
(0 0 0)
(0 0 0)
(0 0 0)
(0 0 0)
(0 0 0)
(0 0 0)
(0 0 0)
(0 0 0)
(0 0 0)
(0 0 0)
(0 0 0)
(0 0 0)
(0 0 0)
(0 0 0)
(0 0 0)
(0 0 0)
(0 0 0)
(0 0 0)
(0 0 0)
(0 0 0)
(0 0 0)
(0 0 0)
(0 0 0)
(0 0 0)
(0 0 0)
(0 0 0)
(0 0 0)
(0 0 0)
(-0.022895 0.16557 -0.116039)
(0 0 0)
(0 0 0)
(0 0 0)
(0 0 0)
(0 0 0)
(0 0 0)
(0 0 0)
(0 0 0)
(0 0 0)
(0 0 0)
(0 0 0)
(0 0 0)
(0 0 0)
(0 0 0)
(0 0 0)
(0 0 0)
(0 0 0)
(0 0 0)
(0 0 0)
(0 0 0)
(0 0 0)
(0 0 0)
(0 0 0)
(0 0 0)
(0 0 0)
(0 0 0)
(0 0 0)
(0 0 0)
(0 0 0)
(0 0 0)
(0 0 0)
(0 0 0)
(0 0 0)
(0 0 0)
(0 0 0)
(0 0 0)
(0 0 0)
(0 0 0)
(0 0 0)
(0 0 0)
(0 0 0)
(0 0 0)
(0 0 0)
(0 0 0)
(0 0 0)
(0 0 0)
(0 0 0)
(0 0 0)
(0 0 0)
(0 0 0)
(0 0 0)
(0 0 0)
(0 0 0)
(0 0 0)
(0 0 0)
(0 0 0)
(0 0 0)
(0 0 0)
(0 0 0)
(0 0 0)
(0 0 0)
(0 0 0)
(0 0 0)
(0 0 0)
(0 0 0)
(0 0 0)
(0 0 0)
(0 0 0)
(0 0 0)
(0 0 0)
(0 0 0)
(0 0 0)
(0 0 0)
(0 0 0)
(0 0 0)
(0 0 0)
(0 0 0)
(0 0 0)
(0 0 0)
(0 0 0)
(0 0 0)
(0 0 0)
(0 0 0)
(0 0 0)
(-0.0212598 0.0532378 -0.267361)
(0 0 0)
(0 0 0)
(0 0 0)
(0 0 0)
(0 0 0)
(0 0 0)
(0 0 0)
(0 0 0)
(0 0 0)
(0 0 0)
(0 0 0)
(0 0 0)
(0 0 0)
(0 0 0)
(0 0 0)
(0 0 0)
(0 0 0)
(0 0 0)
(0 0 0)
(0 0 0)
(0 0 0)
(0 0 0)
(0 0 0)
(0 0 0)
(0 0 0)
(0 0 0)
(0 0 0)
(0 0 0)
(0 0 0)
(0 0 0)
(0 0 0)
(0 0 0)
(0 0 0)
(0 0 0)
(0 0 0)
(0 0 0)
(0 0 0)
(0 0 0)
(0 0 0)
(0 0 0)
(0 0 0)
(0 0 0)
(0 0 0)
(0 0 0)
(0 0 0)
(0 0 0)
(0 0 0)
(0 0 0)
(0 0 0)
(0 0 0)
(0 0 0)
(0 0 0)
(0 0 0)
(0 0 0)
(0 0 0)
(0 0 0)
(0 0 0)
(0 0 0)
(0 0 0)
(0 0 0)
(0 0 0)
(0 0 0)
(0 0 0)
(0 0 0)
(0 0 0)
(0 0 0)
(0 0 0)
(0 0 0)
(0 0 0)
(0 0 0)
(0 0 0)
(0 0 0)
(0 0 0)
(0 0 0)
(0 0 0)
(0 0 0)
(0 0 0)
(0 0 0)
(0 0 0)
(0 0 0)
(0 0 0)
(0 0 0)
(0 0 0)
(0 0 0)
(0 0 0)
(0 0 0)
(0 0 0)
(0 0 0)
(0 0 0)
(0 0 0)
(0 0 0)
(0 0 0)
(0 0 0)
(0 0 0)
(0 0 0)
(0 0 0)
(0 0 0)
(0 0 0)
(0 0 0)
(0 0 0)
(0 0 0)
(0 0 0)
(0 0 0)
(0 0 0)
(0 0 0)
(0 0 0)
(0 0 0)
(0 0 0)
(0 0 0)
(0 0 0)
(0 0 0)
(0 0 0)
(0 0 0)
(0 0 0)
(0 0 0)
(0 0 0)
(0 0 0)
(0 0 0)
(0 0 0)
(0 0 0)
(0 0 0)
(0 0 0)
(0 0 0)
(0 0 0)
(0 0 0)
(0 0 0)
(0 0 0)
(0 0 0)
(0 0 0)
(0 0 0)
(0 0 0)
(0 0 0)
(0 0 0)
(0 0 0)
(0 0 0)
(0 0 0)
(0 0 0)
(0 0 0)
(0 0 0)
(0 0 0)
(0 0 0)
(0 0 0)
(0 0 0)
(0 0 0)
(0 0 0)
(0 0 0)
(0 0 0)
(0 0 0)
(0 0 0)
(0 0 0)
(0 0 0)
(0 0 0)
(0 0 0)
(0 0 0)
(0 0 0)
(0 0 0)
(0 0 0)
(0 0 0)
(0 0 0)
(0 0 0)
(0 0 0)
(0 0 0)
(0 0 0)
(0 0 0)
(0 0 0)
(0 0 0)
(0 0 0)
(0 0 0)
(0 0 0)
(0 0 0)
(0 0 0)
(0 0 0)
(0 0 0)
(0 0 0)
(0 0 0)
(0 0 0)
(0 0 0)
(0 0 0)
(0 0 0)
(0 0 0)
(0 0 0)
(0 0 0)
(0 0 0)
(0 0 0)
(0 0 0)
(0 0 0)
(0 0 0)
(0 0 0)
(0 0 0)
(0 0 0)
(0 0 0)
(0 0 0)
(0 0 0)
(0 0 0)
(0 0 0)
(0 0 0)
(0 0 0)
(0 0 0)
(0 0 0)
(0 0 0)
(0 0 0)
(0 0 0)
(0 0 0)
(0 0 0)
(0 0 0)
(0 0 0)
(0 0 0)
(0 0 0)
(0 0 0)
(0 0 0)
(0 0 0)
(0 0 0)
(0 0 0)
(0 0 0)
(0 0 0)
(0 0 0)
(0 0 0)
(0 0 0)
(0 0 0)
(0 0 0)
(0 0 0)
(0 0 0)
(0 0 0)
(0 0 0)
(0 0 0)
(0 0 0)
(0 0 0)
(0 0 0)
(0 0 0)
(0 0 0)
(0 0 0)
(0 0 0)
(0 0 0)
(0 0 0)
(0 0 0)
(0 0 0)
(0 0 0)
(0 0 0)
(0 0 0)
(0 0 0)
(0 0 0)
(0 0 0)
(0 0 0)
(0 0 0)
(0 0 0)
(0 0 0)
(0 0 0)
(0 0 0)
(0 0 0)
(0 0 0)
(0 0 0)
(0 0 0)
(0 0 0)
(0 0 0)
(0 0 0)
(0 0 0)
(0 0 0)
(0 0 0)
(0 0 0)
(0 0 0)
(0 0 0)
(0 0 0)
(0 0 0)
(0 0 0)
(0 0 0)
(0 0 0)
(0 0 0)
(0 0 0)
(0 0 0)
(0 0 0)
(0 0 0)
(0 0 0)
(0 0 0)
(0 0 0)
(0 0 0)
(0 0 0)
(0 0 0)
(0 0 0)
(0 0 0)
(0 0 0)
(0 0 0)
(0 0 0)
(0 0 0)
(0 0 0)
(0 0 0)
(0 0 0)
(0 0 0)
(0 0 0)
(0 0 0)
(0 0 0)
(0 0 0)
(0 0 0)
(0 0 0)
(0 0 0)
(0 0 0)
(0 0 0)
(0 0 0)
(0 0 0)
(0 0 0)
(0 0 0)
(0 0 0)
(0 0 0)
(0 0 0)
(0 0 0)
(0 0 0)
(0 0 0)
(0 0 0)
(0 0 0)
(0 0 0)
(0 0 0)
(0 0 0)
(0 0 0)
(0 0 0)
(0 0 0)
(0 0 0)
(0 0 0)
(0 0 0)
(0 0 0)
(0 0 0)
(0 0 0)
(0 0 0)
(0 0 0)
(0 0 0)
(0 0 0)
(0 0 0)
(0 0 0)
(0 0 0)
(0 0 0)
(0 0 0)
(0 0 0)
(0 0 0)
(0 0 0)
(0 0 0)
(0 0 0)
(0 0 0)
(0 0 0)
(0 0 0)
(0 0 0)
(0 0 0)
(0 0 0)
(0 0 0)
(0 0 0)
(0 0 0)
(0 0 0)
(0 0 0)
(0 0 0)
(0 0 0)
(0 0 0)
(0 0 0)
(0 0 0)
(0 0 0)
(0 0 0)
(0 0 0)
(0 0 0)
(0 0 0)
(0 0 0)
(0 0 0)
(0 0 0)
(0 0 0)
(0 0 0)
(0 0 0)
(0 0 0)
(0 0 0)
(0 0 0)
(0 0 0)
(0 0 0)
(0 0 0)
(0 0 0)
(0 0 0)
(0 0 0)
(0 0 0)
(0 0 0)
(0 0 0)
(0 0 0)
(0 0 0)
(0 0 0)
(0 0 0)
(0 0 0)
(0 0 0)
(0 0 0)
(0 0 0)
(0 0 0)
(0 0 0)
(0 0 0)
(0 0 0)
(0 0 0)
(0 0 0)
(0 0 0)
(0 0 0)
(0 0 0)
(0 0 0)
(0 0 0)
(0 0 0)
(0 0 0)
(0 0 0)
(0 0 0)
(0 0 0)
(0 0 0)
(0 0 0)
(0 0 0)
(0 0 0)
(0 0 0)
(0 0 0)
(0 0 0)
(0 0 0)
(0 0 0)
(0 0 0)
(0 0 0)
(0 0 0)
(0 0 0)
(0 0 0)
(0 0 0)
(0 0 0)
(0 0 0)
(0 0 0)
(0 0 0)
(0 0 0)
(0 0 0)
(0 0 0)
(0 0 0)
(0 0 0)
(0 0 0)
(0 0 0)
(0 0 0)
(0 0 0)
(0 0 0)
(0 0 0)
(0 0 0)
(0 0 0)
(0 0 0)
(0 0 0)
(0 0 0)
(0 0 0)
(0 0 0)
(0 0 0)
(0 0 0)
(0 0 0)
(0 0 0)
(0 0 0)
(0 0 0)
(0 0 0)
(0 0 0)
(0 0 0)
(0 0 0)
(0 0 0)
(0 0 0)
(0 0 0)
(0 0 0)
(0 0 0)
(0 0 0)
(0 0 0)
(0 0 0)
(0 0 0)
(0 0 0)
(0 0 0)
(0 0 0)
(0 0 0)
(0 0 0)
(0 0 0)
(0 0 0)
(0 0 0)
(0 0 0)
(0 0 0)
(0 0 0)
(0 0 0)
(0 0 0)
(0 0 0)
(0 0 0)
(0 0 0)
(0 0 0)
(0 0 0)
(0 0 0)
(0 0 0)
(0 0 0)
(0 0 0)
(0 0 0)
(0 0 0)
(0 0 0)
(0 0 0)
(0 0 0)
(0 0 0)
(0 0 0)
(0 0 0)
(0 0 0)
(0 0 0)
(0 0 0)
(0 0 0)
(0 0 0)
(0 0 0)
(0 0 0)
(0 0 0)
(0 0 0)
(0 0 0)
(0 0 0)
(0 0 0)
(0 0 0)
(0 0 0)
(0 0 0)
(0 0 0)
(0 0 0)
(0 0 0)
(0 0 0)
(0 0 0)
(0 0 0)
(0 0 0)
(0 0 0)
(0 0 0)
(0 0 0)
(0 0 0)
(0 0 0)
(0 0 0)
(0 0 0)
(0 0 0)
(0 0 0)
(0 0 0)
(0 0 0)
(0 0 0)
(0 0 0)
(0 0 0)
(0 0 0)
(0 0 0)
(0 0 0)
(0 0 0)
(0 0 0)
(0 0 0)
(0 0 0)
(0 0 0)
(0 0 0)
(0 0 0)
(0 0 0)
(0 0 0)
(0 0 0)
(0 0 0)
(0 0 0)
(0 0 0)
(0 0 0)
(0 0 0)
(0 0 0)
(0 0 0)
(0 0 0)
(0 0 0)
(0 0 0)
(0 0 0)
(0 0 0)
(0 0 0)
(0 0 0)
(0 0 0)
(0 0 0)
(0 0 0)
(0 0 0)
(0 0 0)
(0 0 0)
(0 0 0)
(0 0 0)
(0 0 0)
(0 0 0)
(0 0 0)
(0 0 0)
(0 0 0)
(0 0 0)
(0 0 0)
(0 0 0)
(0 0 0)
(0 0 0)
(0 0 0)
(0 0 0)
(0 0 0)
(0 0 0)
(0 0 0)
(0 0 0)
(0 0 0)
(0 0 0)
(0 0 0)
(0 0 0)
(0 0 0)
(0 0 0)
(0 0 0)
(0 0 0)
(0 0 0)
(0 0 0)
(0 0 0)
(0 0 0)
(0 0 0)
(0 0 0)
(0 0 0)
(0 0 0)
(0 0 0)
(0 0 0)
(0 0 0)
(0 0 0)
(0 0 0)
(0 0 0)
(0 0 0)
(0 0 0)
(0 0 0)
(0 0 0)
(0 0 0)
(0 0 0)
(0 0 0)
(0 0 0)
(0 0 0)
(0 0 0)
(0 0 0)
(0 0 0)
(0 0 0)
(0 0 0)
(0 0 0)
(0 0 0)
(0 0 0)
(0 0 0)
(0 0 0)
(0 0 0)
(0 0 0)
(0 0 0)
(0 0 0)
(0 0 0)
(0 0 0)
(0 0 0)
(0 0 0)
(0 0 0)
(0 0 0)
(0 0 0)
(0 0 0)
(0 0 0)
(0 0 0)
(0 0 0)
(0 0 0)
(0 0 0)
(0 0 0)
(0 0 0)
(0 0 0)
(0 0 0)
(0 0 0)
(0 0 0)
(0 0 0)
(0 0 0)
(0 0 0)
(0 0 0)
(0 0 0)
(0 0 0)
(0 0 0)
(0 0 0)
(0 0 0)
(0 0 0)
(0 0 0)
(0 0 0)
(0 0 0)
(0 0 0)
(0 0 0)
(0 0 0)
(0 0 0)
(0 0 0)
(0 0 0)
(0 0 0)
(0 0 0)
(0 0 0)
(0 0 0)
(0 0 0)
(0 0 0)
(0 0 0)
(0 0 0)
(0 0 0)
(0 0 0)
(0 0 0)
(0 0 0)
(0 0 0)
(0 0 0)
(0 0 0)
(0 0 0)
(0 0 0)
(0 0 0)
(0 0 0)
(0 0 0)
(0 0 0)
(0 0 0)
(0 0 0)
(0 0 0)
(0 0 0)
(0 0 0)
(0 0 0)
(0 0 0)
(0 0 0)
(0 0 0)
(0 0 0)
(0 0 0)
(0 0 0)
(0 0 0)
(0 0 0)
(0 0 0)
(0 0 0)
(0 0 0)
(0 0 0)
(0 0 0)
(0 0 0)
(0 0 0)
(0 0 0)
(0 0 0)
(0 0 0)
(0 0 0)
(0 0 0)
(0 0 0)
(0 0 0)
(0 0 0)
(0 0 0)
(0 0 0)
(0 0 0)
(0 0 0)
(0 0 0)
(0 0 0)
(0 0 0)
(0 0 0)
(0 0 0)
(0 0 0)
(0 0 0)
(0 0 0)
(0 0 0)
(0 0 0)
(0 0 0)
(0 0 0)
(0 0 0)
(0 0 0)
(0 0 0)
(0 0 0)
(0 0 0)
(0 0 0)
(0 0 0)
(0 0 0)
(0 0 0)
(0 0 0)
(0 0 0)
(0 0 0)
(0 0 0)
(0 0 0)
(0 0 0)
(0 0 0)
(0 0 0)
(0 0 0)
(0 0 0)
(0 0 0)
(0 0 0)
(0 0 0)
(0 0 0)
(0 0 0)
(0 0 0)
(0 0 0)
(0 0 0)
(0 0 0)
(0 0 0)
(0 0 0)
(0 0 0)
(0 0 0)
(0 0 0)
(0 0 0)
(0 0 0)
(0 0 0)
(0 0 0)
(0 0 0)
(0 0 0)
(0 0 0)
(0 0 0)
(0 0 0)
(0 0 0)
(0 0 0)
(0 0 0)
(0 0 0)
(0 0 0)
(0 0 0)
(0 0 0)
(0 0 0)
(0 0 0)
(0 0 0)
(0 0 0)
(0 0 0)
(0 0 0)
(0 0 0)
(0 0 0)
(0 0 0)
(0 0 0)
(0 0 0)
(0 0 0)
(0 0 0)
(0 0 0)
(0 0 0)
(0 0 0)
(0 0 0)
(0 0 0)
(0 0 0)
(0 0 0)
(0 0 0)
(0 0 0)
(0 0 0)
(0 0 0)
(0 0 0)
(0 0 0)
(0 0 0)
(0 0 0)
(0 0 0)
(0 0 0)
(0 0 0)
(0 0 0)
(0 0 0)
(0 0 0)
(0 0 0)
(0 0 0)
(0 0 0)
(0 0 0)
(0 0 0)
(0 0 0)
(0 0 0)
(0 0 0)
(0 0 0)
(0 0 0)
(0 0 0)
(0 0 0)
(0 0 0)
(0 0 0)
(0 0 0)
(0 0 0)
(0 0 0)
(0 0 0)
(0 0 0)
(0 0 0)
(0 0 0)
(0 0 0)
(0 0 0)
(0 0 0)
(0 0 0)
(0 0 0)
(0 0 0)
(0 0 0)
(0 0 0)
(0 0 0)
(0 0 0)
(0 0 0)
(0 0 0)
(0 0 0)
(0 0 0)
(0 0 0)
(0 0 0)
(0 0 0)
(0 0 0)
(0 0 0)
(0 0 0)
(0 0 0)
(0 0 0)
(0 0 0)
(0 0 0)
(0 0 0)
(0 0 0)
(0 0 0)
(0 0 0)
(0 0 0)
(0 0 0)
(0 0 0)
(0 0 0)
(0 0 0)
(0 0 0)
(0 0 0)
(0 0 0)
(0 0 0)
(0 0 0)
(0 0 0)
(0 0 0)
(0 0 0)
(0 0 0)
(0 0 0)
(0 0 0)
(0 0 0)
(0 0 0)
(0 0 0)
(0 0 0)
(0 0 0)
(0 0 0)
(0 0 0)
(0 0 0)
(0 0 0)
(0 0 0)
(0 0 0)
(0 0 0)
(0 0 0)
(0 0 0)
(0 0 0)
(0 0 0)
(0 0 0)
(0 0 0)
(0 0 0)
(0 0 0)
(0 0 0)
(0 0 0)
(0 0 0)
(0 0 0)
(0 0 0)
(0 0 0)
(0 0 0)
(0 0 0)
(0 0 0)
(0 0 0)
(0 0 0)
(0 0 0)
(0 0 0)
(0 0 0)
(0 0 0)
(0 0 0)
(0 0 0)
(0 0 0)
(0 0 0)
(0 0 0)
(0 0 0)
(0 0 0)
(0 0 0)
(0 0 0)
(0 0 0)
(0 0 0)
(0 0 0)
(0 0 0)
(0 0 0)
(0 0 0)
(0 0 0)
(0 0 0)
(0 0 0)
(0 0 0)
(0 0 0)
(0 0 0)
(0 0 0)
(0 0 0)
(0 0 0)
(0 0 0)
(0 0 0)
(0 0 0)
(0 0 0)
(0 0 0)
(0 0 0)
(0 0 0)
(0 0 0)
(0 0 0)
(0 0 0)
(0 0 0)
(0 0 0)
(0 0 0)
(0 0 0)
(0 0 0)
(0 0 0)
(0 0 0)
(0 0 0)
(0 0 0)
(0 0 0)
(0 0 0)
(0 0 0)
(0 0 0)
(0 0 0)
(0 0 0)
(0 0 0)
(0 0 0)
(0 0 0)
(0 0 0)
(0 0 0)
(0 0 0)
(0 0 0)
(0 0 0)
(0 0 0)
(0 0 0)
(0 0 0)
(0 0 0)
(0 0 0)
(0 0 0)
(0 0 0)
(0 0 0)
(0 0 0)
(0 0 0)
(0 0 0)
(0 0 0)
(0 0 0)
(0 0 0)
(0 0 0)
(0 0 0)
(0 0 0)
(0 0 0)
(0 0 0)
(0 0 0)
(0 0 0)
(0 0 0)
(0 0 0)
(0 0 0)
(0 0 0)
(0 0 0)
(0 0 0)
(0 0 0)
(0 0 0)
(0 0 0)
(0 0 0)
(0 0 0)
(0 0 0)
(0 0 0)
(0 0 0)
(0 0 0)
(0 0 0)
(0 0 0)
(0 0 0)
(0 0 0)
(0 0 0)
(0 0 0)
(0 0 0)
(0 0 0)
(0 0 0)
(0 0 0)
(0 0 0)
(0 0 0)
(0 0 0)
(0 0 0)
(0 0 0)
(0 0 0)
(0 0 0)
(0 0 0)
(0 0 0)
(0 0 0)
(0 0 0)
(0 0 0)
(0 0 0)
(0 0 0)
(0 0 0)
(0 0 0)
(0 0 0)
(0 0 0)
(0 0 0)
(0 0 0)
(0 0 0)
(0 0 0)
(0 0 0)
(0 0 0)
(0 0 0)
(0 0 0)
(0 0 0)
(0 0 0)
(0 0 0)
(0 0 0)
(0 0 0)
(0 0 0)
(0 0 0)
(0 0 0)
(0 0 0)
(0 0 0)
(0 0 0)
(0 0 0)
(0 0 0)
(0 0 0)
(0 0 0)
(0 0 0)
(0 0 0)
(0 0 0)
(0 0 0)
(0 0 0)
(0 0 0)
(0 0 0)
(0 0 0)
(0 0 0)
(0 0 0)
(0 0 0)
(0 0 0)
(0 0 0)
(0 0 0)
(0 0 0)
(0 0 0)
(0 0 0)
(0 0 0)
(0 0 0)
(0 0 0)
(0 0 0)
(0 0 0)
(0 0 0)
(0 0 0)
(0 0 0)
(0 0 0)
(0 0 0)
(0 0 0)
(0 0 0)
(0 0 0)
(0 0 0)
(0 0 0)
(0 0 0)
(0 0 0)
(0 0 0)
(0 0 0)
(0 0 0)
(0 0 0)
(0 0 0)
(0 0 0)
(0 0 0)
(0 0 0)
(0 0 0)
(0 0 0)
(0 0 0)
(0 0 0)
(0 0 0)
(0 0 0)
(0 0 0)
(0 0 0)
(0 0 0)
(0 0 0)
(0 0 0)
(0 0 0)
(0 0 0)
(0 0 0)
(0 0 0)
(0 0 0)
(0 0 0)
(0 0 0)
(0 0 0)
(0 0 0)
(0 0 0)
(0 0 0)
(0 0 0)
(0 0 0)
(0 0 0)
(0 0 0)
(0 0 0)
(0 0 0)
(0 0 0)
(0 0 0)
(0 0 0)
(0 0 0)
(0 0 0)
(0 0 0)
(0 0 0)
(0 0 0)
(0 0 0)
(0 0 0)
(0 0 0)
(0 0 0)
(0 0 0)
(0 0 0)
(0 0 0)
(0 0 0)
(0 0 0)
(0 0 0)
(0 0 0)
(0 0 0)
(0 0 0)
(0 0 0)
(0 0 0)
(0 0 0)
(0 0 0)
(0 0 0)
(0 0 0)
(0 0 0)
(0 0 0)
(0 0 0)
(0 0 0)
(0 0 0)
(0 0 0)
(0 0 0)
(0 0 0)
(0 0 0)
(0 0 0)
(0 0 0)
(0 0 0)
(0 0 0)
(0 0 0)
(0 0 0)
(0 0 0)
(0 0 0)
(0 0 0)
(0 0 0)
(0 0 0)
(0 0 0)
(0 0 0)
(0 0 0)
(0 0 0)
(0 0 0)
(0 0 0)
(0 0 0)
(0 0 0)
(0 0 0)
(0 0 0)
(0 0 0)
(0 0 0)
(0 0 0)
(0 0 0)
(0 0 0)
(0 0 0)
(0 0 0)
(0 0 0)
(0 0 0)
(0 0 0)
(0 0 0)
(0 0 0)
(0 0 0)
(0 0 0)
(0 0 0)
(0 0 0)
(0 0 0)
(0 0 0)
(0 0 0)
(0 0 0)
(0 0 0)
(0 0 0)
(0 0 0)
(0 0 0)
(0 0 0)
(0 0 0)
(0 0 0)
(0 0 0)
(0 0 0)
(0 0 0)
(0 0 0)
(0 0 0)
(0 0 0)
(0 0 0)
(0 0 0)
(0 0 0)
(0 0 0)
(0 0 0)
(0 0 0)
(0 0 0)
(0 0 0)
(0 0 0)
(0 0 0)
(0 0 0)
(0 0 0)
(0 0 0)
(0 0 0)
(0 0 0)
(0 0 0)
(0 0 0)
(0 0 0)
(0 0 0)
(0 0 0)
(0 0 0)
(0 0 0)
(0 0 0)
(0 0 0)
(0 0 0)
(0 0 0)
(0 0 0)
(0 0 0)
(0 0 0)
(0 0 0)
(0 0 0)
(0 0 0)
(0 0 0)
(0 0 0)
(0 0 0)
(0 0 0)
(0 0 0)
(0 0 0)
(0 0 0)
(0 0 0)
(0 0 0)
(0 0 0)
(0 0 0)
(0 0 0)
(0 0 0)
(0 0 0)
(0 0 0)
(0 0 0)
(0 0 0)
(0 0 0)
(0 0 0)
(0 0 0)
(0 0 0)
(0 0 0)
(0 0 0)
(0 0 0)
(0 0 0)
(0 0 0)
(0 0 0)
(0 0 0)
(0 0 0)
(0 0 0)
(0 0 0)
(0 0 0)
(0 0 0)
(0 0 0)
(0 0 0)
(0 0 0)
(0 0 0)
(0 0 0)
(0 0 0)
(0 0 0)
(0 0 0)
(0 0 0)
(0 0 0)
(0 0 0)
(0 0 0)
(0 0 0)
(0 0 0)
(0 0 0)
(0 0 0)
(0 0 0)
(0 0 0)
(0 0 0)
(0 0 0)
(0 0 0)
(0 0 0)
(0 0 0)
(0 0 0)
(0 0 0)
(0 0 0)
(0 0 0)
(0 0 0)
(0 0 0)
(0 0 0)
(0 0 0)
(0 0 0)
(0 0 0)
(0 0 0)
(0 0 0)
(0 0 0)
(0 0 0)
(0 0 0)
(0 0 0)
(0 0 0)
(0 0 0)
(0 0 0)
(0 0 0)
(0 0 0)
(0 0 0)
(0 0 0)
(0 0 0)
(0 0 0)
(0 0 0)
(0 0 0)
(0 0 0)
(0.0555476 -0.013908 -0.0108348)
(0.0433469 0.0543571 -0.0334184)
(0.0713088 -0.00897616 -0.0126457)
(0.0428406 0.061787 -0.00297017)
(0.0469477 0.0538166 -0.0394889)
(-0.0189265 0.10781 0.0138858)
(-0.0412619 0.10391 -0.0264974)
(-0.0297694 0.0461909 -0.0391437)
(0.0799982 -0.101734 -0.0554503)
(0.0662722 -0.0458573 -0.00699308)
(0.0989027 -0.0289423 -0.016789)
(0.136293 -0.0829206 -0.0431785)
(0.16533 -0.0475523 -0.0771508)
(0.157287 -0.0227197 -0.0473418)
(0.15271 0.0199012 -0.0446162)
(0.182864 -0.0258633 -0.0621356)
(0.184887 -0.0145758 0.0041926)
(-0.0271496 0.143469 0.0277261)
(-0.13212 0.14905 0.0585296)
(-0.0228143 0.0822756 0.0232794)
(-0.112011 0.0925346 0.0320795)
(-0.115692 0.0705613 0.00236371)
(-0.0422793 0.0120157 -0.0169592)
(-0.176153 0.0608922 0.0129776)
(-0.11179 0.0376037 -0.0145113)
(-0.037545 0.0507488 -0.0343658)
(0.103431 -0.0305241 -0.0675546)
(0.0302453 0.118818 -0.0649478)
(0.118667 0.0985327 -0.0562811)
(0.205936 -0.0432762 -0.0376017)
(0.217748 0.00299486 -0.0547396)
(0.232686 0.0779745 -0.0420458)
(0.276526 0.0863524 -0.0565028)
(0.21735 0.0246854 -0.0550242)
(0.197696 0.0290625 0.0165143)
(0.246026 0.0816384 -0.043008)
(0.23127 0.067519 -0.0497756)
(0.00572468 0.0294938 0.00177985)
(-0.137104 0.0418474 0.00172563)
(0.0227215 0.0375136 -0.0177797)
(-0.0975094 0.0145513 0.0033103)
(-0.188655 0.0784115 -0.0157429)
(-0.127555 0.071571 -0.025235)
(-0.165758 0.0766172 -0.010142)
(-0.0894387 0.0471374 -0.00276164)
(-0.0522068 0.0462422 -0.0209856)
(-0.0205245 -0.0319448 -0.000450973)
(-0.00295123 -0.0418863 0.0020391)
(0.0649349 0.162077 -0.061086)
(0.140501 0.211494 -0.0440187)
(0.121547 0.217311 -0.0146463)
(0.208377 0.184604 -0.0381389)
(0.239899 0.153586 -0.0494105)
(0.181198 0.230079 -0.0248463)
(0.131649 0.131369 -0.0370048)
(0.187433 0.0944725 -0.0310583)
(0.208213 0.0670634 -0.0458862)
(0.132243 0.0646064 -0.0524481)
(0.122795 -0.00681462 -0.0348206)
(0.0555337 0.0124127 -0.00739082)
(-0.0828787 0.00916527 0.00527572)
(0.0960776 -0.0381264 -0.0199539)
(-0.0756843 0.0251518 0.0119514)
(-0.170161 0.0098162 0.0120882)
(-0.171781 0.0309711 0.0110277)
(-0.134103 0.0310295 0.029418)
(-0.169671 0.0801597 0.0255764)
(-0.0202643 -0.0390863 -0.0316811)
(0.0104283 -0.0403142 -0.00276766)
(-0.0850952 0.081849 -0.0538361)
(0.0363597 0.0755176 0.00968488)
(0.025249 0.0356043 -0.00111151)
(0.0461101 0.0163729 -0.0168089)
(0.0124016 0.00958033 -0.0130138)
(0.0289199 0.0124143 -0.015985)
(0.0735838 0.00874109 -0.0271993)
(0.0908874 -0.0162954 -0.0155113)
(0.0499242 0.00998815 -0.0188802)
(0.058794 -0.0154243 -0.0205046)
(0.112091 -0.0447723 -0.0242422)
(-0.012098 -0.018867 0.00947443)
(0.0844623 -0.0300777 -0.0469442)
(0.0185469 -0.0220435 -0.0163771)
(-0.0958923 0.0370605 0.0160046)
(-0.131927 0.0819336 0.023546)
(-0.0673552 0.024724 0.00807524)
(-0.0770992 0.0301156 0.0106462)
(-0.0786557 0.0994166 -0.0133671)
(0.0124351 0.00714061 -0.00717708)
(0.0140162 -0.00606757 -0.0109151)
(0.037958 -0.00423631 -0.0359243)
(0.0169296 -0.00514271 -0.00155111)
(0.0415015 -0.00419646 -0.0214383)
(0.00895817 -0.00151139 -0.00020085)
(0.00571972 -0.00154418 -0.00138892)
(-0.00888766 0.00852089 0.000296499)
(0.121357 -0.0561719 -0.137951)
(0.100335 -0.0474238 -0.202025)
(0.135877 0.00461618 -0.123135)
(0.143654 -0.0569903 -0.126468)
(0.150128 -0.013081 -0.0806681)
(0.151384 -0.0159114 -0.184417)
(0.131903 -0.0612385 -0.187589)
(0.163811 -0.0643572 -0.187859)
(0.0692433 0.0810081 -0.011094)
(0.0496787 0.0981858 -0.0754443)
(0.145171 0.0116014 -0.172998)
(0.148206 0.0242102 -0.133646)
(0.106 0.0707502 -0.130191)
(0.0415929 0.0560825 -0.0989987)
(0.0814165 0.0593581 -0.129042)
(-0.0267166 0.0934358 -0.355636)
(-0.0530157 0.12146 -0.401218)
(0.104292 -0.0249673 -0.237249)
(0.0399449 0.0736292 -0.316474)
(0.118121 0.058832 -0.232696)
(-0.0031601 0.0559465 -0.321001)
(0.0764515 0.0157781 -0.244996)
(-0.0376094 0.138991 -0.37102)
(0.0807358 0.105851 -0.209208)
(0.0273223 0.0599949 -0.0984719)
(-0.134095 0.0947784 -0.000852873)
(-0.00391785 0.0829113 -0.082429)
(0.0287019 0.0872861 -0.0978498)
(0.0425486 0.0594 -0.12358)
(-0.0792042 0.0479149 -0.0241852)
(0.0171824 0.0487556 -0.113025)
(0.0255518 0.092752 -0.113682)
(0.0293466 0.0511605 -0.131989)
(0.00772777 0.109861 -0.258711)
(0.00492226 0.121564 -0.163845)
(0.0414411 0.143841 -0.159724)
(-0.0369769 0.130026 -0.353279)
(-0.000379795 0.013003 -0.320824)
(-0.0123969 0.0896292 -0.279442)
(-0.0171432 -0.141838 -0.0806527)
(0.044086 -0.0977022 -9.62299e-05)
(-0.0413741 -0.00533699 -0.079759)
(-0.104793 -0.077963 -0.183394)
(-0.0253144 -0.0496956 -0.145651)
(0.0783935 0.12761 -0.1227)
(0.0770452 0.150146 -0.126194)
(0.00463997 -0.038582 -0.324139)
(0.0305718 -0.0392986 -0.256707)
(0.0517827 0.0937941 -0.113582)
(0.0184901 -0.0843365 0.00143908)
(-0.0391883 -0.031196 -0.110261)
(-0.0819997 -0.0280689 -0.229124)
(-0.034311 -0.0263885 -0.130643)
(-0.00782305 -0.0722985 -0.143973)
(0.0655266 0.156899 -0.168837)
(0.0643326 0.116337 -0.0984702)
(0.0964742 0.0887527 -0.148931)
(0.0564696 0.0920959 -0.194454)
(0.0603274 0.048178 -0.20745)
(0.0687421 0.0983881 -0.108042)
(0.0909023 0.0841887 -0.0964751)
(0.051809 0.057809 -0.148247)
(0.0357924 0.018137 -0.164307)
(-0.148457 0.0551048 0.0450424)
(-0.0498283 0.0285336 0.049911)
(-0.018447 0.00553046 0.00147484)
(-0.148168 0.0787157 0.0806205)
(-0.0726779 0.00341433 5.7649e-05)
(-0.0195125 0.052914 0.0181117)
(0.0412313 -0.0458195 -0.0361789)
(0.0276305 -0.0903956 -0.13794)
(0.00116103 0.00609019 -0.236206)
(-0.0280773 -0.0177101 -0.18374)
(0.0562808 -0.0249584 -0.285997)
(0 0 0)
(0.00329406 -0.00140211 -0.251324)
(0.0408023 -0.0311864 -0.269484)
(0 0 0)
(0.107826 -0.0411073 -0.220546)
(0 0 0)
(0.0707579 -0.0434288 -0.254711)
(0.117144 -0.0349816 -0.231013)
(0.0471484 -0.029468 -0.2777)
(0.172097 -0.0857815 -0.203256)
(0.0721165 -0.0329261 -0.173093)
(-0.0462148 0.0747182 -0.297113)
(0.124727 -0.00590166 -0.181682)
(0.113076 -0.0314399 -0.147059)
(0.135779 -0.0408898 -0.160409)
(0.0453096 0.00347546 -0.193334)
(0.037167 0.0346977 -0.233903)
(0.0502225 0.00838712 -0.207042)
(0.137849 0.0206202 -0.1967)
(0.115067 0.0536622 -0.1684)
(0.0570269 0.0116687 -0.236022)
(0.0866363 0.0283283 -0.228096)
(0.0943279 0.0350771 -0.185739)
(0.0845317 0.0579935 -0.145079)
(0.0735645 0.0413956 -0.155652)
(-0.0492101 0.102788 -0.382703)
(-0.0309295 0.0619436 -0.333812)
(0.0691496 0.046447 -0.217926)
(-0.0654072 0.174436 -0.364053)
(0.0194631 0.170328 -0.200458)
(-0.0772468 0.144089 -0.326237)
(-0.0637987 0.155704 -0.274778)
(-0.0690579 0.171709 -0.329468)
(-0.0546775 0.261009 -0.17945)
(0.0573643 0.0607405 -0.129958)
(-0.0127426 0.0379553 -0.011484)
(0.0328438 0.0577127 -0.10216)
(0.0901562 0.0720431 -0.14007)
(0.0553194 0.0599727 -0.132781)
(0.0961362 0.0485924 -0.00751908)
(0.0697508 0.0682826 -0.0980196)
(0.0343574 0.0598323 -0.113842)
(0.0492679 0.0774419 -0.110641)
(-0.0295286 0.0723532 -0.324607)
(0.00538038 -0.0258362 -0.300182)
(-0.0012286 -0.0188811 -0.255582)
(-0.00870178 0.00897272 -0.251257)
(0.00401128 -0.038382 -0.255878)
(0.0122356 -0.0587275 -0.226927)
(-0.0999476 -0.0509033 -0.223982)
(-0.0259063 -0.0332435 -0.232846)
(0.0211134 0.116829 -0.0562514)
(-0.0585398 -0.019145 -0.231638)
(-0.023769 -0.0371815 -0.265187)
(0.0251247 -0.0879147 -0.229451)
(0.0447349 0.0497822 -0.0765805)
(0.000346882 -0.0672071 -0.254596)
(0.0360042 -0.111138 -0.180704)
(0.049044 -0.0113588 -0.0588667)
(-0.0303364 -0.0260385 -0.233295)
(-0.0077301 -0.0799485 -0.163069)
(-0.032379 -0.061912 -0.241323)
(-0.00770945 -0.0465993 -0.259476)
(0.00202235 -0.0944867 -0.180507)
(0.0591476 0.0874629 -0.0511856)
(0.0345326 0.0396918 0.00670051)
(0.0822017 0.0365861 -0.0561245)