/*--------------------------------*- C++ -*----------------------------------*\
| =========                 |                                                 |
| \\      /  F ield         | OpenFOAM: The Open Source CFD Toolbox           |
|  \\    /   O peration     | Version:  5.x                                   |
|   \\  /    A nd           | Web:      www.OpenFOAM.org                      |
|    \\/     M anipulation  |                                                 |
\*---------------------------------------------------------------------------*/
FoamFile
{
    version     2.0;
    format      ascii;
    class       volScalarField;
    location    "3";
    object      p;
}
// * * * * * * * * * * * * * * * * * * * * * * * * * * * * * * * * * * * * * //

dimensions      [0 2 -2 0 0 0 0];

internalField   nonuniform List<scalar> 
10571
(
329.469
246.859
253.663
340.325
375.983
247.547
261.351
315.154
345.358
415.23
257.07
244.577
232.689
241.875
258.836
358.872
234.299
224.635
209.048
239.945
293.849
232.224
215.463
221.857
200.069
191.684
205.903
136.214
174.318
243.997
196.399
164.806
129.726
195.556
231.775
223.812
218.828
182.143
164.562
183.705
218.327
201.444
169.269
159.49
153.243
214.484
164.475
163.761
84.7615
131.622
107.933
78.0148
71.4792
137.334
111.3
88.7836
72.371
72.433
148.339
152.826
167.327
136.539
100.227
85.7978
181.278
131.977
155.6
156.762
103.456
146.544
134.714
147.681
73.0857
77.2805
70.4771
74.9271
71.9107
69.3421
70.9894
69.1417
67.8653
70.6179
73.1483
68.7956
75.6415
78.7879
66.9791
70.8186
67.8305
77.433
112.315
82.1591
77.7812
84.1853
111.208
86.0093
68.7064
68.527
66.676
67.2689
70.5061
67.6887
64.439
65.3755
67.5454
68.1999
68.1641
68.7296
64.276
64.142
66.4228
67.6242
68.8683
66.094
63.598
67.5721
66.6134
66.3346
69.9318
74.5306
67.5103
66.3845
66.619
66.523
68.0825
65.2015
64.355
65.0047
65.6654
66.108
64.9531
65.8655
65.8449
65.6067
64.5869
65.35
65.3806
65.006
65.0188
64.0843
62.7286
63.6477
64.6355
65.9531
63.8207
62.3095
63.8788
64.9658
65.2995
64.8298
64.0743
65.1447
64.511
64.3885
64.3688
64.8058
64.7898
64.8234
64.8141
65.2544
64.5277
64.5465
64.8111
64.843
65.2858
64.9955
64.754
64.3089
64.6806
64.8796
65.1721
64.9629
64.3683
63.0787
63.4339
63.4519
62.8506
62.8274
63.9415
64.1276
63.5923
63.8634
64.4455
64.8247
64.0427
64.0354
64.4584
63.9597
64.2015
64.8594
64.8449
64.769
64.5867
64.1261
64.3165
64.9209
64.9615
64.5627
64.3118
64.2258
62.8606
62.7615
62.6231
62.7927
62.8508
63.0042
63.7433
63.2519
63.6184
63.9708
65.0912
63.4981
63.5933
63.9293
63.5899
64.0045
64.5334
64.8991
64.0949
63.8221
63.6364
63.9886
64.0779
64.0081
63.9847
63.9413
62.8016
62.7611
62.6753
62.7294
62.8454
62.7446
63.5519
63.129
63.4117
62.8945
62.943
63.1553
63.5826
63.3435
63.7456
63.7682
63.2401
63.3877
63.5113
63.681
63.3543
63.6501
63.9321
63.7744
62.7672
62.7492
62.5937
62.7231
62.8519
62.7707
63.3381
62.9354
63.216
62.8239
62.7323
62.843
63.3175
63.1461
63.4194
63.1451
62.6598
63.1424
63.2878
63.3985
63.3733
63.3293
63.5428
63.511
62.7533
62.7394
62.5863
62.661
62.9001
62.757
62.9231
62.8156
63.1216
63.0576
62.7584
62.8111
63.0168
63.0043
63.223
63.2452
62.6923
62.9525
63.0665
63.2386
63.294
63.1661
63.2468
63.2822
62.805
62.6426
62.4807
62.7052
62.9982
62.5605
62.6085
62.8688
63.1157
63.1391
62.7059
62.612
62.7583
62.9619
63.145
63.1798
62.686
62.8584
62.9725
63.1521
63.2708
63.046
63.0905
63.0993
62.9016
62.653
62.3714
62.7833
63.1008
62.6699
62.6287
62.9758
63.1413
63.1705
62.6042
62.6181
62.7988
63.0164
63.1203
63.1828
62.7028
62.8857
62.998
63.1434
63.2433
62.9875
63.047
63.1404
63.0274
62.7532
62.3502
62.8734
63.1807
62.8549
62.7777
63.0584
63.1957
63.2342
62.7379
62.7837
62.9481
63.0768
63.1398
63.1848
62.8124
62.9547
63.0297
63.1555
63.2241
63.0077
63.0601
63.1279
63.1735
62.8488
62.3681
62.9931
63.2504
62.946
62.8903
63.1187
63.2439
63.2837
62.8977
62.9043
63.0365
63.1127
63.1409
63.1845
62.9525
63.0213
63.0528
63.24
63.2354
63.047
63.0802
63.1289
63.3041
62.9634
62.5375
63.0922
63.2967
63.0176
62.9566
63.1615
63.266
63.326
62.9425
62.8467
63.0493
63.1351
63.1235
63.2047
63.0182
63.0734
63.0717
63.2285
63.2169
63.0763
63.0884
63.1911
63.3839
63.0618
62.7058
63.1636
63.3223
63.0735
63.0067
63.1877
63.2959
63.3861
63.015
62.851
63.0441
63.1492
63.1239
63.2117
63.0512
63.1021
63.0203
63.1305
63.1885
63.0934
63.0683
63.1474
63.4034
63.1242
62.8447
63.1911
63.3118
63.0959
63.0508
63.1883
63.2809
63.3497
63.1165
62.9833
63.0571
63.1598
63.155
63.2025
63.1124
63.1196
63.0668
63.1133
63.1661
63.1143
63.0798
63.1148
63.3779
63.1672
62.9504
63.1972
63.266
63.1199
63.0884
63.1787
63.2064
63.2531
63.1921
63.0839
63.097
63.169
63.1832
63.1808
63.1643
63.1455
63.1434
63.1433
63.1653
63.1363
63.1155
63.1351
63.322
63.174
63.0061
63.1689
63.2294
63.1383
63.1019
63.1548
63.1078
63.1633
63.2532
63.1326
63.1304
63.1761
63.1592
63.1702
63.1884
63.1524
63.1797
63.1454
63.1552
63.1458
63.1418
63.1434
63.2446
63.1664
63.0291
63.1348
63.222
63.1316
63.0869
63.1227
63.0377
63.0835
63.2718
63.1805
63.1466
63.1622
63.0973
63.1096
63.1918
63.1235
63.1551
63.1151
63.116
63.1351
63.1224
63.1074
63.1548
63.1565
63.0619
63.1095
63.1647
63.1184
63.048
63.0884
63.0128
63.0319
63.236
63.1627
63.1329
63.1234
63.004
63.0362
63.1769
63.0835
63.0763
63.0649
63.0604
63.1099
63.0707
63.0443
63.0755
63.132
63.0722
63.053
63.0899
63.0692
63.0037
63.0531
63.0013
63.0113
63.1884
63.1196
63.1055
63.0722
62.945
62.9845
63.1606
63.0412
62.9879
63.0104
63.0011
63.0806
63.0297
63.0071
63.0563
63.0947
63.121
63.0294
63.0422
62.9781
62.9574
63.0242
63.0118
63.0225
63.1582
63.0933
63.1177
63.0403
62.9366
62.9766
63.17
63.0209
62.9097
62.9708
62.9719
63.0668
63.0117
63.0236
63.0444
63.0584
63.1084
63.0126
62.9973
62.9053
62.978
63.0149
63.0383
63.0504
63.1421
63.1044
63.1466
63.0416
62.9684
63.0041
63.194
63.035
62.914
62.9578
62.9777
63.0787
63.0115
63.0112
63.0227
62.9858
63.0017
62.932
62.9499
62.8517
63.0629
63.0228
63.1199
63.0999
63.1094
63.0667
63.1789
63.0552
63.0116
63.0479
63.2413
63.0678
62.9741
62.9707
63.0079
63.0975
63.0316
63.0372
63.0264
62.8973
62.8899
62.9514
62.9913
62.8124
63.0584
63.0852
63.2735
63.1649
63.0421
62.98
63.1286
63.0542
63.0615
63.0948
63.2351
63.1072
63.0367
63.0006
63.0579
63.1071
63.0608
63.0729
63.0815
62.8306
62.8093
63.0783
63.12
62.7642
63.0137
63.1332
63.336
63.1914
62.9772
62.8977
63.0083
63.0515
63.1144
63.1468
63.1785
63.117
63.0892
63.026
63.1172
63.1007
63.1093
63.1289
63.1227
62.848
62.8582
63.1013
63.1794
62.7504
63.0233
63.1432
63.2351
63.1898
62.9379
62.8287
62.914
63.0678
63.1756
63.189
63.028
63.0944
63.0802
63.0721
63.1472
63.0903
63.1782
63.1494
63.1664
62.998
62.9976
63.0606
63.1755
62.8209
63.042
63.111
63.1309
63.1628
62.9453
62.7949
62.9038
63.0614
63.185
63.1763
62.952
63.0738
63.0451
63.1144
63.1254
63.078
63.2001
63.1676
63.2135
63.2592
63.1731
63.3242
63.1492
62.9801
63.047
63.1389
63.0666
63.1354
63.0267
62.8603
62.9547
63.05
63.0912
63.1167
62.9586
63.0673
63.0392
63.0782
63.076
63.0712
63.1496
63.1448
63.16
63.3984
63.1402
63.2738
63.1274
63.135
63.0837
63.1127
63.0323
63.1098
63.1224
62.9935
63.0208
63.018
62.9948
63.0486
63.0173
63.0652
63.0322
63.0091
63.0241
63.0737
63.0688
63.0887
63.0724
63.2698
63.0578
63.1017
63.0825
63.2212
63.0789
63.0281
63.001
63.0844
63.1828
63.1058
63.0743
62.985
62.9279
62.9997
63.0651
63.0786
63.0377
62.9579
62.9818
63.0916
63.0152
63.018
63.0397
63.2102
63.0545
63.0283
63.0848
63.2472
63.054
62.9695
62.981
63.0815
63.2172
63.177
63.1178
62.9909
62.9082
63.0018
63.1133
63.1131
63.0679
62.9502
63.0004
63.1222
63.0463
63.0162
63.0638
63.225
63.1162
63.0259
63.117
63.2367
63.0762
62.9641
63.0091
63.1131
63.2295
63.2099
63.1635
63.0434
62.9507
63.0652
63.1628
63.1318
63.1098
63.0136
63.076
63.15
63.1086
63.0736
63.1126
63.2048
63.1388
63.0486
63.1745
63.2118
63.1309
63.0139
63.0761
63.1729
63.2357
63.224
63.2063
63.1419
63.0653
63.1738
63.2179
63.1869
63.1752
63.1087
63.1872
63.2112
63.1797
63.1529
63.1708
63.1873
63.1362
63.0895
63.2513
63.1936
63.1861
63.0951
63.1622
63.2337
63.2613
63.2251
63.2629
63.2554
63.2066
63.2835
63.2471
63.2715
63.2567
63.2014
63.3235
63.3253
63.3372
63.2441
63.2337
63.2228
63.1471
63.1352
63.3204
63.2228
63.2276
63.1671
63.2448
63.2831
63.3301
63.2604
63.2698
63.2979
63.2995
63.3454
63.276
63.3238
63.3197
63.3002
63.4373
63.4417
63.4359
63.3876
63.2839
63.3156
63.1836
63.1557
63.364
63.2777
63.2824
63.2129
63.3059
63.3178
63.4218
63.3448
63.2251
63.3113
63.3233
63.3591
63.2423
63.2628
63.3132
63.3884
63.4634
63.439
63.38
63.3916
63.3343
63.4376
63.2433
63.1627
63.392
63.3926
63.3307
63.2403
63.3517
63.3458
63.5375
63.43
63.2617
63.3046
63.3209
63.3519
63.1267
63.2486
63.3088
63.4075
63.4293
63.3529
63.321
63.3716
63.4119
63.5022
63.3365
63.2331
63.4166
63.4783
63.3796
63.2947
63.3768
63.3674
63.6845
63.5323
63.3739
63.3439
63.35
63.3498
63.3814
63.3395
63.3028
63.3867
63.3839
63.3345
63.3043
63.3493
63.4613
63.4301
63.3822
63.3286
63.4346
63.4092
63.326
63.3345
63.3877
63.3791
63.5964
63.4338
63.301
63.3562
63.3791
63.3486
63.5036
63.3436
63.2967
63.3443
63.3584
63.3293
63.3063
63.3308
63.4592
63.3044
63.3612
63.3829
63.4315
63.2656
63.2512
63.336
63.3812
63.3796
63.4038
63.3178
63.2127
63.3523
63.3674
63.3436
63.411
63.2968
63.2796
63.3048
63.3303
63.3174
63.3111
63.3164
63.4286
63.2896
63.3237
63.383
63.4113
63.2396
63.2706
63.3378
63.3548
63.373
63.3026
63.246
63.2166
63.3376
63.332
63.3386
63.3305
63.3165
63.3037
63.285
63.3129
63.3243
63.3225
63.3196
63.3927
63.3042
63.3104
63.3549
63.39
63.2677
63.303
63.3413
63.3353
63.3655
63.2847
63.2536
63.2849
63.3257
63.3073
63.3407
63.3099
63.3379
63.3256
63.2816
63.31
63.3396
63.3368
63.3288
63.368
63.3343
63.3082
63.3335
63.3844
63.3118
63.3367
63.3438
63.3266
63.3596
63.309
63.2931
63.3466
63.389
63.3063
63.343
63.3271
63.3389
63.3403
63.2704
63.3141
63.352
63.3337
63.3257
63.374
63.3437
63.3132
63.3489
63.3914
63.3411
63.3605
63.3577
63.3184
63.3458
63.3401
63.3324
63.371
63.4135
63.3034
63.3418
63.3501
63.3339
63.3321
63.2705
63.3128
63.3522
63.3311
63.3099
63.3831
63.33
63.3187
63.3586
63.3975
63.3513
63.3799
63.3496
63.2989
63.3255
63.3582
63.3562
63.3752
63.3844
63.3064
63.3326
63.3572
63.3315
63.3137
63.2966
63.3181
63.3476
63.3101
63.3143
63.383
63.3173
63.337
63.3638
63.3942
63.3396
63.3419
63.3256
63.2833
63.3043
63.3591
63.352
63.3678
63.3498
63.303
63.3114
63.3504
63.3283
63.3229
63.3346
63.3298
63.3339
63.288
63.3446
63.3766
63.3196
63.3542
63.3589
63.3824
63.3255
63.3097
63.296
63.2626
63.2818
63.3543
63.345
63.3411
63.3139
63.265
63.2817
63.3438
63.3274
63.32
63.3392
63.3143
63.3302
63.3221
63.4112
63.3676
63.3214
63.3501
63.3509
63.3643
63.3379
63.3654
63.2842
63.2427
63.2684
63.3519
63.3401
63.3174
63.2773
63.2179
63.2494
63.3411
63.3152
63.3032
63.3085
63.2732
63.3254
63.3618
63.4357
63.3583
63.3335
63.336
63.3377
63.3424
63.3518
63.3777
63.2756
63.2271
63.2545
63.3548
63.3348
63.31
63.252
63.1962
63.2224
63.3446
63.2986
63.2764
63.246
63.2389
63.311
63.3229
63.3222
63.3399
63.3498
63.3056
63.3052
63.3104
63.3673
63.3485
63.2557
63.1941
63.2216
63.3681
63.3456
63.2971
63.2359
63.1656
63.1869
63.3499
63.2948
63.2431
63.2022
63.2067
63.295
63.2789
63.2499
63.312
63.3973
63.3005
63.2604
63.2661
63.3847
63.3342
63.2368
63.1448
63.1775
63.3851
63.3653
63.2932
63.2067
63.1251
63.1409
63.3537
63.2915
63.207
63.1628
63.1667
63.2815
63.2424
63.2028
63.2909
63.4464
63.3692
63.2547
63.2119
63.4052
63.3179
63.212
63.066
63.107
63.3993
63.3885
63.2906
63.1626
63.0538
63.0593
63.3678
63.2811
63.1618
63.1094
63.1031
63.2723
63.2067
63.148
63.2826
63.4621
63.3841
63.2643
63.1459
63.4273
63.3174
63.1648
62.9474
62.9873
63.4156
63.4108
63.2763
63.0988
62.9288
62.927
63.3953
63.2699
63.1083
63.039
62.9999
63.2641
63.1691
63.0845
63.2895
63.4798
63.4312
63.2439
63.0538
63.4587
63.3237
63.0851
62.7662
62.7903
63.4404
63.4223
63.2703
63.0195
62.7435
62.7047
63.4137
63.2677
63.0341
62.9298
62.8353
63.2577
63.1191
62.9986
63.2859
63.4968
63.4515
63.2336
62.9216
63.498
63.3261
62.9908
62.489
62.4301
63.4838
63.4471
63.2735
62.9309
62.469
62.3071
63.4225
63.258
62.9584
62.7481
62.5665
63.2534
63.0689
62.892
63.2566
63.5489
63.4548
63.2265
62.7325
63.579
63.3541
62.8713
62.0152
61.7223
63.5481
63.5094
63.3021
62.8332
62.0467
61.4885
63.4451
63.2602
62.8605
62.4956
62.1133
63.2532
63.0133
62.7619
63.1797
63.6815
63.4142
63.1292
62.4589
63.6822
63.3884
62.6514
61.3199
60.2679
63.6314
63.5976
63.3747
62.7158
61.3757
59.6558
63.4897
63.2714
62.751
62.1095
61.297
63.256
62.9566
62.6221
63.0443
63.6543
63.3094
62.9641
62.1234
63.7298
63.3348
62.3763
60.4992
57.0024
63.7267
63.6816
63.4186
62.5513
60.4883
55.8554
63.5369
63.2588
62.6488
61.6536
59.8731
63.2596
62.9118
62.4852
62.8595
63.4682
63.0827
62.7314
61.8199
63.6612
63.1375
62.1392
59.7911
48.3756
63.7978
63.6864
63.3683
62.3697
59.6734
51.4496
0.343218
63.544
63.2263
62.5574
61.1579
57.0003
63.2843
62.8828
62.4013
62.6647
63.0291
62.8897
62.5082
61.7345
63.3475
62.8591
62.0392
59.5913
42.9534
3.19818
63.7498
63.5932
63.1538
62.2205
59.5991
49.9159
14.0171
63.4855
63.0819
62.5328
60.8529
52.8577
63.2512
62.878
62.4724
62.5002
62.5471
62.5489
62.2855
61.9313
62.9661
62.5211
62.0437
60.3203
50.6183
19.1708
63.5706
63.3744
62.8286
62.1361
60.4722
50.3147
21.0845
63.5543
63.0557
62.5162
61.2232
54.2974
25.1983
63.2512
62.905
62.7047
62.3933
62.6543
62.1415
62.1488
62.2069
62.7248
62.3694
62.0136
61.0877
52.692
23.0815
63.3346
63.122
62.6978
62.1757
61.404
53.1776
21.7459
63.747
63.2172
62.7238
61.7052
57.8406
63.3257
63.0095
62.9532
62.4103
62.4058
61.9452
62.1249
62.4317
62.5734
62.3512
62.2013
61.5917
58.3627
63.1453
62.9282
62.6732
62.4355
62.0427
57.9745
-1.6274
63.5926
63.2274
62.9194
62.4417
62.569
63.4254
63.1045
63.1091
62.5538
62.4713
62.2497
62.2941
62.6023
62.5546
62.3782
62.4459
62.1066
62.0878
63.026
62.769
62.5972
62.6683
62.688
62.9171
63.253
63.0034
62.9696
62.9501
63.4553
63.2323
63.071
63.2357
62.7011
62.6588
62.5641
62.5243
62.7561
62.6199
62.3968
62.5859
62.4692
62.9831
62.9662
62.7084
62.554
62.7847
63.0236
63.786
62.9099
62.739
62.9447
63.1013
63.557
62.9768
62.9885
63.2371
62.7006
62.867
62.7479
62.7478
62.9158
62.7421
62.4881
62.7608
62.7409
63.3255
62.9736
62.7272
62.5471
62.8135
63.1301
63.737
62.7472
62.5888
62.8933
63.1357
63.4984
62.7518
62.9408
63.1779
63.0335
63.0792
62.9367
62.9913
63.1251
62.9214
62.7156
62.9293
62.9627
63.5355
63.0387
62.8105
62.6364
62.8298
63.1623
63.6802
62.7063
62.5116
62.8701
63.1239
63.4428
62.6234
62.924
63.1394
63.2413
63.3132
63.1173
63.1321
63.2381
63.1445
62.9398
63.1302
63.2631
63.7088
63.1633
62.9613
62.8098
62.9216
63.2924
63.6817
62.736
62.5795
62.9426
63.2203
63.4625
62.6564
62.9883
63.1918
63.3569
63.582
63.3197
63.2579
63.3492
63.3945
63.1399
63.3388
63.5624
63.8983
63.3629
63.1647
62.9949
63.0988
63.4644
63.7607
62.9361
62.758
63.1409
63.3741
63.5873
62.829
63.1443
63.3463
63.587
63.9132
63.5381
63.3892
63.5534
63.6968
63.362
63.3674
63.6828
64.1619
63.675
63.4266
63.1941
63.2679
63.5816
63.947
63.196
62.9863
63.215
63.5468
63.8101
63.0326
63.3741
63.5898
63.8808
64.1089
63.7307
63.5248
63.7876
63.8748
63.4813
63.465
63.7869
64.434
64.0172
63.615
63.297
63.3573
63.6735
64.1542
63.4522
63.1313
63.3354
63.6975
64.0056
63.2241
63.5415
63.7933
262.79
332.325
288.013
328.173
355.261
369.854
388.96
408.025
274.519
284.766
263.865
291.26
289.684
301.629
369.279
323.884
364.834
363.724
380.643
359.596
367.069
423.893
454.355
408.05
479.754
472.513
257.791
258.464
261.593
262.123
279.078
260.535
268.485
307.716
342.243
270.577
304.484
349.2
346.73
333.157
319.993
381.23
454.088
336.311
394.576
464.184
438.208
414.789
262.938
268.367
286.815
263.127
254.787
261.304
247.385
251.241
262.813
244.253
245.658
296.172
297.969
263.786
294.632
294.29
341.808
290.758
322.738
397.842
389.942
370.502
297.865
288.275
252.031
288.806
273.074
242.881
238.12
247.51
249.332
235.84
265.005
237.61
222.754
293.473
328.34
279.791
302.916
345.664
272.042
263.725
294.515
308.608
287.647
271.567
294.038
257.716
247.058
247.896
292.136
253.295
280.785
269.277
248.433
261.594
331.742
356.858
293.17
295.234
296.083
369.97
289.362
252.868
244.366
242.328
255.609
251.819
228.165
237.016
234.268
248.125
393.266
375.091
410.474
299.567
297.587
307.712
305.713
411.979
299.877
249.521
253.585
252.706
249.3
249.84
249.084
392.489
377.063
296.695
285.575
273.945
258.101
252.096
248.73
243.609
227.083
361.576
326.718
250.108
262.537
219.419
252.355
221.794
228.63
231.462
226.721
217.687
222.141
217.398
219.772
260.362
215.864
241.882
177.445
178.016
176.52
180.901
198.494
230.223
221.613
234.981
241.872
222.882
207.995
203.227
216.871
226.329
181.763
181.223
183.587
191.213
222.056
132.767
204.469
232.362
205.533
138.087
176.621
135.607
191.595
186.802
121.325
103.924
87.1119
179.726
80.1168
211.422
156.91
211.345
203.973
223.661
156.966
159.75
153.954
169.162
193.396
192.388
197.391
81.8331
102.476
85.0427
95.2828
199.346
109.786
242.069
240.028
240.784
197.766
204.209
211.408
191.76
185.028
110.62
115.753
119.027
225.093
218.795
200.712
205.031
210.01
181.538
162.717
127.764
122.235
122.451
218.76
209.639
223.308
219.188
221.866
214.496
217.927
215.197
213.07
161.069
166.054
165.199
161.165
153.178
166.933
162.606
126.72
221.024
203.922
187.706
179.113
186.197
157.37
152.829
162.062
162.785
146.104
147.838
145.831
158.881
97.7099
83.7984
95.6275
88.2992
91.147
78.5749
74.6437
76.0296
78.7534
72.1531
76.3047
74.7844
72.9838
71.3008
73.2629
122.406
96.362
116.821
122.643
116.453
105.242
91.6737
97.2957
83.8256
72.5653
70.471
71.3084
72.8078
71.7365
71.1619
70.902
71.7579
70.4784
130.009
137.618
128.459
88.8479
88.1335
80.9287
75.0005
76.1617
69.8852
70.2806
70.2791
150.346
173.574
95.0933
86.9501
92.2945
82.7079
96.5004
73.8244
73.7639
82.6787
159.681
81.0452
186.473
188.447
175.556
93.5837
102.976
110.923
118.847
117.59
158.105
139.164
134.131
82.026
126.674
95.4756
87.4004
164.899
120.965
129.957
131.774
112.4
110.455
116.315
137.146
135.541
125.33
126.272
128.575
122.553
76.1878
71.1873
72.0555
72.612
71.7237
70.1049
70.6632
70.5986
72.4379
72.3746
70.628
69.8966
71.2767
72.4202
71.365
77.585
70.7826
74.1669
75.6818
73.8675
70.4685
67.558
69.2758
70.4147
71.64
70.6067
70.7012
71.039
71.228
69.6756
69.8486
70.7336
69.785
73.436
72.2588
71.3829
69.715
68.9124
69.3303
70.3131
70.7299
69.3841
69.0566
69.6223
71.8211
69.5421
70.3173
70.6523
68.438
71.1124
74.6754
68.9475
69.2359
68.7967
67.7746
71.0562
69.4577
70.9901
80.2909
69.1619
66.8306
67.2588
66.9539
71.8247
80.1662
70.8284
69.9489
71.9871
70.2643
71.0601
71.0459
85.2467
67.9519
89.5248
93.7848
69.4778
73.6865
70.4486
109.558
115.216
92.4025
91.1793
87.1828
77.4365
68.1576
67.2424
69.4741
69.4494
70.0625
69.0344
69.2745
69.875
68.2211
70.5024
67.8888
67.979
69.9518
70.6823
70.2157
68.5378
66.8733
66.272
68.7385
66.3252
66.5959
66.1608
67.2113
65.4161
70.5572
68.6718
68.5282
69.5268
69.1662
67.4747
67.1857
68.6103
67.3946
67.5723
67.102
67.1027
66.1444
66.2483
66.1322
67.8
68.3373
67.2092
66.7203
66.8041
68.8528
67.5998
66.6441
66.7217
66.7595
67.9312
66.6876
66.4472
66.2565
66.4012
69.4619
66.2027
66.8492
66.9883
65.9957
66.4839
66.2799
66.0145
65.9581
68.2643
68.9736
69.0791
64.6811
64.5559
65.5174
64.8028
65.1189
66.2228
66.2131
66.4186
66.0482
66.3899
65.5268
66.3066
76.1837
67.3065
62.3596
64.6571
63.6175
66.1933
68.3043
70.1505
68.401
70.2477
69.2313
67.4384
71.105
67.7209
67.653
69.3512
66.9366
67.0936
67.1963
68.7168
65.5275
65.851
65.9436
66.4478
65.8937
65.7633
66.5976
67.0162
65.8739
65.8684
67.265
66.3307
65.9654
66.0096
65.4164
64.9072
64.8274
66.0776
64.7508
65.5606
65.8956
65.8606
65.8548
65.728
65.8341
64.0864
65.7616
66.7547
65.0941
63.3792
65.0538
64.1858
64.8555
65.0688
64.8765
64.7142
64.8336
64.7313
64.8387
65.4465
66.2501
65.3441
64.9615
65.7892
66.5214
65.8183
65.4366
64.9011
64.2418
64.8796
63.8656
64.8854
64.9363
64.8854
64.8043
64.8661
64.8192
64.8942
65.3257
65.5448
65.7457
65.3816
65.6359
65.2809
65.4848
65.3304
65.3582
63.9683
63.2647
63.6938
63.9675
64.2725
63.5285
64.1198
64.3981
65.8095
65.4357
65.7901
66.0019
65.471
65.5609
65.5547
61.2627
65.2921
64.8372
63.2458
65.3975
63.5137
70.5984
65.0971
64.5736
68.3095
64.9232
62.975
63.2054
62.9604
64.6273
63.1779
62.8704
62.8898
62.9341
63.4689
63.1553
65.6762
64.2099
66.4695
65.4944
65.4165
63.9877
64.458
64.4452
64.5036
64.3699
63.9058
64.1498
63.2736
63.5743
63.4771
63.6637
64.4359
64.043
64.2089
64.7392
64.7648
64.826
64.72
64.8325
65.489
65.2287
65.4415
64.2399
64.5371
64.5738
64.589
64.8508
64.9569
64.5899
64.9615
64.8191
64.8525
64.8396
64.8258
64.8976
64.751
64.8626
64.7623
64.8515
64.6584
65.162
64.3872
64.368
64.6701
64.859
64.7452
64.6436
64.8454
64.7801
64.8311
64.7912
64.892
64.8981
64.8993
64.8307
64.8827
64.8763
64.9079
65.3166
64.9498
65.3771
65.2364
65.1419
65.0448
65.2455
65.0177
64.9133
64.4466
64.1157
64.3608
64.4181
64.4576
64.2502
64.3905
64.5411
64.9087
65.0272
64.8931
64.9005
64.9206
65.1522
64.9078
65.2392
65.2007
64.8728
64.9196
64.8669
64.2749
65.0395
64.6888
64.3461
64.6832
64.4331
62.5678
62.7661
62.9811
62.7279
62.8501
62.9073
62.7334
62.7965
63.042
62.9549
62.9448
62.9401
62.9056
62.9694
62.9095
63.6696
63.2622
63.0614
63.7638
63.5486
62.9143
62.6733
63.2345
63.0193
62.9581
63.1819
63.3035
62.8042
62.8725
62.9907
63.0942
64.0823
65.0009
63.6298
64.8855
64.7468
64.8786
64.8041
64.9072
63.6982
64.0718
64.0589
63.4179
63.6976
63.6795
65.0315
64.7121
64.8135
64.1936
64.9597
64.4815
64.7987
64.9149
64.8096
64.896
64.9107
64.9522
64.873
64.9132
64.057
64.3653
63.7712
63.7586
64.1475
64.8468
64.9467
64.9733
64.7532
64.8367
64.7858
64.9518
64.8992
64.9446
64.9321
64.8396
64.916
64.9313
64.9318
64.639
64.3543
64.838
64.7003
64.6351
64.4063
64.233
64.4132
64.3172
64.37
64.135
64.2678
64.1747
64.2346
63.992
64.1228
65.1888
64.5984
65.0302
64.9451
64.9677
64.9439
64.6359
64.3632
64.6608
64.5336
64.2643
64.4045
64.3135
64.0738
64.3711
64.0388
63.8574
64.1111
64.0494
62.8182
62.7807
62.8474
62.7385
62.7734
62.7855
62.754
62.7659
62.8571
62.8687
62.8193
62.8145
62.8475
62.8834
62.8684
62.9507
62.8077
62.7403
62.8213
62.8116
62.7679
62.7601
62.7605
62.77
62.8942
62.9031
62.9731
62.8597
62.8992
62.871
62.9138
63.0153
62.7305
63.1226
63.4267
63.3317
62.8496
63.1463
63.036
65.403
64.177
64.833
63.4804
65.1653
63.7448
64.5131
65.0139
64.9748
64.9811
65.1075
65.0349
64.9785
64.9758
63.4482
63.8501
63.2219
63.1486
63.4449
64.8347
64.6191
65.049
64.1703
64.506
63.9743
64.4763
64.9434
65.0108
64.9684
64.9254
64.9365
64.9539
64.9542
64.0767
63.6976
63.8142
64.1308
63.9787
63.837
63.5479
63.6987
63.6391
64.0169
63.8638
63.9768
63.829
63.8121
63.7684
63.8346
63.5429
64.0432
63.7294
64.1207
64.1109
63.8214
63.9136
63.9209
63.8022
64.006
64.0235
63.82
63.9719
63.8773
62.7538
62.7549
62.7723
62.7553
62.7627
62.7742
62.7504
62.7618
62.7892
62.8246
62.7798
62.7715
62.8034
62.8554
62.8526
62.7902
62.7849
62.7511
62.7821
62.7767
62.7573
62.7423
62.7803
62.7741
62.8966
62.8528
62.8924
62.8457
62.9076
62.8393
62.8981
62.7653
62.8857
62.7526
62.8411
62.8172
62.7686
62.7447
62.7385
63.2202
64.0182
62.7457
62.763
61.2822
62.8873
62.9595
62.731
62.7249
62.6918
64.2084
63.0884
63.2395
62.0031
62.9182
63.0508
62.7231
63.2395
63.213
63.3109
62.7573
62.9484
62.9239
63.0558
63.6753
63.6829
63.7006
63.53
63.5775
63.5792
63.6007
63.3886
63.4881
63.2853
63.7195
63.7442
63.4701
63.5326
63.5823
63.7843
63.9013
63.7463
63.6837
63.7519
63.6458
62.7381
62.7251
62.7698
62.7421
62.7564
62.7536
62.721
62.7417
62.7498
62.7822
62.7537
62.7288
62.7586
62.8621
62.8872
62.7845
62.7943
62.745
62.7699
62.8307
62.7346
62.7541
62.7579
62.8733
62.9304
62.8422
62.9176
62.8713
62.9663
62.8554
62.9511
62.9455
62.9752
62.7725
62.7785
62.7612
62.7944
62.8162
62.8096
62.8089
62.3344
62.9571
62.9747
62.9678
62.7137
62.716
62.7492
62.7322
62.7326
62.771
63.0294
63.2152
63.1838
63.1337
62.7219
62.7365
62.7987
62.8111
62.9199
62.6824
62.7709
62.7905
62.876
63.4963
63.473
63.5132
63.3049
63.4256
63.3797
63.4294
63.3322
63.1225
63.0191
63.3863
63.4269
63.2376
63.2601
63.3062
63.5368
63.5532
63.3737
63.3962
63.3806
63.3875
62.7127
62.6808
62.7383
62.6918
62.7242
62.7251
62.6618
62.7003
62.7153
62.761
62.7683
62.7146
62.787
62.9259
62.978
62.7829
62.7613
62.7507
62.769
62.8281
62.7127
62.7137
62.7508
62.7765
63.0058
62.8806
63.003
62.9442
63.0528
62.9176
63.0636
63.0156
63.0629
62.7946
62.8055
62.8141
62.7687
62.7538
62.7626
63.0729
63.079
63.1168
63.0956
63.087
62.747
62.7194
62.7443
62.7394
62.6918
63.2184
63.1804
63.2188
63.1802
63.1845
62.7278
62.6996
62.7517
62.7779
62.8547
62.6887
62.7193
62.767
62.834
63.3618
63.2956
63.3491
63.1858
63.3313
63.2219
63.3001
63.2688
62.9669
62.9327
63.1501
63.2083
63.1024
63.0616
63.1216
63.2767
63.2491
63.1504
63.184
63.1511
63.1756
62.6492
62.6415
62.7223
62.6383
62.679
62.7306
62.6221
62.67
62.7289
62.828
62.8499
62.7531
62.8745
63.032
63.0824
62.7258
62.7056
62.6618
62.6872
62.7337
62.6126
62.6325
62.6707
62.6792
63.1102
62.9624
63.117
63.0533
63.1684
63.0165
63.1629
63.1088
63.1485
62.736
62.73
62.7392
62.7097
62.7254
62.7276
63.091
63.1019
63.1525
63.0949
63.126
62.6922
62.656
62.6268
62.6119
62.6249
63.1592
63.1649
63.1682
63.1622
63.1456
62.6779
62.669
62.7003
62.763
62.8132
62.6872
62.7193
62.7614
62.8091
63.3278
63.1918
63.2813
63.1428
63.3353
63.1831
63.2703
63.2681
62.904
62.8883
63.0014
63.0522
63.0039
62.9632
63.0055
63.1136
63.0875
63.0576
63.0611
63.0547
63.0996
62.6638
62.6983
62.752
62.6237
62.6735
62.7869
62.6482
62.6935
62.7879
62.9228
62.9599
62.8339
62.9728
63.1277
63.1709
62.7149
62.7481
62.638
62.7073
62.6493
62.7036
62.6609
62.7752
62.6622
63.215
63.0695
63.2076
63.1421
63.2492
63.1152
63.2527
63.185
63.2213
62.7122
62.7407
62.7383
62.7466
62.7636
62.7582
63.1086
63.1458
63.1989
63.1275
63.1687
62.5823
62.6281
62.6498
62.6278
62.6779
63.1778
63.154
63.1884
63.1944
63.1599
62.6803
62.7267
62.7538
62.7725
62.825
62.7456
62.8043
62.8078
62.8578
63.3097
63.1804
63.2622
63.1415
63.2849
63.1633
63.2473
63.228
62.8944
62.9156
62.9462
62.983
62.992
62.9464
62.9837
63.04
63.0442
63.0489
63.0407
63.0454
63.15
62.7407
62.7881
62.8376
62.6877
62.7287
62.8999
62.736
62.7765
62.8903
63.0226
63.0998
62.9535
63.0724
63.2111
63.2489
62.7947
62.8513
62.6825
62.8484
62.6978
62.8005
62.7024
62.9047
62.7308
63.2795
63.1519
63.2943
63.2174
63.3101
63.1932
63.3356
63.2646
63.3064
62.799
62.7978
62.795
62.8645
62.8385
62.8428
63.1614
63.1898
63.2603
63.1977
63.2168
62.7167
62.7479
62.8325
62.7958
62.8181
63.2046
63.169
63.1786
63.2002
63.1742
62.798
62.874
62.8625
62.864
62.9042
62.8866
62.9153
62.9271
62.9518
63.27
63.1435
63.2362
63.1874
63.2581
63.1422
63.2288
63.2288
62.9471
62.9824
62.9591
62.994
63.0279
62.9776
63.0052
63.0437
63.0556
63.0743
63.0673
63.0661
63.1057
62.8422
62.9033
62.9724
62.802
62.8383
63.0508
62.8777
62.9083
63.0218
63.1243
63.2446
63.092
63.1767
63.2841
63.3134
62.9088
62.9608
62.7254
62.9449
62.7631
62.9032
62.7568
62.9837
62.7962
63.3327
63.2334
63.3688
63.2759
63.3544
63.2646
63.3922
63.342
63.3687
62.9309
62.8756
62.8811
62.9887
62.9063
62.909
63.2275
63.2421
63.3086
63.2516
63.2742
62.8423
62.8792
62.9258
62.8691
62.9184
63.1993
63.1883
63.1972
63.2096
63.2048
62.9402
62.9847
62.9646
62.9864
62.9945
62.9952
63.0025
63.0316
63.0264
63.2529
63.1917
63.2692
63.2646
63.2385
63.2422
63.2975
63.2336
63.0155
63.0427
62.9963
63.0205
63.0642
63.0176
63.0365
63.0907
63.0735
63.0866
63.0954
63.08
63.1668
62.9658
63.0229
63.1258
62.9541
62.9806
63.1912
63.0225
63.0488
63.1578
63.225
63.3494
63.2139
63.2646
63.3353
63.35
63.0061
63.0415
62.7916
63.0268
62.8238
63.0187
62.8278
63.0656
62.8481
63.3709
63.2845
63.417
63.314
63.3866
63.2961
63.4434
63.393
63.4149
63.0339
62.9372
62.9376
63.0657
62.9813
62.9794
63.2775
63.3083
63.3584
63.3281
63.3433
62.9008
62.9434
62.9726
62.9553
62.9685
63.2185
63.2075
63.2095
63.2268
63.2137
63.0148
63.0416
63.0311
63.0514
63.0479
63.0314
63.0561
63.0585
63.0599
63.2038
63.2272
63.2568
63.1801
63.1648
63.1945
63.1888
63.2017
63.061
63.0722
63.0286
63.047
63.0846
63.0329
63.0539
63.0969
63.0813
63.0772
63.0787
63.075
63.1789
63.0745
63.1178
63.247
63.0801
63.106
63.2861
63.1276
63.1516
63.2582
63.294
63.4021
63.2873
63.3123
63.3578
63.3603
63.0692
63.0872
62.8649
63.098
62.8756
63.0948
62.8976
63.1199
62.9029
63.3893
63.2971
63.4433
63.3221
63.3764
63.29
63.4104
63.4229
63.3999
63.0888
63.0333
63.029
63.1081
63.0862
63.0802
63.3619
63.3594
63.3772
63.3671
63.3591
63.0262
63.0061
63.0663
63.0916
63.0565
63.2268
63.2156
63.2102
63.2246
63.2174
63.0756
63.1161
63.0863
63.0723
63.0773
63.0793
63.123
63.096
63.0989
63.1298
63.1491
63.136
63.1083
63.0991
63.1224
63.1
63.1734
63.0865
63.1047
63.0404
63.0642
63.1038
63.0517
63.0764
63.07
63.0702
63.0702
63.0795
63.0734
63.1228
63.1501
63.1747
63.3087
63.1664
63.1836
63.3185
63.1917
63.2005
63.3032
63.3218
63.3928
63.3073
63.3221
63.3535
63.3369
63.098
63.1116
62.9269
63.1318
62.9296
63.1498
62.9558
63.1339
62.9532
63.3474
63.2651
63.3466
63.2929
63.3138
63.2335
63.2838
63.3519
63.2979
63.1302
63.1316
63.1238
63.1546
63.1689
63.1616
63.3464
63.3367
63.3049
63.3111
63.3045
63.1455
63.1114
63.1586
63.1859
63.1633
63.2136
63.2165
63.1864
63.1937
63.201
63.1564
63.1918
63.1541
63.122
63.1191
63.1433
63.1834
63.1454
63.142
63.096
63.1117
63.0871
63.1265
63.1092
63.1153
63.1078
63.164
63.1229
63.1403
63.0653
63.0903
63.1258
63.081
63.1043
63.0949
63.0846
63.096
63.1166
63.1003
63.121
63.1953
63.2099
63.3134
63.2053
63.2066
63.299
63.211
63.204
63.3017
63.3126
63.3514
63.293
63.2961
63.3168
63.2992
63.1335
63.1538
62.9877
63.1317
62.974
63.1745
63.016
63.1276
62.9885
63.278
63.2077
63.2425
63.2427
63.2459
63.186
63.217
63.2482
63.2078
63.1785
63.1975
63.1943
63.1975
63.2177
63.2208
63.2732
63.2594
63.2075
63.2302
63.2162
63.2176
63.2081
63.2227
63.2501
63.2451
63.1825
63.1923
63.1738
63.1684
63.1785
63.2212
63.246
63.2053
63.1646
63.161
63.1771
63.2212
63.1816
63.178
63.1332
63.1326
63.1346
63.1474
63.1447
63.1436
63.147
63.1616
63.1561
63.1681
63.0971
63.1185
63.1433
63.1079
63.1285
63.1347
63.1187
63.1309
63.1391
63.1326
63.1448
63.215
63.2097
63.2773
63.211
63.1927
63.2504
63.2056
63.1754