/*--------------------------------*- C++ -*----------------------------------*\
| =========                 |                                                 |
| \\      /  F ield         | OpenFOAM: The Open Source CFD Toolbox           |
|  \\    /   O peration     | Version:  5.x                                   |
|   \\  /    A nd           | Web:      www.OpenFOAM.org                      |
|    \\/     M anipulation  |                                                 |
\*---------------------------------------------------------------------------*/
FoamFile
{
    version     2.0;
    format      ascii;
    class       surfaceScalarField;
    location    "3";
    object      phi;
}
// * * * * * * * * * * * * * * * * * * * * * * * * * * * * * * * * * * * * * //

dimensions      [0 3 -1 0 0 0 0];

internalField   nonuniform List<scalar> 
29271
(
-1.02833e-05
9.23437e-06
-4.55231e-06
5.61044e-06
-1.35742e-05
1.33639e-06
-5.01459e-07
1.28353e-05
-4.60176e-05
-1.21746e-05
1.69872e-05
-2.82401e-05
-3.12744e-07
6.97578e-05
-5.16889e-05
3.95158e-06
2.59923e-05
-1.95392e-05
3.14868e-06
3.81356e-05
-3.33115e-05
2.01343e-06
-5.44983e-06
5.97852e-07
2.2567e-05
1.35831e-05
-5.64475e-05
-1.48372e-05
-5.64313e-06
-4.24995e-06
9.24381e-06
7.1934e-05
-4.11048e-05
-7.49846e-06
1.30604e-05
-1.55013e-05
2.40877e-05
2.69565e-05
-5.59684e-05
-1.9589e-05
2.44348e-05
-1.90181e-05
2.68284e-05
4.33124e-05
-2.49874e-05
-5.17286e-06
1.13821e-05
-7.11456e-06
1.04741e-05
1.54186e-05
-2.61382e-05
-3.41745e-07
3.01181e-06
1.97733e-05
3.84593e-06
-1.00874e-05
5.24101e-06
-1.37573e-06
6.26399e-06
-4.68037e-05
-1.63388e-05
-1.17255e-06
2.09828e-05
2.2073e-06
4.11249e-05
-4.83526e-05
-3.18602e-05
-1.23223e-05
-1.8025e-06
1.44476e-05
7.989e-05
-4.51752e-05
-2.56984e-05
1.81641e-05
-2.45825e-05
2.23842e-05
5.49078e-05
-8.65366e-05
-2.23367e-05
1.66576e-05
-1.9974e-05
7.85427e-06
0.000104336
-3.2824e-05
-3.67349e-06
-5.03192e-06
6.64756e-06
2.19125e-05
1.29693e-05
-3.55739e-05
-3.08341e-06
7.62752e-06
-1.09424e-06
3.03453e-05
1.77875e-06
-5.07937e-05
-1.1114e-05
2.4877e-06
8.00316e-06
-8.65729e-06
6.00741e-05
-5.78347e-05
-1.38639e-05
-8.5221e-07
-1.57292e-05
-2.32623e-06
9.06063e-05
-5.09433e-05
-9.28633e-06
5.60862e-06
4.14568e-05
-6.49709e-06
1.96613e-05
-1.07193e-05
-3.48095e-06
6.99301e-06
7.36343e-06
-3.7919e-05
1.22643e-06
-5.40874e-06
2.41982e-05
1.79771e-05
-3.66249e-05
-1.85718e-06
1.64271e-07
-4.04612e-06
2.81753e-05
1.41886e-05
-1.9538e-05
3.51421e-06
4.03023e-06
1.21562e-05
-4.81586e-06
2.52508e-07
7.05839e-07
3.85675e-06
-2.8577e-05
-1.88499e-05
-4.68329e-06
5.19133e-05
-1.36285e-05
6.21454e-06
-6.98114e-05
8.19079e-06
2.4578e-06
6.65767e-05
-2.65765e-06
-3.1378e-05
-4.02523e-07
-2.65354e-06
-2.09216e-06
3.91839e-05
-2.06087e-05
4.34131e-07
-2.26606e-06
-1.08628e-06
2.14559e-05
2.07097e-06
2.29162e-05
-3.745e-06
-7.34236e-05
9.25269e-06
-3.37375e-06
4.83734e-05
1.04471e-05
-4.99967e-06
0.000151856
-2.12031e-05
-3.45099e-05
-4.05157e-05
-4.46125e-05
3.06804e-06
4.76117e-06
9.45082e-06
1.08173e-05
-1.35534e-05
-2.0351e-05
-5.71181e-06
-4.94324e-06
3.02533e-06
-4.29184e-07
0.000125255
-2.84876e-05
-2.29616e-05
-4.43439e-05
-3.42687e-05
1.27763e-06
2.14612e-07
7.98676e-06
3.17861e-06
-2.56005e-06
-1.49494e-05
8.82842e-05
-9.2983e-07
-8.02636e-07
1.29076e-06
7.16136e-07
-2.37325e-06
-9.14851e-07
-1.08095e-06
-1.60264e-05
-1.57363e-05
-1.6618e-05
-1.5274e-05
-1.68893e-05
-1.23589e-07
-4.23661e-07
1.48533e-05
-2.4731e-06
-1.59717e-07
1.22915e-06
1.44321e-06
-1.74323e-06
-3.85322e-05
-1.51737e-05
5.30747e-06
1.18899e-05
3.82519e-05
9.13704e-05
4.33012e-05
0.00024777
-8.47937e-05
-7.82041e-05
-8.45941e-05
-8.75098e-05
-2.20166e-05
-1.45141e-05
-8.75358e-06
-7.05474e-06
2.93011e-05
5.72577e-05
0.000278284
-5.88734e-05
-6.332e-05
-7.75032e-05
-7.42048e-05
4.07227e-07
-8.35498e-07
0.000267697
1.7729e-06
2.20004e-06
5.945e-06
-1.70981e-06
4.4211e-06
-2.04503e-06
-0.000106189
-4.19124e-05
-6.26012e-05
-5.27992e-05
-1.28122e-05
-4.76516e-07
-4.46026e-07
3.27356e-06
1.08684e-05
-3.50624e-05
3.00098e-06
7.77773e-08
-4.29334e-06
4.35979e-05
-7.32086e-06
0.000111935
2.55342e-06
0.000238702
-2.08086e-05
-1.7838e-05
-1.20277e-05
-7.66549e-06
5.03602e-06
3.01161e-06
6.75853e-06
-7.01479e-05
-7.62065e-05
-5.59384e-05
-6.40627e-05
9.36069e-06
1.0664e-05
0.000538252
8.07858e-06
1.94441e-05
1.06833e-05
9.25244e-06
1.68566e-05
1.75553e-05
-0.000123938
-8.3614e-05
-0.000132362
-0.00013104
-5.18699e-05
1.07134e-06
-3.71915e-06
6.3043e-05
-3.87897e-06
-1.50059e-06
-2.75077e-06
8.13569e-06
-5.4257e-06
-1.78584e-06
5.74238e-06
4.06253e-06
-3.24091e-05
-6.02507e-06
2.40028e-06
2.22021e-07
4.64759e-05
-5.85114e-06
-5.87443e-07
7.81201e-07
5.61071e-06
-2.0476e-06
-3.363e-07
2.04944e-06
4.39455e-07
-6.88549e-05
5.54629e-06
5.71633e-06
5.72703e-05
6.77169e-06
-6.20711e-06
-6.24372e-05
1.35481e-05
-4.2474e-06
5.2572e-05
-3.79101e-06
-6.4945e-05
-3.60551e-05
2.88241e-05
-1.6327e-06
7.75997e-05
-2.23562e-05
1.04126e-06
-1.40651e-06
-4.32025e-07
3.24036e-05
-9.25017e-06
4.86732e-06
1.17672e-06
-2.94932e-05
1.47068e-07
-1.44959e-06
2.47517e-05
1.86197e-05
-3.12037e-05
0.000112727
7.48678e-06
8.49921e-06
6.88683e-06
1.8447e-05
-3.35378e-07
9.88144e-07
2.11958e-06
7.62088e-06
2.187e-05
-4.79398e-05
0.000108868
1.29199e-05
1.13906e-05
1.76223e-05
1.91442e-05
1.40824e-06
-2.96241e-05
0.000116929
4.20994e-06
3.07437e-06
4.84562e-06
1.87313e-06
1.04813e-06
4.0352e-06
2.35503e-06
-1.44992e-05
5.43992e-07
-1.82441e-06
1.71778e-05
-2.28721e-06
5.93391e-07
-5.7231e-07
2.27246e-06
1.28307e-06
-3.88059e-05
2.05852e-06
-2.36772e-06
-3.92598e-06
4.1758e-05
2.12163e-05
1.08454e-05
0.000169049
1.44869e-06
1.03365e-06
7.26314e-06
5.70949e-06
3.57617e-05
1.7788e-05
0.000198011
4.29743e-06
-1.66673e-05
0.000269135
6.09414e-06
1.20704e-05
9.08275e-06
-2.95109e-06
-5.42411e-06
-1.8022e-06
-1.02947e-05
2.14239e-06
2.81264e-06
-5.52149e-06
1.51586e-05
-4.63376e-05
5.08211e-06
-1.8622e-06
-2.18652e-06
4.42144e-05
1.08979e-06
1.35106e-05
7.81756e-07
0.000232953
-3.02214e-06
-1.64617e-06
8.38583e-07
6.05148e-08
2.30474e-06
6.65389e-07
3.10077e-06
1.47746e-05
2.48826e-05
0.000423151
5.72138e-06
8.55268e-06
4.99884e-06
2.48761e-05
3.1727e-05
3.08666e-05
-7.06124e-05
2.02335e-05
-2.78069e-06
5.12668e-05
-2.52929e-05
5.08718e-06
-1.9986e-05
4.01007e-05
-3.87828e-06
-7.51886e-07
2.25942e-06
3.16574e-06
-6.64218e-05
-4.61092e-07
-7.62437e-06
2.55165e-06
9.68382e-05
-1.16532e-05
-8.60765e-06
7.94679e-06
1.21067e-05
5.43656e-07
-8.61493e-08
6.41196e-07
-1.01107e-06
-4.68743e-05
2.519e-06
4.77827e-06
3.9314e-05
8.12744e-06
-1.39944e-06
-3.40125e-05
1.88504e-06
-3.77172e-06
2.91712e-05
-1.07265e-06
-6.82288e-05
-7.49098e-06
2.77066e-05
-3.09334e-06
5.21793e-05
-5.09054e-05
-2.89885e-06
1.73017e-05
1.48323e-06
6.51118e-05
-3.00925e-05
-5.61075e-06
-3.04899e-06
-2.91137e-05
-1.06138e-06
1.65196e-06
3.71829e-05
4.43033e-06
-9.91331e-06
6.72487e-05
4.47981e-06
1.07117e-05
3.62888e-06
1.09767e-05
3.69784e-06
7.85103e-06
3.00673e-06
6.60857e-06
1.30437e-05
-2.46894e-05
9.57774e-05
7.28753e-06
1.00882e-05
6.0325e-06
5.75812e-06
1.25192e-06
-1.39345e-05
0.000170615
-8.592e-07
-5.98221e-06
-4.02383e-06
-9.05279e-06
-1.87046e-06
-2.52065e-06
-3.6509e-06
-2.628e-05
-1.33886e-06
-3.88298e-06
3.27547e-05
-1.026e-06
2.89166e-08
1.19721e-06
-8.42121e-08
-4.80041e-06
-4.69524e-05
-1.25891e-06
-1.06044e-06
6.81184e-07
5.33909e-05
-1.95063e-06
-4.53642e-06
0.000130692
7.91884e-06
9.33362e-06
7.9013e-06
9.77733e-06
3.58559e-05
-2.19199e-05
0.000157435
4.73791e-06
-2.91269e-06
0.000299832
2.45269e-06
1.6897e-06
2.08485e-06
-5.11005e-06
-4.55311e-06
-7.165e-06
-2.36078e-05
6.35831e-06
9.12885e-06
-1.16358e-05
2.44944e-05
-4.196e-05
4.60238e-06
-4.27688e-06
-3.66526e-06
4.04036e-05
4.89615e-06
-3.88642e-05
-7.38346e-07
0.000233165
8.62701e-06
5.1834e-06
1.60745e-05
6.36721e-06
-2.6921e-06
4.95427e-07
7.98923e-07
5.87528e-06
1.29986e-05
0.00025414
6.53871e-06
2.4291e-05
1.99472e-05
1.43994e-05
1.07181e-05
1.34581e-05
-3.61587e-05
8.15933e-06
4.48919e-07
3.0513e-05
-4.0888e-05
8.09008e-06
-2.99677e-07
3.31372e-05
-4.94457e-06
6.03861e-07
-5.16865e-06
8.77497e-06
-0.000126708
1.12361e-05
-6.31459e-07
2.95463e-06
0.000126147
-1.39715e-05
1.02345e-07
-1.09489e-05
2.46533e-05
1.20873e-06
-8.03065e-07
9.38844e-07
-1.33605e-06
-2.76623e-05
6.77685e-06
2.52912e-06
1.82662e-05
-1.48187e-06
-1.65277e-06
-3.75009e-05
-6.90545e-06
1.58806e-06
4.59529e-05
-5.67629e-07
-3.97627e-05
2.69497e-06
7.57381e-06
-2.19217e-06
3.22537e-05
-7.06309e-05
-4.22414e-06
2.04321e-05
7.13905e-06
6.68698e-05
-1.95859e-05
-4.74327e-06
-1.38167e-06
-4.48557e-05
2.58505e-06
4.126e-07
4.79829e-05
-6.28562e-06
-6.25831e-07
7.03843e-05
1.97928e-06
5.39731e-06
-2.99658e-06
3.1478e-06
-6.46868e-07
5.92762e-07
-2.66139e-06
-1.03651e-06
-8.05999e-06
4.80405e-06
0.000101421
-1.47793e-06
-2.04353e-06
-1.13296e-06
-4.01863e-06
-1.97332e-06
-4.17676e-06
0.000196093
-5.85694e-06
-8.70835e-06
-5.05449e-06
-8.16557e-06
-2.2832e-06
1.94338e-06
7.3714e-07
-3.60132e-05
-7.31131e-06
4.85968e-07
4.08665e-05
5.40923e-07
1.66989e-07
2.18824e-08
-6.99012e-07
-3.28766e-06
-5.77504e-05
-7.59558e-07
2.62027e-06
1.74035e-06
5.7437e-05
1.70404e-06
-9.75353e-06
0.000139963
2.89864e-07
3.1951e-06
-3.91986e-06
-1.413e-06
9.35485e-06
-6.93653e-06
0.000161524
-3.11431e-07
-5.85032e-06
0.000310061
3.4503e-06
2.11775e-06
6.26654e-06
-4.57731e-06
-3.27104e-06
-2.87545e-06
-2.28225e-05
-2.29385e-07
-1.22596e-07
-1.24647e-06
2.41095e-05
-4.35735e-05
-3.77867e-06
5.0502e-07
7.48273e-06
3.96762e-05
-3.11764e-07
-1.07121e-05
9.37656e-07
0.000208358
7.71793e-06
3.66673e-06
4.72933e-06
4.36136e-06
1.45666e-06
1.60563e-06
1.28959e-06
6.78428e-06
5.2639e-06
0.000199569
8.10223e-06
2.71117e-06
2.92981e-06
5.1022e-06
4.71085e-06
1.31875e-06
-4.07188e-05
7.72237e-06
-6.89498e-06
4.08254e-05
-3.10376e-05
5.04263e-06
-7.60988e-06
3.3606e-05
-1.47924e-05
1.90744e-06
-7.27778e-06
2.10856e-05
-0.000117101
9.64982e-06
-4.45988e-06
1.43847e-05
0.00010279
-3.85149e-05
1.50705e-05
-1.38907e-05
3.73441e-05
9.65871e-07
-1.76114e-06
4.0976e-07
3.77308e-07
-1.36996e-05
3.03254e-06
1.84646e-06
8.82048e-06
-1.12373e-05
-1.42235e-07
-5.10105e-05
-4.68768e-06
9.73885e-06
5.73389e-05
-6.36391e-06
-2.99988e-05
2.08226e-06
7.35467e-07
4.34247e-06
2.92025e-05
-5.70504e-05
-5.06713e-06
1.46965e-05
1.02886e-05
4.18787e-05
-4.74624e-06
-4.16621e-06
-2.60001e-06
-4.85822e-05
3.83421e-06
1.05542e-06
5.04588e-05
-1.01936e-05
5.44415e-06
0.000112911
-7.56189e-06
-1.7656e-06
-1.24369e-05
-2.66404e-06
-3.32886e-06
-2.44317e-06
-4.29375e-06
-3.28287e-06
-7.90546e-06
2.25381e-05
0.000103786
-4.52897e-06
-8.68803e-06
-4.35657e-06
-9.61818e-06
3.00986e-06
1.63755e-07
0.000207998
-7.18852e-06
-7.81899e-06
-5.25677e-06
-8.51946e-06
-8.14623e-07
5.353e-06
1.2611e-06
-4.5203e-05
-1.23403e-05
5.56612e-06
9.02568e-07
5.40845e-05
9.96475e-11
-8.28674e-09
1.87063e-08
-2.06275e-08
8.28168e-07
-7.05411e-07
7.69205e-07
-8.93745e-07
-2.96776e-06
-5.37739e-05
7.83116e-09
6.96723e-06
1.36665e-06
4.83999e-05
7.31788e-06
-5.98195e-06
0.000159781
-4.78787e-06
-4.14324e-06
-3.95963e-06
-2.81869e-06
6.89317e-06
1.03629e-05
0.000174124
-2.77908e-07
-2.88902e-06
0.000312198
5.08926e-06
1.78764e-06
3.68576e-06
-1.05773e-06
3.06167e-08
-1.44854e-06
-2.99427e-05
-1.97099e-06
-1.30515e-06
4.68974e-06
2.82512e-05
1.16515e-09
9.63535e-08
-7.99908e-09
-2.44188e-08
-8.25742e-08
-3.63303e-05
-2.62129e-06
-3.70916e-07
2.28248e-06
3.95794e-05
-2.53936e-06
1.57469e-06
3.6997e-07
0.000205471
3.08874e-07
8.96399e-07
-4.3133e-07
-4.42682e-07
-4.51583e-07
-2.94216e-06
-1.97686e-06
6.46229e-07
4.27288e-06
0.000197935
2.2658e-06
-2.48312e-07
4.33312e-07
3.56516e-06
3.7179e-07
2.2646e-06
-4.10325e-05
2.8502e-06
-3.43708e-06
3.93766e-05
-4.16215e-05
2.51962e-06
-4.48808e-06
4.35899e-05
-2.46384e-05
9.65923e-07
-1.71765e-06
2.57593e-05
-0.000103041
4.30594e-06
-2.55969e-06
2.88524e-06
0.000102683
-3.30123e-05
3.2167e-06
-3.21974e-06
3.30143e-05
-6.46712e-07
7.13159e-08
-7.72777e-07
1.36498e-06
-3.72323e-06
-1.39156e-06
1.61166e-06
3.53417e-06
-1.29567e-05
-3.34836e-06
-6.19104e-05
1.19113e-06
1.86955e-05
5.83288e-05
-2.67884e-06
-2.84308e-05
6.50479e-07
5.09787e-07
4.12336e-06
2.58261e-05
-2.87202e-05
1.03546e-06
6.37907e-06
4.624e-06
1.95489e-05
-2.8672e-06
-6.69559e-06
-3.97351e-06
-5.34186e-05
7.11193e-06
4.30863e-06
5.26672e-05
2.06558e-06
7.42181e-06
0.000167347
-1.51755e-05
-5.47857e-06
-1.51227e-05
-3.59591e-06
-6.38318e-06
-6.31297e-06
-6.55654e-06
-5.29797e-06
-5.64581e-07
1.88844e-05
0.000112671
-5.10031e-06
-9.62731e-06
-3.11019e-06
-7.30099e-06
6.22387e-06
-3.67805e-06
0.00021504
-4.95068e-06
-6.71156e-06
-2.91866e-06
-5.16875e-06
1.55206e-06
5.73006e-06
2.31544e-06
-6.28368e-05
-2.1375e-06
1.69012e-05
5.82997e-06
4.8467e-05
-9.28653e-07
-4.96769e-07
-1.76541e-06
-2.67609e-06
1.34137e-07
5.73279e-06
8.43557e-07
-9.70279e-07
8.77901e-07
-7.68947e-07
-2.33885e-06
-4.30735e-05
-6.89938e-07
5.92729e-06
4.25251e-07
3.97498e-05
7.78174e-06
-7.97024e-06
0.000182094
-4.9262e-06
-4.12739e-06
-2.96516e-06
-2.68409e-06
6.45814e-06
5.10598e-07
0.000193822
8.92089e-07
-1.35667e-06
0.000303916
4.54047e-06
2.27379e-06
4.7971e-06
-3.60389e-07
1.53546e-07
1.2217e-07
-3.34705e-05
-2.64697e-06
1.33631e-07
5.55569e-07
3.63203e-05
6.52298e-07
6.31409e-07
2.42203e-07
-5.66037e-07
-1.11971e-06
1.59838e-07
-4.29403e-05
-4.09276e-06
2.70786e-06
2.57208e-06
4.45914e-05
-2.83828e-06
3.87734e-06
-2.20664e-06
0.000208076
-3.20882e-06
-1.13052e-06
-2.427e-06
-7.91723e-07
-2.13829e-06
-9.80406e-07
-1.56889e-06
-5.03997e-07
-1.95976e-06
0.000198105
1.7819e-06
1.16357e-06
2.82324e-06
1.17058e-06
-1.40185e-06
1.1441e-06
-3.97036e-05
-1.05978e-06
-8.88228e-07
3.9791e-05
-3.68559e-05
-1.01439e-05
-8.89949e-07
5.31177e-06
4.2578e-05
2.76971e-07
7.35792e-07
-6.73736e-07
-3.39017e-07
-2.41215e-05
-7.13295e-08
-1.09758e-06
2.30817e-05
-0.000102371
5.3092e-07
2.11198e-06
-2.71744e-06
0.000100485
-3.34628e-05
3.81143e-06
-4.19113e-06
3.38425e-05
-3.04285e-06
1.51112e-07
-5.39435e-07
3.42998e-06
-5.49147e-06
1.35933e-06
-1.47429e-06
5.60508e-06
-9.5624e-07
-2.68011e-06
-4.74725e-05
3.72271e-06
1.11276e-05
3.62585e-05
5.31874e-07
-2.48672e-05
-2.98277e-06
1.02924e-06
1.84815e-07
2.6104e-05
-1.35368e-05
1.7436e-06
8.07508e-07
5.24276e-07
1.07245e-05
-2.63148e-07
-3.32682e-06
-8.62899e-07
-4.86929e-05
5.63031e-06
4.29669e-06
4.29557e-05
8.9255e-06
5.35665e-06
0.000206432
-1.24192e-05
-4.53158e-06
-9.47065e-06
-2.43888e-06
-6.30173e-06
-6.92569e-06
-5.69279e-06
-5.5871e-06
1.64821e-07
6.89618e-06
0.000121823
-1.73986e-06
-4.41536e-06
-6.69149e-08
-1.06546e-06
4.72041e-06
-9.7143e-06
0.000217863
-1.66771e-06
-3.05088e-06
1.16063e-06
-1.10629e-06
1.93575e-06
3.0169e-06
2.04677e-06
-4.80682e-05
-4.52509e-06
5.40616e-06
3.29457e-06
4.86129e-05
-9.33636e-06
-9.46887e-07
-6.20452e-06
2.71144e-06
3.23744e-06
1.05389e-05
6.56389e-07
-5.12322e-07
2.97993e-07
-4.4929e-07
-2.12562e-06
-3.9486e-05
-1.14705e-06
4.03909e-06
-1.49999e-06
4.02196e-05
7.92236e-06
-6.59695e-06
0.000199234
-4.21734e-06
-4.21834e-06
-1.9374e-06
-2.73544e-06
5.52325e-06
-5.4758e-06
0.000208593
1.6134e-06
-2.45854e-06
0.000292856
4.25106e-06
2.07664e-06
2.77273e-06
-6.62567e-07
-4.50312e-07
-2.74163e-07
-3.94057e-05
-2.93201e-07
1.14359e-06
-1.53475e-06
4.17034e-05
-1.59062e-06
-2.06194e-06
8.40879e-07
-8.08692e-07
4.12288e-07
3.20808e-06
-4.444e-05
-1.51626e-06
2.98617e-06
3.8055e-06
4.1318e-05
-2.1534e-06
7.22734e-06
-1.42777e-07
0.000204824
-3.76645e-06
-1.91888e-06
-2.08093e-06
-1.756e-06
-1.71535e-06
1.70743e-06
-8.99431e-07
-9.86844e-07
-2.46934e-06
0.00019946
2.33432e-06
6.47712e-07
2.85477e-06
2.79785e-07
-2.28014e-06
1.65546e-08
-4.33773e-05
-2.24667e-06
-1.98177e-06
4.41604e-05
-4.18865e-05
-5.32254e-08
2.86106e-06
6.39948e-07
3.84387e-05
3.32161e-07
-2.89586e-07
-8.50037e-07
4.41451e-07
3.66011e-07
-2.3057e-05
-1.64052e-06
2.75139e-07
2.42771e-05
-9.86113e-05
-3.16088e-07
3.036e-06
-2.01203e-06
9.5434e-05
-3.43985e-05
4.05653e-06
-4.264e-06
3.4606e-05
-3.68345e-06
-1.58279e-07
-2.4348e-08
3.86321e-06
-5.5909e-06
2.88086e-06
-2.8911e-06
5.60038e-06
5.74171e-08
-3.43897e-06
-2.94168e-05
3.06609e-06
4.55229e-06
2.518e-05
-7.76942e-08
-2.77113e-05
-4.09381e-06
2.71362e-06
2.14333e-07
2.89548e-05
-1.10548e-05
1.26962e-06
-8.37298e-07
-1.3366e-06
1.21614e-05
-2.02319e-07
-8.83824e-07
-1.34174e-06
-3.76254e-05
4.03449e-06
2.59407e-06
3.32224e-05
1.41799e-05
2.07767e-06
0.000229936
-6.94131e-06
-2.86304e-06
-5.54424e-06
-7.34589e-07
-6.18796e-06
-7.0416e-06
-5.20444e-06
-5.24419e-06
-5.59947e-06
-5.28962e-06
0.000141198
5.74267e-07
3.01785e-07
2.10478e-06
2.71291e-06
9.84623e-07
-1.68907e-05
0.000227736
1.84791e-06
1.03241e-06
4.40626e-06
7.36745e-07
-4.87825e-09
-5.12866e-06
-2.45629e-06
-6.38275e-05
3.9333e-06
3.74274e-06
-2.16552e-07
5.73526e-05
-7.31741e-06
-3.80622e-06
3.45292e-06
3.83753e-06
3.83317e-06
3.43414e-07
-5.27305e-08
8.47627e-08
-3.68569e-07
-7.82357e-07
-4.14691e-05
-7.51124e-07
2.84424e-06
-1.685e-06
4.18433e-05
8.33808e-06
-3.09425e-06
0.000206383
-2.99012e-06
-3.81081e-06
-1.29539e-06
-2.21922e-06
-8.04873e-07
-1.05122e-05
0.000222958
3.84431e-08
-2.65376e-06
0.000286461
1.50537e-06
-2.5696e-06
-5.18553e-06
-2.18624e-07
-7.24335e-07
-1.49207e-06
-4.44938e-05
1.92633e-06
-4.07945e-07
-1.53441e-06
4.45483e-05
-4.40924e-06
-5.78111e-06
7.88204e-07
1.91026e-07
3.74419e-06
5.46694e-06
-3.73097e-05
-1.39575e-06
3.66214e-06
3.8359e-06
3.24048e-05
-1.1974e-06
8.32545e-06
1.67704e-06
0.00020193
-3.59415e-06
-2.644e-06
-2.7026e-06
-2.59425e-06
-9.20847e-07
2.44685e-06
-1.93484e-07
-1.59593e-06
-4.85416e-06
0.0002089
2.45962e-06
2.46879e-07
2.73122e-06
-1.78317e-06
-5.87936e-06
-2.95244e-06
-4.85854e-05
-3.38549e-06
-2.63421e-06
5.03554e-05
-3.07004e-05
-7.17437e-06
4.48781e-06
3.33869e-05
-2.72464e-05
-2.75741e-06
1.32796e-06
3.03502e-05
-9.21238e-05
-2.55215e-07
3.93812e-06
-1.39798e-06
8.49847e-05
-3.46078e-05
4.42613e-06
-4.02814e-06
3.42098e-05
-3.81124e-06
6.63971e-07
-6.35018e-07
3.78006e-06
-5.25638e-06
2.03125e-06
-1.28757e-06
4.51239e-06
-2.35831e-07
-3.78019e-06
-2.22764e-05
4.06133e-06
2.43095e-06
1.98002e-05
-1.58544e-08
-3.04652e-05
-3.96835e-06
2.17318e-06
-1.68748e-07
3.24449e-05
-1.48241e-05
2.30106e-06
-1.78614e-06
-3.45954e-06
1.79937e-05
-2.24892e-07
7.64233e-08
-1.00947e-06
-2.92027e-05
3.12669e-06
1.16133e-06
2.58477e-05
1.41356e-05
1.43414e-06
0.000243418
-4.63408e-06
-1.88942e-06
-3.58454e-06
2.65197e-08
-4.88824e-06
-6.11076e-06
-4.01376e-06
-3.95739e-06
-3.53327e-06
-9.07849e-06
0.000156833
1.19415e-06
2.57707e-06
2.93462e-06
4.40725e-06
-6.89039e-06
-1.9397e-05
0.000248146
4.4698e-06
1.64897e-06
7.01143e-06
3.4009e-06
-5.42513e-06
-4.08463e-06
-4.67634e-06
-5.69104e-05
-3.99474e-06
-1.44998e-06
5.54647e-05
4.70543e-07
9.93553e-08
-1.64953e-07
-4.16695e-07
-2.38295e-07
-4.20371e-05
-1.48146e-07
2.13831e-06
-9.32346e-07
4.12175e-05
4.26206e-06
1.21036e-06
0.000208209
-2.08112e-06
-2.6492e-06
-4.91967e-07
-6.4128e-07
-2.71841e-06
-1.27469e-05
0.000233607
-5.3677e-06
-2.71613e-06
0.000290883
-6.75448e-06
-4.37329e-06
-4.46827e-06
-1.71076e-06
-2.17982e-07
-9.28987e-07
-6.00843e-05
3.94394e-07
-9.54076e-06
3.12718e-06
6.07358e-05
-2.64117e-05
-3.70823e-07
2.51539e-06
3.48856e-06
2.15756e-05
-7.97068e-07
3.54257e-06
2.08254e-06
0.000201327
-3.00934e-06
-2.21365e-06
-1.23371e-06
-1.52809e-06
5.46585e-09
2.69967e-06
1.46767e-06
-2.02442e-06
-6.81768e-06
0.000216702
2.53781e-06
1.14768e-07
2.8891e-06
-4.32189e-06
-5.46299e-06
-3.92102e-06
-5.52802e-05
-3.05196e-06
-2.84126e-06
5.64329e-05
-3.32136e-05
1.19183e-06
4.25054e-06
2.77712e-05
-3.31807e-05
-2.1009e-06
2.01893e-06
3.53439e-05
-7.56987e-05
-6.64136e-07
5.75993e-06
-2.02769e-06
6.58129e-05
-3.3852e-05
5.45217e-06
-4.85142e-06
3.32512e-05
-3.92631e-06
1.17002e-06
-1.24593e-06
4.00223e-06
-3.63806e-06
1.11009e-06
3.67187e-07
2.16043e-06
3.96317e-07
-3.10284e-06
-1.8048e-05
3.69512e-06
1.88394e-07
1.6871e-05
4.55179e-07
-3.51289e-05
-4.03268e-06
1.92404e-06
-9.73402e-07
3.77557e-05
-2.22938e-05
4.26755e-06
-2.46428e-06
-5.63368e-06
2.61231e-05
1.18509e-09
-1.11006e-07
2.9329e-08
-2.29011e-05
2.04886e-06
1.21505e-06
1.97188e-05
1.63586e-05
5.03744e-06
0.000244231
-3.14586e-06
-1.64862e-06
-2.14159e-06
4.77741e-07
-4.06777e-06
-5.25682e-06
-3.19945e-06
-3.22667e-06
2.74789e-06
-9.85044e-06
0.000168089
1.59067e-06
3.23436e-06
2.90647e-06
4.4734e-06
-2.38093e-06
-2.18949e-05
0.000251315
6.5658e-06
4.45922e-06
8.39225e-06
5.32438e-06
-4.49856e-07
-1.59814e-06
1.16055e-06
-5.3642e-05
-6.39555e-07
-1.80471e-07
5.20811e-05
2.66241e-08
-7.92286e-07
3.56261e-07
4.08802e-07
8.57052e-07
-3.95618e-05
-9.14246e-07
1.02965e-06
1.17276e-06
3.74166e-05
5.27603e-06
6.13378e-06
0.000203227
-1.81188e-06
-8.0942e-07
-1.3011e-07
1.36023e-06
1.20384e-07
-1.06972e-05
0.00023961
-1.20743e-06
-2.68123e-06
0.000282849
-3.38987e-06
2.27078e-07
-2.71635e-06
-1.5964e-06
-7.69742e-07
-1.60688e-06
-5.82341e-05
-6.21045e-08
-2.15309e-06
1.96981e-06
5.7272e-05
-1.98491e-05
-3.83505e-08
6.16724e-07
2.10847e-06
1.96094e-05
-2.44715e-06
3.33049e-09
2.50336e-06
0.000200426
-1.41938e-06
-1.23291e-06
4.71532e-07
-4.58056e-07
1.84258e-06
2.83299e-06
2.49162e-06
-2.25619e-06
-4.25773e-06
0.00021815
2.16512e-06
-1.87854e-07
2.0758e-06
-3.58499e-06
-3.05433e-06
-3.04147e-06
-6.05181e-05
-1.70797e-06
-2.94154e-06
6.02302e-05
-2.67011e-05
-4.19498e-07
9.61891e-07
2.61587e-05
-3.72083e-05
-1.22979e-06
2.36356e-06
3.85779e-05
-5.87678e-05
-1.58682e-06
4.46756e-06
-2.22145e-06
5.38507e-05
-3.27201e-05
5.13793e-06
-4.27492e-06
3.18571e-05
-3.8163e-06
1.95458e-06
-1.95821e-06
3.81993e-06
-1.494e-06
3.17501e-06
-4.00698e-06
2.32597e-06
-6.06162e-07
-3.17677e-06
-1.67608e-05
3.90305e-06
-7.31279e-07
1.7372e-05
1.4441e-06
-4.04677e-05
-4.40974e-06
1.70539e-06
-9.55599e-07
4.26836e-05
-2.99393e-05
6.58464e-06
-3.90728e-06
-7.01005e-06
3.32654e-05
1.0066e-06
1.54752e-06
-3.32853e-06
-1.75338e-05
1.3644e-06
5.67175e-07
1.73832e-05
1.56145e-05
6.56886e-06
0.000241514
-2.40145e-06
-1.42234e-06
-1.9125e-06
5.36407e-07
-3.39087e-06
-5.0167e-06
-3.04556e-06
-2.81344e-06
3.25023e-06
-1.15758e-05
0.000179578
1.78173e-06
3.41881e-06
2.95299e-06
4.29765e-06
-1.65745e-06
-2.24878e-05
0.000251332
7.04862e-06
5.35908e-06
8.4848e-06
5.699e-06
8.98033e-07
-1.4648e-06
1.3536e-06
-5.1149e-05
-1.89187e-07
-4.29268e-07
5.011e-05
-1.06967e-06
-7.0405e-07
2.08899e-07
1.56482e-06
1.50336e-06
-3.46171e-05
-1.29811e-06
1.6948e-08
2.84638e-06
3.15485e-05
3.58992e-06
8.38777e-06
0.000197972
-1.58275e-06
2.24415e-07
-2.16232e-07
1.42143e-06
-2.76237e-08
-8.9525e-06
0.000240604
-2.99025e-07
-3.72196e-06
0.000276373
-3.25388e-06
6.46562e-08
-3.27383e-06
-2.06008e-06
-1.69392e-06
-1.80102e-06
-5.78781e-05
3.25081e-07
-1.69908e-06
1.39449e-06
5.75586e-05
-2.10804e-05
1.18553e-07
-8.91273e-07
1.05761e-06
2.34239e-05
-2.62838e-06
-3.07591e-06
2.67633e-06
0.000199476
2.12874e-07
-7.86713e-08
1.63669e-06
3.94084e-07
2.42445e-06
2.64213e-06
2.50581e-06
-2.71363e-06
-2.64532e-06
0.000218325
1.10101e-06
-9.23487e-07
1.07178e-06
-2.92938e-06
-2.11732e-06
-3.0474e-06
-6.3309e-05
-1.49244e-06
-3.58146e-06
6.19473e-05
-2.55168e-05
1.05096e-06
-1.8251e-07
2.46484e-05
-3.96946e-05
-4.0129e-07
2.21366e-06
4.05586e-05
-5.08187e-05
-1.79427e-06
3.40158e-06
-1.90754e-06
4.84736e-05
-3.06998e-05
4.65585e-06
-3.05825e-06
2.91022e-05
-4.20634e-06
2.98848e-06
-3.77502e-06
4.99288e-06
-2.91181e-06
1.36638e-06
-2.25538e-06
3.80081e-06
-1.74439e-06
-2.50428e-06
-1.85258e-05
3.82365e-06
-4.3093e-07
1.93818e-05
2.52808e-06
-4.44256e-05
-3.95988e-06
1.32528e-06
-1.07879e-06
4.56109e-05
-3.64616e-05
7.42716e-06
-4.76967e-06
-7.14899e-06
3.9156e-05
1.79708e-06
3.01783e-07
-1.81163e-06
-1.77417e-05
1.78034e-06
4.96816e-07
1.69744e-05
1.12727e-05
6.31582e-06
0.000241606
-2.02429e-06
-1.39957e-06
-1.90327e-06
9.28981e-08
-3.30651e-06
-3.60106e-06
-3.32824e-06
-2.21055e-06
1.14776e-06
-1.13468e-05
0.000190075
1.32411e-06
2.85941e-06
2.8273e-06
3.96373e-06
-1.60229e-06
-2.23351e-05
0.000249145
6.84034e-06
5.39601e-06
8.18622e-06
5.53687e-06
1.14845e-06
-1.33215e-06
1.49631e-06
-4.92279e-05
5.3108e-07
-9.0027e-07
4.79948e-05
-7.80789e-07
-6.70134e-07
2.01111e-06
-5.60182e-07
-1.82586e-06
-3.05902e-05
-1.20709e-06
8.30052e-07
2.47612e-06
3.03169e-05
1.44638e-06
6.87998e-06
0.000196237
-1.6532e-06
5.94411e-07
-4.44098e-07
1.22685e-06
-1.6716e-06
-9.06512e-06
0.00024144
-3.54285e-07
-4.16047e-06
0.000268458
-3.44336e-06
9.04918e-08
-3.19057e-06
-2.00115e-06
-1.76187e-06
-1.27061e-06
-5.70321e-05
4.10574e-07
-1.23465e-06
1.64036e-06
5.58616e-05
-2.61807e-05
9.1316e-07
-1.74027e-06
3.11488e-07
2.87572e-05
-2.06095e-06
-5.64648e-06
2.35942e-06
0.000198157
1.15146e-06
6.9317e-07
2.31085e-06
8.58966e-07
2.10841e-06
2.18114e-06
2.18119e-06
-3.65446e-06
-2.02925e-06
0.000219577
2.07649e-08
-2.35005e-06
-6.40901e-07
-2.99965e-06
-1.49137e-06
-2.81846e-06
-6.40357e-05
-2.30502e-06
-3.069e-06
6.15948e-05
-2.35272e-05
7.79917e-07
7.04478e-07
2.20428e-05
-4.13041e-05
1.81528e-07
1.67548e-06
4.18066e-05
-4.72e-05
-1.67812e-06
1.8675e-06
-1.55104e-06
4.65324e-05
-2.78093e-05
2.20128e-06
-1.54291e-06
2.7151e-05
-5.77375e-06
3.8683e-06
-4.61393e-06
6.51938e-06
-4.99761e-06
-3.74062e-06
2.85078e-06
5.88745e-06
-2.44506e-06
2.6223e-07
-1.92654e-05
2.49892e-06
1.30562e-07
1.88188e-05
3.47568e-06
-4.67268e-05
-2.78849e-06
8.03127e-07
-2.16517e-06
4.74016e-05
-4.16643e-05
7.87829e-06
-4.95047e-06
-6.86167e-06
4.36589e-05
1.93929e-06
1.22743e-07
1.18356e-07
-1.49744e-05
1.89201e-06
-2.27056e-07
1.30683e-05
6.75083e-06
7.14752e-06
0.000245802
-1.76619e-06
-1.84045e-06
-1.26209e-06
2.49767e-08
-3.20691e-06
-3.89795e-06
-3.19594e-06
-2.95002e-06
-2.00887e-06
-1.15511e-05
0.000198906
1.56301e-06
2.6757e-06
3.15065e-06
4.09009e-06
-1.18944e-06
-2.00204e-05
0.000244009
6.05123e-06
4.83917e-06
7.21576e-06
4.76963e-06
1.27413e-06
-1.19365e-06
1.38137e-06
-4.68776e-05
6.33729e-07
-8.35401e-07
4.58899e-05
1.47956e-06
-4.16233e-07
4.58424e-07
-1.52175e-06
-7.42509e-08
-2.97499e-05
-1.23443e-06
1.03902e-06
1.93502e-06
2.80846e-05
-7.97418e-07
4.83372e-06
0.000200141
-1.98014e-06
3.86385e-07
-5.14261e-07
1.31542e-06
-3.53872e-06
-9.87461e-06
0.000242505
-2.66506e-07
-3.81125e-06
0.000258518
-3.1645e-06
-3.15256e-07
-2.79694e-06
-1.03884e-06
-1.48403e-06
-7.42078e-07
-5.48641e-05
-2.88132e-09
-1.72612e-06
2.8762e-06
5.34504e-05
-3.0904e-05
2.28009e-06
-2.58115e-06
-4.74908e-07
3.28104e-05
-1.13051e-06
-9.84232e-06
1.88544e-06
0.000197989
1.79642e-06
1.36159e-06
3.09765e-06
1.62222e-06
1.62377e-06
1.76382e-06
1.69396e-06
-5.17686e-06
-1.29793e-06
0.000219249
-1.97224e-06
-3.26794e-06
-2.27304e-06
-2.45069e-06
-8.36406e-07
-2.11335e-06
-6.26514e-05
-3.44506e-06
-2.35219e-06
5.94605e-05
-2.04528e-05
-7.2985e-07
2.13672e-06
1.90459e-05
-4.21666e-05
6.39255e-07
1.11804e-06
4.22948e-05
-4.68382e-05
-1.57356e-06
1.0432e-06
-1.1168e-06
4.71874e-05
-2.63311e-05
1.39257e-06
2.19183e-07
2.47194e-05
-7.20199e-06
4.59222e-06
-5.27706e-06
7.88683e-06
-6.45811e-06
-4.80791e-06
4.22235e-06
7.04366e-06
-2.83574e-06
1.61862e-06
-1.85718e-05
7.98238e-07
-1.38952e-07
1.91296e-05
4.37708e-06
-4.79987e-05
-1.20363e-06
-2.07931e-07
-3.3095e-06
4.83427e-05
-4.56518e-05
8.05554e-06
-5.449e-06
-6.34741e-06
4.70274e-05
2.36532e-06
7.49654e-07
3.88308e-07
-1.13293e-05
1.63413e-06
-5.03075e-07
9.06025e-06
3.36566e-06
7.20387e-06
0.000249964
-5.56584e-07
-1.37532e-06
2.48253e-07
4.65763e-07
-3.09544e-06
-4.31906e-06
-2.9934e-06
-3.10539e-06
-5.02929e-06
-1.18215e-05
0.00020604
2.14279e-06
2.80438e-06
3.78954e-06
4.34594e-06
-1.70985e-06
-1.78853e-05
0.000238656
5.12892e-06
4.04384e-06
6.32357e-06
4.09588e-06
8.47673e-07
-1.57414e-06
1.05246e-06
-4.4988e-05
3.78516e-07
-6.39441e-07
4.35391e-05
8.00641e-07
9.19017e-07
-1.99956e-06
2.79905e-07
2.27479e-06
-2.58221e-05
-1.97517e-06
5.25301e-07
1.5747e-06
2.34225e-05
-2.98394e-06
3.07705e-06
0.000207364
-1.82683e-06
6.00054e-07
-4.35986e-07
1.55018e-06
-6.0359e-06
-9.03082e-06
0.000242766
-9.75022e-07
-3.50692e-06
0.00024838
-2.6864e-06
-6.60881e-07
-2.48915e-06
-1.10749e-06
-1.29417e-06
-1.06315e-06
-5.21584e-05
-7.36055e-07
-2.43705e-06
3.73133e-06
5.06252e-05
-3.45829e-05
3.58544e-06
-3.37537e-06
-1.6452e-06
3.62209e-05
-2.02888e-07
-1.53227e-05
1.50399e-06
0.000199783
2.63394e-06
2.12106e-06
4.11735e-06
2.46459e-06
1.0838e-06
1.47393e-06
1.20643e-06
-5.68406e-06
-7.3375e-07
0.00021595
-3.31225e-06
-4.01718e-06
-3.35947e-06
-1.81663e-06
-4.43601e-07
-1.68774e-06
-5.99606e-05
-3.11723e-06
-2.24443e-06
5.61313e-05
-1.8151e-05
-1.67602e-06
2.28282e-06
1.75442e-05
-4.23785e-05
8.22292e-07
7.57647e-07
4.23026e-05
-4.76198e-05
-1.41928e-06
1.24381e-06
-7.50942e-07
4.78125e-05
-2.30131e-05
7.81464e-07
4.14002e-07
2.18177e-05
-8.47724e-06
5.1644e-06
-5.74734e-06
9.06018e-06
-7.36727e-06
-6.45385e-06
5.9513e-06
7.86981e-06
-3.252e-06
3.62053e-06
-2.06836e-05
-1.65849e-06
-1.32306e-06
2.32967e-05
4.942e-06
-4.86885e-05
6.67676e-07
-1.29995e-06
-4.27259e-06
4.86513e-05
-4.81068e-05
7.8975e-06
-5.69808e-06
-5.7034e-06
4.84559e-05
3.15491e-06
-1.52837e-06
-1.20873e-07
-6.81021e-06
1.42423e-06
1.41698e-06
5.61824e-06
1.15328e-06
6.96144e-06
0.000252879
9.26614e-07
-5.22678e-07
1.40731e-06
9.83708e-07
-3.13991e-06
-4.47004e-06
-3.09246e-06
-3.12251e-06
-7.68655e-06
-1.16563e-05
0.000212308
2.59913e-06
2.90771e-06
4.2581e-06
4.46285e-06
-1.26826e-06
-1.74144e-05
0.000231391
4.3314e-06
3.54945e-06
5.54867e-06
3.69333e-06
7.59904e-07
-7.23874e-07
1.10257e-06
-4.18984e-05
5.33512e-07
-1.64737e-07
4.02614e-05
-1.43783e-06
1.74198e-06
-2.47443e-06
2.17028e-06
2.28153e-06
-2.1106e-05
-3.50271e-06
8.45509e-07
2.87402e-06
1.86077e-05
-3.14243e-06
2.50086e-06
0.000215681
-1.99376e-06
3.82167e-07
-5.05272e-07
1.40309e-06
-7.969e-06
-7.21045e-06
0.000243147
-1.08255e-06
-3.51198e-06
0.000237702
-2.96576e-06
-1.01684e-06
-2.92798e-06
-1.35887e-06
-1.11794e-06
-7.23039e-07
-4.92989e-05
-1.1593e-06
-1.6149e-06
3.71836e-06
4.72721e-05
-3.79807e-05
4.42062e-06
-3.81895e-06
-1.92752e-06
3.95452e-05
-2.3865e-07
-1.89681e-05
1.42128e-06
0.000202825
3.29359e-06
2.7001e-06
4.59233e-06
2.92809e-06
9.05805e-07
1.4378e-06
1.14777e-06
-7.20249e-06