/*--------------------------------*- C++ -*----------------------------------*\
| =========                 |                                                 |
| \\      /  F ield         | OpenFOAM: The Open Source CFD Toolbox           |
|  \\    /   O peration     | Version:  5.x                                   |
|   \\  /    A nd           | Web:      www.OpenFOAM.org                      |
|    \\/     M anipulation  |                                                 |
\*---------------------------------------------------------------------------*/
FoamFile
{
    version     2.0;
    format      ascii;
    class       volVectorField;
    location    "3";
    object      U;
}
// * * * * * * * * * * * * * * * * * * * * * * * * * * * * * * * * * * * * * //

dimensions      [0 1 -1 0 0 0 0];

internalField   nonuniform List<vector> 
10571
(
(-1.47569 0.156732 1.96518)
(0.130939 -0.0742326 1.32361)
(-2.62656 -0.56004 4.64654)
(-2.04023 -0.300291 3.01857)
(-0.633888 -0.227426 1.79532)
(-0.367384 1.2159 3.50484)
(-1.45965 0.769837 3.59023)
(-2.0419 2.17861 4.16223)
(-0.775469 0.650664 1.39652)
(-0.245445 0.129991 1.51486)
(0.0542812 -0.55319 1.7952)
(1.22378 0.269662 2.81502)
(0.327251 2.21228 4.53404)
(-1.66588 2.31068 4.64621)
(-1.82716 1.92611 4.06467)
(-0.686203 0.591194 1.41218)
(0.263407 -0.0626595 1.27956)
(0.532264 -0.316226 3.02052)
(-0.791772 1.02318 4.22565)
(-0.993776 0.68802 2.31079)
(-0.491044 0.484592 1.22015)
(-0.458326 -0.835349 2.94175)
(0.122556 -0.451594 1.40127)
(-0.267268 -0.333043 2.62474)
(-0.0795571 0.0879952 1.36735)
(-0.876757 -0.183078 2.84005)
(0.334938 0.468913 3.39678)
(-0.23039 -0.0224793 1.45127)
(-0.312816 -0.152447 1.32524)
(0.347204 -1.99776 3.924)
(0.420995 -0.583753 2.02786)
(0.205194 -0.213976 1.41722)
(-0.0881387 -0.102398 1.34907)
(-0.343373 -0.0261628 1.59262)
(0.0843876 0.0243131 0.39767)
(-0.0636996 1.09057 2.37955)
(1.58124 0.51014 4.5651)
(1.17928 0.288658 4.95661)
(0.5777 -0.240827 4.62741)
(-0.178508 0.212497 1.04587)
(-0.659704 0.191152 1.85224)
(1.62847 0.91988 3.93711)
(2.04482 1.90948 6.20071)
(0.204093 0.161089 3.52453)
(0.0538046 0.157263 0.682897)
(0.391605 -0.078421 0.30648)
(0.658213 0.199328 1.80367)
(-0.164658 0.106742 0.672691)
(0.116566 0.0912711 0.440977)
(0.112908 0.643856 6.35958)
(0.738765 -0.616481 4.29003)
(3.27548 0.183124 4.16772)
(-0.136094 0.00578546 1.88706)
(-0.0471918 -0.303428 1.55576)
(0.0233885 -0.937492 1.94629)
(0.58247 -1.05225 2.07973)
(0.291623 -0.592575 1.50709)
(-0.0304512 -0.152615 1.1158)
(-0.0245636 -0.162535 0.81235)
(-0.294433 -0.375563 1.38933)
(-0.0860396 -0.136987 1.73304)
(0.800334 -0.655074 2.41136)
(0.665923 -0.61284 2.05176)
(0.193902 -0.337884 0.595634)
(-0.570008 -0.226215 2.26803)
(0.0899166 0.351017 1.72749)
(0.9253 1.71846 7.11081)
(2.10113 -1.10533 3.80242)
(1.85483 -0.800558 3.58898)
(0.128792 -0.0858188 0.347)
(0.0231422 1.08179 3.82112)
(-0.606266 0.57777 1.75619)
(0.0253132 0.0378084 -0.242135)
(0.148593 0.304425 3.99404)
(0.038464 -0.128526 1.39101)
(1.42275 0.167923 2.83124)
(1.71058 0.217585 2.27188)
(0.127354 0.317173 2.14068)
(-0.0967833 -0.268178 1.29106)
(0.223384 -0.402938 1.2676)
(0.154201 0.199338 2.08304)
(0.102741 -0.155898 1.40404)
(0.0412037 0.00393092 0.197385)
(0.292149 0.200464 3.24494)
(-0.248571 -0.117682 2.07347)
(0.189441 -0.793681 2.0872)
(0.72713 -0.864112 4.31805)
(0.206131 -0.882633 1.16079)
(-0.418677 -0.556958 2.83267)
(-1.35055 -0.0691931 3.97403)
(0.280828 0.241705 2.87661)
(0.465019 0.000434588 1.59935)
(-0.334142 -0.635675 3.93537)
(-0.207935 -0.123229 0.484992)
(-0.748259 0.938232 5.74964)
(0.630409 0.0734528 1.87746)
(0.119176 0.0299642 -0.304872)
(0.30154 0.0552677 1.69771)
(-0.25579 0.51432 1.83604)
(0.0323456 -0.0705655 1.62737)
(1.55424 0.369953 2.88056)
(0.298718 0.180355 2.10834)
(0.0953073 0.159653 0.80343)
(-0.303581 0.431921 1.26886)
(0.00864769 0.387117 1.96642)
(-0.438897 0.203061 1.99659)
(0.00156513 0.0352132 -0.184274)
(0.482845 0.221679 2.52094)
(0.125408 -0.178906 1.99082)
(-0.0740797 -0.236056 2.25834)
(0.343985 -0.580702 3.35324)
(-0.383546 0.147297 0.964244)
(0.514492 0.101854 1.91183)
(-0.595029 -0.102104 2.4626)
(0.0228186 -0.111407 3.01997)
(0.842362 -0.269326 1.99021)
(0.268659 -0.553438 2.97848)
(-0.294477 0.122193 1.33022)
(-0.862512 0.703482 4.4583)
(1.80836 -0.513998 4.01384)
(0.345608 -0.0767558 -0.0798826)
(0.102771 0.0298178 1.13027)
(-0.319143 0.984778 2.41988)
(-0.0508488 0.562654 1.30076)
(0.69146 0.706834 2.22497)
(0.310285 0.292364 2.33939)
(0.0604879 0.359103 0.952657)
(-0.378372 0.563652 1.08853)
(0.0704241 0.398164 2.15356)
(0.131338 0.638709 2.29146)
(-0.0182339 0.00653421 -0.00322122)
(0.0242562 0.0997415 -0.202117)
(0.463038 0.110824 2.432)
(0.279769 -0.0985764 1.47461)
(-0.0935699 0.308849 1.79265)
(0.297981 -0.392327 3.42541)
(-0.311717 0.0604641 1.19735)
(0.00130422 -0.00147554 -0.0026227)
(0.151315 0.183987 1.71203)
(0.102799 -0.189044 2.52332)
(-0.0732999 -0.0276914 2.67298)
(0.138908 -0.114443 1.94163)
(0.222729 -0.10814 3.1737)
(-0.0196454 0.152648 1.2533)
(-0.490988 0.354729 4.37018)
(0.520232 -0.108539 3.35983)
(-0.0427891 -0.0438708 -0.13526)
(-0.111186 -0.00278329 0.0735549)
(0.240681 1.61637 2.59212)
(-0.0325914 0.399968 1.17604)
(0.234361 0.121002 1.09183)
(0.478205 0.556035 2.39869)
(0.257166 0.479602 1.43696)
(-0.18506 0.456351 1.08269)
(0.12999 0.213557 2.41624)
(0.680469 0.645615 2.52001)
(-0.298818 0.0542053 0.149582)
(0.0169599 0.131547 -0.179893)
(0.329673 0.0104508 1.76898)
(0.238188 -0.170382 1.62731)
(-0.0194416 0.217709 1.84326)
(0.232004 -0.350319 3.43538)
(0.064378 0.0267292 1.6327)
(-0.0570226 -0.0619017 -0.0394828)
(0.214221 0.301664 1.68602)
(0.0835153 -0.148598 2.19538)
(0.0695651 -0.191118 1.92784)
(-0.0487302 0.0917918 1.76178)
(0.198697 0.0356447 2.84468)
(-0.305337 -0.00259119 -0.011128)
(-0.0762871 -0.147339 1.21903)
(-0.0776868 -0.103332 3.89863)
(0.489721 -0.11999 3.01287)
(0.0261104 -0.0157705 0.419799)
(0.0873885 -0.143467 0.396339)
(0.394437 0.541069 1.79078)
(0.170408 -0.0113187 1.25824)
(0.00995755 -0.097639 0.441904)
(0.259755 0.455381 2.14034)
(0.32427 0.39692 1.83247)
(-0.0644397 0.18409 1.16237)
(0.0712005 -0.0333516 2.45911)
(0.422606 0.332581 2.5071)
(0.322043 0.144424 0.51692)
(0.00328198 0.0903545 -0.112659)
(0.287253 -0.122907 1.80592)
(0.221263 -0.207406 1.94492)
(0.00970968 0.0642107 2.0383)
(0.184066 -0.351299 3.34512)
(0.0848568 -0.125789 1.87619)
(-0.145119 0.0584069 0.0826537)
(0.143087 0.346982 1.75657)
(0.135009 -0.0269973 2.07853)
(0.0967437 -0.242668 2.02402)
(-0.0648766 0.0211763 1.92862)
(0.00985957 0.0561849 2.40273)
(0.103089 0.0320844 0.00902694)
(0.041481 -0.0118372 1.1819)
(0.0162267 -0.132915 3.82347)
(0.456108 -0.101757 3.12299)
(0.0719155 0.00688054 0.539266)
(0.169007 -0.224632 0.459027)
(0.25567 0.0378904 1.30192)
(0.340681 0.0581898 1.28833)
(-0.0374317 -0.137182 0.446868)
(0.142083 0.209821 1.60722)
(0.463782 0.25545 2.25405)
(-0.0290726 -0.13233 1.41213)
(-0.0791386 -0.251343 2.44322)
(0.0634378 0.061268 2.59571)
(0.372115 0.128686 0.298075)
(0.0214283 0.0463493 -0.0756087)
(0.190778 -0.167431 1.87898)
(0.227017 -0.199865 2.08606)
(0.0267414 -0.0415474 2.2262)
(0.0126218 -0.393649 3.20465)
(-0.0491049 -0.261115 2.19826)
(-0.148505 0.298617 0.195799)
(0.18203 0.272018 1.47969)
(0.17719 0.0635634 2.14645)
(0.101817 -0.339435 2.19577)
(-0.0847134 -0.0146134 2.16966)
(-0.20402 0.15496 2.3302)
(0.183966 0.132476 1.47628)
(0.0682625 -0.260751 3.56165)
(0.420287 -0.129021 3.15224)
(-0.0343132 -0.0104522 0.540521)
(0.107205 -0.0740421 0.349104)
(0.352655 -0.092737 0.903127)
(0.301238 0.0508605 1.39946)
(-0.0255506 -0.215665 0.615748)
(0.0794383 0.0440496 1.24743)
(0.414864 0.146879 2.45594)
(0.0252705 -0.214571 1.53728)
(-0.0301674 -0.38657 2.54743)
(-0.329145 -0.0657175 2.73156)
(0.00696977 0.0174365 -0.124825)
(0.132438 -0.127999 1.87158)
(0.136492 -0.111356 2.14472)
(0.00080016 -0.096371 2.3607)
(0.0166536 -0.339963 3.06136)
(-0.38843 -0.0205674 2.22892)
(0.0782882 0.181331 0.850882)
(0.0931057 0.130688 2.18889)
(0.0371284 -0.34458 2.28096)
(-0.0786992 -0.0160983 2.42316)
(-0.0833118 0.209273 2.47016)
(0.192195 0.169706 1.73031)
(0.142799 -0.448911 2.74631)
(0.487178 -0.222899 3.0523)
(-0.162111 -0.00507496 0.580659)
(0.078234 0.0757929 0.218477)
(0.322756 -0.224736 0.751312)
(0.293125 -0.00480467 1.58983)
(-0.0305037 -0.367979 0.939343)
(0.0156931 0.0546573 0.901768)
(0.383277 0.131073 2.46609)
(0.128127 -0.21861 1.60112)
(0.0363805 -0.49206 2.64165)
(-0.220645 -0.0376693 2.70358)
(0.0364284 0.158707 0.032034)
(0.0652799 -0.0201772 1.76175)
(0.162988 0.0212563 2.12304)
(0.00201742 -0.108633 2.41104)
(0.0337012 -0.333502 3.01639)
(-0.0458992 -0.0689438 2.32466)
(-0.00547751 0.150886 0.800024)
(0.0419172 0.157705 2.11111)
(-0.0371603 -0.264635 2.27083)
(-0.104723 -0.0306322 2.63636)
(-0.0452921 -0.0108578 2.36688)
(0.13387 0.206082 1.93326)
(0.205623 -0.252722 2.19644)
(0.485181 -0.228109 2.94263)
(-0.213535 -0.00152086 0.537002)
(0.256085 -0.253319 0.144191)
(0.29627 -0.229746 0.738824)
(0.325523 -0.0239595 1.84644)
(-0.124714 -0.496128 1.23876)
(0.0285754 -0.0475854 0.756953)
(0.357211 0.134493 2.39439)
(0.148932 -0.262243 1.77961)
(0.00595792 -0.512407 2.66044)
(-0.164683 -0.0599153 2.54306)
(0.00443048 0.173538 0.214539)
(-0.0554789 0.107016 1.41939)
(0.116022 0.0919189 1.96921)
(-0.00560854 -0.116526 2.4367)
(0.00398772 -0.33628 2.96796)
(-0.0243681 -0.0622921 2.24448)
(-0.0569073 0.103753 0.859895)
(-0.00721716 0.166648 2.09757)
(-0.116051 -0.205516 2.31204)
(-0.121091 -0.1196 2.72456)
(0.0160387 -0.216784 2.29226)
(0.0826589 0.222912 2.02467)
(0.218876 -0.123731 1.94549)
(0.366754 -0.21085 2.72577)
(-0.272148 -0.0972717 0.655774)
(0.114161 -0.1521 0.209393)
(0.259339 -0.123503 0.833339)
(0.293604 -0.0465189 1.99114)
(-0.196758 -0.514116 1.47721)
(0.135868 0.0161755 0.769343)
(0.336207 0.139775 2.43131)
(0.0736008 -0.244896 1.88514)
(-0.0119625 -0.502012 2.64946)
(-0.147482 -0.0902866 2.44292)
(0.0300723 0.151882 -0.000860522)
(0.0128026 0.136725 1.36042)
(0.0888385 0.0917296 1.9966)
(-0.035454 -0.129249 2.4665)
(-0.0273556 -0.344494 2.90313)
(-0.0184555 -0.0314603 2.21815)
(-0.110253 0.0459173 1.06755)
(-0.0402972 0.129006 2.12136)
(-0.18024 -0.196974 2.32832)
(-0.194365 -0.147638 2.7386)
(-0.0554268 -0.183175 2.08244)
(0.042844 0.204023 2.09381)
(0.218331 -0.0695086 1.83749)
(0.270489 -0.049948 2.50577)
(-0.363616 -0.131665 0.876475)
(-0.183329 0.331694 0.414958)
(0.136877 -0.00354163 0.839902)
(0.202939 -0.136103 2.07098)
(-0.202733 -0.49907 1.6585)
(0.145561 -0.00657074 0.629832)
(0.297879 0.183887 2.47672)
(-0.0380808 -0.235295 1.95931)
(-0.0204568 -0.455654 2.6142)
(-0.103551 -0.0788499 2.34733)
(0.0276133 0.119964 -0.246575)
(0.0578379 0.173862 1.28099)
(0.0712678 0.0826873 2.02836)
(-0.0920893 -0.149789 2.46058)
(-0.0479142 -0.30462 2.797)
(0.00709754 0.0441694 2.13699)
(-0.169404 -0.00207799 1.25336)
(-0.124575 0.0729159 2.1022)
(-0.251719 -0.204885 2.33057)
(-0.312333 -0.13204 2.65277)
(-0.154106 -0.0127376 1.79009)
(0.0128513 0.17829 2.13839)
(0.229289 0.00101935 1.8546)
(0.0792188 -0.0228803 2.33611)
(-0.458769 -0.153071 1.07937)
(-0.218107 0.442026 0.493275)
(0.00759877 0.0678689 0.796825)
(0.0824786 -0.222649 2.12389)
(-0.227016 -0.470535 1.81209)
(0.068757 -0.147202 0.447129)
(0.262995 0.195586 2.47244)
(-0.128929 -0.24272 2.03018)
(-0.0353049 -0.404983 2.54613)
(-0.15278 -0.0573901 2.24522)
(-0.0276819 -0.0864748 -0.0430031)
(-0.0206064 0.180901 1.10484)
(0.0439857 0.0717757 2.04842)
(-0.140139 -0.154917 2.45333)
(-0.0851837 -0.279835 2.67066)
(-0.0442631 0.15576 2.0176)
(-0.243026 -0.0636166 1.39084)
(-0.217717 0.0262981 2.0948)
(-0.367759 -0.177434 2.29464)
(-0.301684 -0.111627 2.52938)
(-0.160017 0.10689 1.62512)
(-0.0029065 0.159374 2.13466)
(0.221621 0.0370363 1.87674)
(0.00341459 0.0342663 2.02773)
(-0.548498 -0.166063 1.25332)
(-0.310013 0.503925 0.551772)
(-0.175195 0.0801209 0.978034)
(-0.0497556 -0.29399 2.13988)
(-0.287726 -0.426086 1.88691)
(0.0422919 0.0141644 0.25456)
(0.248825 0.187529 2.48957)
(-0.198628 -0.242505 2.0897)
(-0.060407 -0.362148 2.47563)
(-0.0956419 -0.0302124 2.0749)
(-0.0234494 -0.212026 0.275975)
(0.0117768 0.338003 0.84744)
(0.0426502 0.0668236 2.1033)
(-0.147041 -0.15353 2.45653)
(-0.146185 -0.308762 2.56722)
(-0.0179107 0.175832 1.90369)
(-0.27957 -0.0880229 1.50411)
(-0.267832 0.0147504 2.11858)
(-0.456642 -0.117451 2.26468)
(-0.404718 -0.103235 2.27953)
(-0.214396 0.244002 1.52036)
(-0.00512691 0.151574 2.13496)
(0.163929 0.0556707 1.90658)
(-0.234152 0.128926 1.89017)
(-0.624484 -0.167963 1.40505)
(-0.408988 0.524917 0.670085)
(-0.274771 0.0386537 1.21806)
(-0.173092 -0.325286 2.13267)
(-0.337898 -0.372148 1.89269)
(0.046261 0.124369 0.255118)
(0.220626 0.169601 2.52537)
(-0.249664 -0.218991 2.15443)
(-0.105201 -0.261531 2.40092)
(-0.0659277 -0.00773563 1.92727)
(-0.0279196 -0.320764 0.372764)
(0.0125573 0.315255 0.673649)
(0.034884 0.0631517 2.19371)
(-0.13964 -0.147578 2.4606)
(-0.177834 -0.301911 2.45098)
(-0.0649191 0.292901 1.723)
(-0.279167 -0.0718798 1.62411)
(-0.268102 0.0161141 2.14559)
(-0.458273 -0.0837116 2.26639)
(-0.402889 0.0106515 1.89053)
(-0.20071 0.274418 1.40622)
(-0.00152099 0.153738 2.15314)
(0.13477 0.0808544 2.01885)
(-0.198017 0.00682106 1.71408)
(-0.665596 -0.160144 1.52049)
(-0.440327 0.544259 0.865053)
(-0.342704 0.030339 1.46528)
(-0.274587 -0.297745 2.11462)
(-0.404784 -0.337259 1.83991)
(0.0552389 0.00611961 0.335291)
(0.166157 0.156703 2.57244)
(-0.288497 -0.182348 2.21216)
(-0.143832 -0.158839 2.32648)
(-0.144885 -0.0693629 1.60759)
(-0.0335655 -0.416344 0.386145)
(-0.0415429 -0.0245414 0.550101)
(0.0244661 0.0755152 2.28337)
(-0.115501 -0.104214 2.47186)
(-0.143109 -0.217807 2.32392)
(-0.0750726 0.300017 1.59877)
(-0.264251 -0.0917272 1.72198)
(-0.22333 0.00994602 2.17059)
(-0.418636 -0.0775791 2.26534)
(-0.19293 0.0626858 1.62361)
(-0.155348 0.232689 1.26926)
(0.0179076 0.159146 2.18375)
(0.186258 0.0540909 2.08666)
(0.0774558 -0.106828 1.52615)
(-0.66356 -0.132359 1.60429)
(-0.492668 0.568191 1.04627)
(-0.388938 0.045214 1.67312)
(-0.343962 -0.243281 2.09033)
(-0.435994 -0.321015 1.73321)
(0.0784092 0.00252759 0.460945)
(0.111849 0.15548 2.62556)
(-0.31522 -0.157775 2.24893)
(-0.149794 -0.124666 2.23064)
(-0.234234 -0.144531 1.17708)
(-0.0298039 -0.390734 0.311155)
(0.00439609 -0.234358 0.537231)
(0.0173011 0.105599 2.34973)
(-0.101772 -0.0604497 2.46489)
(-0.0614641 -0.107486 2.23025)
(-0.00872219 0.165596 1.57975)
(-0.254689 -0.133673 1.75346)
(-0.17896 0.00575733 2.18132)
(-0.326678 -0.0800887 2.21005)
(-0.0509651 -0.0123747 1.49547)
(-0.0902276 0.169162 1.19221)
(0.0389764 0.152556 2.19375)
(0.199307 0.0435337 2.08567)
(0.131307 -0.0572691 1.44386)
(-0.598259 -0.10956 1.59652)
(-0.573654 0.553092 1.16718)
(-0.42587 0.0741941 1.84402)
(-0.381043 -0.18188 2.07654)
(-0.370221 -0.233102 1.57958)
(0.049293 0.19283 0.664724)
(0.0957973 0.152392 2.66688)
(-0.310721 -0.152216 2.27757)
(-0.134729 -0.139241 2.15334)
(-0.197864 -0.110657 0.85957)
(-0.048615 -0.2698 0.292431)
(0.10097 -0.272436 0.570946)
(0.0449154 0.129664 2.3924)
(-0.102977 -0.0569845 2.44604)
(-0.00977634 -0.0514906 2.13361)
(0.0391234 0.0620761 1.59272)
(-0.259156 -0.122943 1.78721)
(-0.16818 0.0112459 2.18901)
(-0.284754 -0.0712408 2.09583)
(-0.0511357 -0.0463892 1.42971)
(-0.0304546 0.104357 1.21813)
(0.0495985 0.146126 2.19839)
(0.19127 0.0550357 2.07744)
(0.115903 -0.0215335 1.47208)
(-0.533551 -0.0948719 1.53467)
(-0.569249 0.522272 1.30042)
(-0.428545 0.0923536 1.99261)
(-0.38261 -0.120476 2.08066)
(-0.278266 -0.153107 1.4107)
(0.0280616 0.309628 0.843803)
(0.123502 0.134541 2.71035)
(-0.280887 -0.166129 2.31175)
(-0.0977344 -0.160583 2.1215)
(-0.108232 -0.0398582 0.692651)
(-0.0614644 -0.169498 0.408145)
(0.180871 -0.270028 0.649941)
(0.119352 0.12669 2.43446)
(-0.103722 -0.0787204 2.42957)
(-0.0107453 -0.0906859 2.05376)
(-0.00649561 0.0354747 1.58919)
(-0.249298 -0.113216 1.87675)
(-0.178391 0.0132551 2.20107)
(-0.303902 -0.0601073 1.98866)
(-0.141922 -0.0973913 1.35902)
(-0.0191674 0.0742999 1.27256)
(0.0506394 0.142061 2.21692)
(0.162459 0.0719702 2.09146)
(0.0976882 -0.00283044 1.56878)
(-0.47672 -0.0897825 1.47139)
(-0.544401 0.50172 1.41688)
(-0.404472 0.079455 2.11689)
(-0.373309 -0.106356 2.08192)
(-0.195567 -0.0828459 1.17342)
(0.0236577 0.39226 0.993636)
(0.171008 0.103222 2.75657)
(-0.230237 -0.194983 2.36991)
(-0.044736 -0.163095 2.11252)
(-0.0375003 -0.0339429 0.599812)
(-0.0243859 -0.0431655 0.595652)
(0.221822 -0.258411 0.792582)
(0.160067 0.114305 2.47757)
(-0.0853291 -0.108923 2.4343)
(-0.00613296 -0.170283 2.04465)
(-0.128515 0.0388532 1.54082)
(-0.207123 -0.0465716 1.95431)
(-0.207013 0.0250126 2.24)
(-0.306748 -0.0865012 1.88784)
(-0.156864 -0.148109 1.26907)
(-0.0271023 0.0813846 1.27385)
(0.0457371 0.132588 2.2588)
(0.109516 0.095559 2.15631)
(0.0729755 0.0524301 1.67673)
(-0.386609 -0.082147 1.4732)
(-0.517987 0.491911 1.43719)
(-0.390624 0.0775578 2.20183)
(-0.370021 -0.12313 2.07373)
(-0.208476 -0.0999272 0.91347)
(-0.00787708 0.40881 1.13525)
(0.186646 0.105763 2.78171)
(-0.193328 -0.205307 2.44038)
(-0.00178743 -0.115368 2.10866)
(0.00334813 -0.0885135 0.545478)
(0.0120476 0.0126955 0.718748)
(0.206432 -0.233825 0.875908)
(0.137538 0.106806 2.52362)
(-0.0496952 -0.125318 2.43764)
(0.0224597 -0.217652 2.05274)
(-0.104267 0.0369339 1.4531)
(-0.155085 -0.0268745 2.03157)
(-0.208777 0.0321948 2.27636)
(-0.258761 -0.139685 1.74158)
(-0.105187 -0.147677 1.1765)
(-0.0644266 0.139611 1.14266)
(0.0453588 0.120796 2.31906)
(0.102222 0.10255 2.24245)
(0.1119 0.0480272 1.78821)
(-0.253398 -0.0333426 1.51495)
(-0.507329 0.487861 1.35322)
(-0.372758 0.0416834 2.32096)
(-0.361102 -0.17651 2.08461)
(-0.251354 -0.121337 0.731483)
(-0.0472545 0.274802 1.27078)
(0.19061 0.116457 2.8303)
(-0.19333 -0.187251 2.50687)
(0.0311691 -0.00218761 2.0922)
(0.0155565 -0.148681 0.505674)
(0.018679 -0.00806846 0.781969)
(0.155237 -0.249408 0.890361)
(0.121445 0.0891526 2.59146)
(-0.0040708 -0.103674 2.4409)
(0.0455477 -0.21675 2.04526)
(-0.0301766 0.0449561 1.40838)
(-0.0988898 -0.023873 2.06843)
(-0.183617 0.0175538 2.29556)
(-0.173345 -0.169811 1.59694)
(-0.0871231 -0.128047 1.11744)
(-0.0729096 0.198951 0.993145)
(0.0574389 0.108587 2.37203)
(0.13273 0.0936097 2.30662)
(0.128793 -0.0362493 1.77807)
(-0.0916708 -0.0119461 1.52734)
(-0.56304 0.496581 1.35177)
(-0.30421 0.0283088 2.37989)
(-0.306712 -0.206243 2.09071)
(-0.258664 -0.103066 0.652279)
(-0.0652687 0.0725245 1.38576)
(0.179805 0.0929587 2.88126)
(-0.193124 -0.173026 2.55055)
(0.0633838 0.0577223 2.04139)
(0.0179008 -0.191261 0.477701)
(0.0137744 -0.0236698 0.831749)
(0.11796 -0.250369 0.913595)
(0.168462 0.0612401 2.63075)
(0.0700203 -0.0565817 2.45529)
(0.0781615 -0.170498 2.04247)
(0.0189905 0.0259745 1.36864)
(-0.0684217 -0.0272181 2.04261)
(-0.0994406 -0.0043824 2.30209)
(-0.0587525 -0.156308 1.52801)
(-0.0831969 -0.0974685 1.12585)
(-0.08826 0.253104 0.883192)
(0.0774386 0.0858865 2.4068)
(0.159276 0.0562761 2.35427)
(0.107903 -0.103878 1.52808)
(-0.0531634 -0.0409564 1.47711)
(-0.593305 0.507136 1.48041)
(-0.253956 0.0910429 2.40722)
(-0.196672 -0.165765 2.15905)
(-0.226657 -0.0811697 0.666207)
(-0.096793 0.0654936 1.47225)
(0.130017 0.0735526 2.89826)
(-0.170408 -0.174471 2.5609)
(0.0901308 0.0558572 1.96205)
(0.0278514 -0.20574 0.467701)
(0.0129197 0.016333 0.885379)
(0.172458 -0.208891 1.01827)
(0.233778 0.0391177 2.6008)
(0.181612 -0.0214172 2.4606)
(0.147813 -0.0780395 2.06555)
(0.0255953 0.0113872 1.28939)
(-0.0975221 0.0151013 1.98469)
(0.0475566 0.0399948 2.27958)
(0.0597583 -0.129736 1.54868)
(-0.0456845 -0.0360205 1.21847)
(-0.10207 0.28593 0.818142)
(0.113345 0.0616737 2.41928)
(0.200517 0.00563479 2.37019)
(0.129291 -0.108282 1.30936)
(-0.161138 -0.050351 1.25752)
(-0.589479 0.524931 1.56193)
(-0.196464 0.120354 2.43363)
(-0.0735878 -0.116023 2.33963)
(-0.123521 -0.0930496 0.744211)
(-0.140239 0.222308 1.53093)
(0.084669 0.0470646 2.87584)
(-0.142895 -0.184031 2.53464)
(0.0682698 0.0189812 1.8639)
(0.058489 -0.190062 0.490686)
(0.019406 0.107724 0.899406)
(0.300241 -0.0966728 1.12603)
(0.254676 0.0697283 2.51086)
(0.290461 0.0101702 2.45867)
(0.217714 -0.00338874 2.12264)
(0.0150248 0.0280021 1.17945)
(0.00135094 0.0211256 1.89226)
(0.130225 0.118746 2.27789)
(0.144884 -0.131758 1.61446)
(0.0427804 0.0102021 1.39188)
(-0.100664 0.281789 0.809439)
(0.153238 0.0462449 2.43341)
(0.214711 -0.0146344 2.36339)
(0.127453 -0.112114 1.19518)
(-0.257746 -0.052641 1.10017)
(-0.55088 0.52367 1.57335)
(-0.194032 0.0794567 2.47623)
(-0.0591418 -0.158698 2.4187)
(0.00189028 -0.20769 0.854207)
(-0.0922456 0.386645 1.58504)
(0.0438156 -0.0154352 2.84371)
(-0.16156 -0.19389 2.45107)
(-0.0173685 -0.0759921 1.66276)
(0.0532886 -0.145889 0.550475)
(0.034797 0.238761 0.83907)
(0.345208 0.0743177 1.18031)
(0.255068 0.0993344 2.43692)
(0.335641 0.0526862 2.4654)
(0.27442 0.108314 2.20604)
(0.0164951 0.012971 1.08226)
(0.229198 -0.0331105 1.72486)
(0.145772 0.147085 2.31195)
(0.166329 -0.164787 1.68699)
(0.143074 0.0138262 1.60226)
(-0.0801929 0.250678 0.850994)
(0.159492 0.0607325 2.45972)
(0.208063 -0.010797 2.36552)
(0.0951796 -0.100436 1.15899)
(-0.255364 -0.055768 1.08511)
(-0.405142 0.426535 1.5729)
(-0.274362 0.0114153 2.56983)
(-0.134556 -0.180728 2.36749)
(0.0200249 -0.253979 1.01909)
(-0.0234601 0.441193 1.62922)
(-0.0567163 -0.0684286 2.85321)
(-0.231356 -0.171619 2.39227)
(-0.0984398 -0.176492 1.37081)
(-0.0287189 -0.0977457 0.610692)
(0.0479104 0.367091 0.744004)
(0.352051 0.245876 1.17332)
(0.223409 0.0793351 2.37231)
(0.319653 0.0912454 2.47212)
(0.240497 0.250784 2.2542)
(0.0275171 -0.0343477 0.988794)
(0.32866 2.65816e-05 1.37513)
(0.129287 0.132755 2.34808)
(0.117437 -0.173701 1.74753)
(0.208572 0.0683666 1.80729)
(-0.0127501 0.1979 1.00588)
(0.129971 0.0890134 2.50573)
(0.158779 0.0116525 2.35167)
(0.00779051 -0.0424136 1.21642)
(-0.182597 -0.05177 1.08545)
(-0.344889 0.368961 1.57178)
(-0.424698 -0.0926147 2.70051)
(-0.181435 -0.171966 2.31443)
(0.00505276 -0.0319118 1.09719)
(-0.0583326 0.453506 1.63555)
(-0.239637 -0.0387615 2.8198)
(-0.282503 -0.0713256 2.38703)
(-0.102192 -0.154633 1.15378)
(-0.14187 -0.0669949 0.644204)
(0.047982 0.465323 0.693197)
(0.290882 0.35697 1.17037)
(0.100663 0.0470117 2.31684)
(0.258396 0.109774 2.48327)
(0.0831857 0.350522 2.20268)
(0.0397894 -0.105246 0.910315)
(0.329516 0.0973319 1.15269)
(0.0696401 0.0792275 2.38944)
(-0.00496177 -0.0966918 1.83355)
(0.144002 0.253274 1.97089)
(0.0737021 0.143563 1.26117)
(0.0784466 0.104013 2.56062)
(0.0788815 0.0195615 2.333)
(-0.148697 0.0962346 1.40985)
(-0.216935 -0.0355465 0.971406)
(-0.430063 0.351897 1.61739)
(-0.490403 -0.0783777 2.72619)
(-0.167166 -0.155934 2.229)
(0.105831 0.0584764 1.08172)
(-0.227 0.406161 1.70161)
(-0.395455 0.0663209 2.67415)
(-0.346149 0.0702361 2.25188)
(-0.0363606 -0.0539356 1.05593)
(-0.20371 -0.0404053 0.647833)
(0.0388608 0.497044 0.724501)
(0.103292 0.403901 1.23253)
(-0.0671512 0.0381459 2.30115)
(0.108935 0.139855 2.50705)
(-0.101648 0.332039 2.04956)
(0.0248196 -0.14247 0.859558)
(0.291896 0.14342 1.131)
(-0.0332598 0.000878392 2.44292)
(-0.114696 0.00836629 1.93892)
(-0.0278021 0.415355 2.0398)
(0.121178 0.0290718 1.44181)
(0.0327594 0.111382 2.62187)
(0.0373874 -0.0405477 2.35011)
(-0.272898 0.204019 1.66005)
(-0.144332 -0.0308243 0.901407)
(-0.522831 0.335132 1.8125)
(-0.611696 -0.0538332 2.60099)
(0.129569 -0.0675988 1.75499)
(0.137445 0.013564 1.06617)
(-0.306824 0.391956 1.79919)
(-0.447495 0.150199 2.53873)
(-0.351234 0.193209 2.08929)
(0.0142653 0.0104798 1.04004)
(-0.220605 -0.0225784 0.654978)
(0.0278968 0.442588 0.850356)
(-0.0824606 0.439713 1.39133)
(-0.15479 0.057424 2.34656)
(-0.00972525 0.189126 2.54926)
(-0.165731 0.217994 1.89836)
(-0.0138025 -0.147962 0.814311)
(0.232732 0.167205 1.24015)
(-0.122683 -0.0490968 2.50379)
(-0.138197 0.0695904 2.05098)
(-0.183572 0.408323 2.03148)
(0.14762 -0.1248 1.42807)
(-0.000829396 0.10859 2.6741)
(-0.032678 -0.079926 2.39208)
(-0.31829 0.223653 1.84085)
(0.027887 -0.0164336 0.938581)
(-0.24672 0.332073 1.95732)
(-0.683324 0.0790406 2.36712)
(-0.0653419 0.0404396 1.13208)
(0.0185096 -0.06284 1.00832)
(-0.294851 0.392623 1.94653)
(-0.42855 0.144194 2.48866)
(-0.267729 0.261713 1.97337)
(0.0139875 0.018533 1.0534)
(-0.216969 -0.0293627 0.668253)
(0.0123844 0.341201 1.02291)
(-0.177019 0.464361 1.58311)
(-0.153294 0.0710952 2.40542)
(-0.0328097 0.213582 2.60745)
(-0.116918 0.0991911 1.80733)
(-0.0395343 -0.168374 0.773969)
(0.157131 0.165843 1.45915)
(-0.164147 -0.0467728 2.53562)
(-0.0763673 0.117048 2.18305)
(-0.191413 0.300326 1.95072)
(0.163602 -0.199869 1.32706)
(-0.0203255 0.104791 2.71873)
(-0.0638388 -0.0870969 2.45305)
(-0.246351 0.151599 1.88182)
(0.199089 -0.000553954 1.0008)
(-0.0142321 0.00406319 1.6386)
(-0.144638 0.0468166 2.16831)
(-0.135676 0.106311 0.893235)
(-0.0746737 -0.0599541 0.873572)
(-0.254758 0.258839 2.11363)
(-0.377275 0.131885 2.46757)
(-0.170694 0.271924 1.85465)
(0.000504656 -0.0146995 1.09958)
(-0.20624 -0.065682 0.68087)
(-0.00528798 0.251434 1.21028)
(-0.193371 0.463129 1.71181)
(-0.0896401 0.0605591 2.43802)
(-0.00626352 0.196723 2.64457)
(-0.0134669 0.00627689 1.76429)
(-0.0354339 -0.217587 0.759172)
(0.0645638 0.127663 1.75207)
(-0.175105 -0.0140207 2.53361)
(0.0150409 0.172653 2.26318)
(-0.00893818 0.201998 1.86726)
(0.211533 -0.264514 1.25076)
(-0.0122799 0.0891277 2.74024)
(0.0399312 -0.0890534 2.53663)
(-0.0551477 0.0128535 1.8156)
(0.305057 0.0154343 1.08205)
(0.0142088 -0.149226 1.57262)
(0.0452837 -0.0677942 2.10971)
(-0.104968 0.111683 0.827718)
(-0.12635 -0.0385262 0.816592)
(-0.212795 0.189878 2.17664)
(-0.287627 0.172787 2.42853)
(-0.117704 0.20604 1.75838)
(0.00138006 -0.106373 1.15682)
(-0.194632 -0.0970069 0.706026)
(-0.0273375 0.184517 1.40436)
(-0.168653 0.425124 1.76509)
(-0.00910821 0.0384554 2.44167)
(0.0261288 0.159019 2.63845)
(0.0996589 -0.0608398 1.73244)
(-0.0103062 -0.301546 0.782669)
(-0.0280916 0.0438258 2.06294)
(-0.198703 0.0283145 2.47712)
(0.0780954 0.201938 2.24787)
(0.17288 0.171333 1.83312)
(0.265931 -0.338973 1.22425)
(-0.00583408 0.0807814 2.73213)
(0.135395 -0.0554068 2.56784)
(0.136293 -0.0676296 1.79183)
(0.362542 0.0218937 1.13123)
(0.0513485 -0.159306 1.64874)
(0.0132353 -0.173458 1.98245)
(-0.0194251 0.111585 0.883708)
(-0.123361 0.00848777 0.814355)
(-0.179345 0.198405 2.15291)
(-0.156694 0.14867 2.37373)
(-0.0982579 0.0790046 1.70764)
(0.0153193 -0.221079 1.21386)
(-0.169599 -0.112562 0.77287)
(-0.0429183 0.130913 1.5978)
(-0.138773 0.346703 1.82699)
(0.0102075 0.0247775 2.43131)
(0.0624741 0.144106 2.58294)
(0.198748 -0.128112 1.70313)
(0.0151357 -0.385036 0.83557)
(-0.101694 -0.0406975 2.3405)
(-0.220706 -0.000846196 2.40374)
(0.115942 0.17119 2.18322)
(0.300614 0.0975098 1.80315)
(0.308466 -0.400519 1.2551)
(0.0039649 0.0709154 2.72555)
(0.196484 -0.0342856 2.56403)
(0.251455 -0.103122 1.87615)
(0.41738 0.0247309 1.14632)
(0.137025 -0.202434 1.67326)
(0.0901426 -0.148424 1.79787)
(0.0851401 0.125892 0.993579)
(-0.0774032 0.0597783 0.848882)
(-0.125974 0.206184 2.12047)
(-0.035595 0.053475 2.32621)
(-0.095167 -0.0478172 1.69706)
(0.0231701 -0.332211 1.28986)
(-0.128308 -0.0968447 0.893364)
(-0.0473723 0.0799169 1.74544)
(-0.151722 0.293757 1.90606)
(-0.00588911 -0.0214501 2.41062)
(0.137292 0.111602 2.44696)
(0.244947 -0.229473 1.69781)
(0.0233656 -0.429166 0.911543)
(-0.134795 -0.102317 2.49162)
(-0.169893 -0.163284 2.3291)
(0.202599 -0.0138844 2.0475)
(0.389994 -0.0735166 1.74557)
(0.327691 -0.456577 1.33765)
(0.00675567 0.0660613 2.67159)
(0.209183 -0.0382086 2.53216)
(0.340802 -0.131242 1.96939)
(0.477846 0.0255998 1.1615)
(0.244104 -0.287612 1.64004)
(0.180506 -0.149305 1.70326)
(0.166667 0.137058 1.11509)
(-0.028334 0.114601 0.928759)
(-0.136566 0.157378 2.05003)
(0.0027619 -0.0193406 2.30407)
(-0.10811 -0.112062 1.72423)
(0.0151844 -0.390785 1.38157)
(-0.0700472 -0.0444064 1.04137)
(-0.0660853 0.00298626 1.86566)
(-0.218156 0.158363 2.0187)
(0.00906268 -0.165825 2.3905)
(0.154031 0.0396238 2.36409)
(0.198878 -0.342277 1.72187)
(0.0197091 -0.397113 1.01361)
(-0.141802 -0.131968 2.58553)
(0.00980476 -0.431874 2.12206)
(0.270733 -0.204116 1.92955)
(0.400107 -0.215195 1.71641)
(0.279896 -0.492013 1.37801)
(-0.117559 -0.0332195 2.56768)
(0.304454 -0.16329 2.33861)
(0.527598 -0.224847 1.96496)
(0.539917 0.0279847 1.19695)
(0.37212 -0.409784 1.59097)
(0.328974 -0.219504 1.68297)
(0.210732 0.129907 1.24179)
(0.0262777 0.182415 1.04634)
(-0.103386 -0.0376076 1.95949)
(-0.036545 -0.0769687 2.3207)
(-0.125692 -0.122543 1.77879)
(0.00737358 -0.379712 1.47107)
(-0.00987416 0.0117363 1.18194)
(-0.0840921 -0.140144 2.04504)
(-0.235853 -0.16539 2.17281)
(0.0325452 -0.201911 2.40643)
(0.108747 -0.0273585 2.3601)
(0.113158 -0.3945 1.75061)
(0.0183281 -0.288349 1.11857)
(-0.20995 -0.302416 2.5895)
(0.118311 -0.402616 1.93107)
(0.255521 -0.251196 1.88501)
(0.322025 -0.262289 1.75305)
(0.177574 -0.388552 1.29541)
(0.130689 -0.0791066 2.12083)
(0.403691 -0.181545 1.92565)
(0.591634 -0.29009 1.98259)
(0.594897 0.0262868 1.24786)
(0.423348 -0.497149 1.56964)
(0.392085 -0.263105 1.70826)
(0.229283 0.0745321 1.3485)
(0.0780533 0.230415 1.17477)
(-0.106109 -0.285966 1.90227)
(-0.0548983 -0.205068 2.33204)
(-0.10778 -0.128485 1.83801)
(0.0154043 -0.31679 1.53246)
(0.0353349 0.0541689 1.29723)
(-0.0794187 -0.250017 2.20612)
(-0.152771 -0.312336 2.28898)
(0.0399097 -0.182386 2.39588)
(0.0756791 -0.0559646 2.37648)
(0.0683572 -0.376021 1.75855)
(0.0213556 -0.156589 1.20654)
(-0.2015 -0.354085 2.59815)
(0.196445 -0.0977194 1.74286)
(0.17942 -0.221025 1.86975)
(0.00010718 -0.266635 1.80124)
(0.101446 -0.18239 1.18)
(0.343322 0.0350576 1.66)
(0.414395 -0.0654667 1.71425)
(0.527913 -0.247775 2.01211)
(0.638419 0.0149148 1.33872)
(0.398809 -0.556985 1.72806)
(0.363653 -0.380847 1.76308)
(0.265166 -0.03209 1.421)
(0.118862 0.253649 1.30242)
(-0.0709728 -0.537598 1.97898)
(0.0651211 -0.342523 2.27737)
(-0.00303145 -0.13209 1.89956)
(0.0442607 -0.237474 1.58872)
(0.06428 0.0804928 1.39344)
(-0.0613308 -0.294852 2.22245)