/*--------------------------------*- C++ -*----------------------------------*\
| =========                 |                                                 |
| \\      /  F ield         | OpenFOAM: The Open Source CFD Toolbox           |
|  \\    /   O peration     | Version:  5.x                                   |
|   \\  /    A nd           | Web:      www.OpenFOAM.org                      |
|    \\/     M anipulation  |                                                 |
\*---------------------------------------------------------------------------*/
FoamFile
{
    version     2.0;
    format      ascii;
    class       volVectorField;
    location    "3";
    object      Us;
}
// * * * * * * * * * * * * * * * * * * * * * * * * * * * * * * * * * * * * * //

dimensions      [0 1 -1 0 0 0 0];

internalField   nonuniform List<vector> 
10571
(
(-0.394656 -0.0450353 0.0636352)
(-0.0773965 0.101182 -0.0921833)
(-0.207247 0.0102847 0.171669)
(-0.528693 -0.184727 0.139572)
(-0.218514 -0.167435 -0.0507198)
(0.115422 -0.0209043 0.0842408)
(-0.180131 -0.0245985 0.176932)
(-0.533955 0.0531224 0.130612)
(-0.172537 0.0562851 -0.110875)
(-0.0469294 -0.0133062 -0.0407917)
(0.0181766 -0.0882702 -0.0992053)
(0.0983692 -0.150089 0.0710777)
(-0.0888716 -0.0113229 0.117378)
(-0.361744 0.167277 0.20575)
(-0.360501 0.253376 0.11266)
(-0.13261 0.138748 -0.0397572)
(-0.0772256 -0.130094 0.00779933)
(-0.157052 -0.198261 0.0396153)
(-0.108918 -0.162028 0.0878337)
(-0.32682 0.143286 0.148341)
(-0.116359 0.157411 -0.0625229)
(-0.0526623 -0.0709423 -0.207958)
(-0.0354447 -0.103865 -0.0377557)
(-0.135029 0.0357031 -0.0412456)
(-0.132748 -0.0161495 0.118237)
(-0.222849 0.163062 0.0250516)
(-0.388597 -0.0696969 0.358646)
(-0.182458 -0.135783 0.035759)
(-0.154498 -0.122861 -0.124235)
(0.0892871 -0.300675 0.269302)
(-0.120891 -0.153758 0.193229)
(-0.0556192 -0.0591564 -0.0879255)
(-0.05274 -0.0581544 -0.231032)
(-0.0159645 -0.0713359 -0.220625)
(-0.000963962 -0.0700798 -0.0315221)
(-0.0973185 -0.119086 0.17286)
(-0.104145 -0.12152 0.150661)
(-0.136038 0.0192973 0.276262)
(-0.0143957 0.0529329 0.16845)
(-0.0596277 0.010296 -0.24974)
(-0.238927 -0.0787303 0.00385278)
(-0.0300245 -0.00633308 0.0540191)
(-0.114639 0.0956766 0.244244)
(-0.102598 0.0571009 0.051395)
(-0.0379979 0.0644364 -0.176969)
(-0.0115412 -0.0173493 -0.339533)
(0.00921473 0.0317239 -0.07739)
(-0.112702 0.0751714 -0.0631319)
(0.00415529 0.0209986 0.0436556)
(-0.315106 0.082031 0.334117)
(-0.156824 0.0274766 0.289082)
(0.163636 -0.0797657 0.15853)
(-0.0678971 0.0105879 -0.27691)
(-0.023852 -0.222436 0.348931)
(-0.113079 -0.244194 0.173144)
(0.03213 -0.117693 -0.20096)
(0.0130886 -0.108898 -0.308884)
(-0.0202427 -0.076975 -0.26487)
(-0.0082972 -0.0785284 0.0252668)
(-0.174111 -0.133517 0.121271)
(-0.102834 -0.0655505 0.0533048)
(-0.00489897 -0.0545402 0.232541)
(0.0495077 -0.0211917 -0.0249914)
(0.0239486 -0.102077 -0.357248)
(-0.183911 -0.181714 0.0206098)
(-0.0396641 -0.0119733 0.0554772)
(-0.070362 0.172225 0.448557)
(0.0357005 0.0987602 0.177999)
(0.067857 -0.00277339 -0.109414)
(-0.0847429 -0.031569 -0.322137)
(-0.0783334 0.126508 0.200876)
(-0.0970934 0.118709 0.107562)
(0.0396191 0.024128 -0.337274)
(-0.171765 -0.00834334 0.344705)
(-0.103057 -0.0849782 0.180612)
(0.0793519 0.139778 -0.117018)
(0.059708 0.0743313 -0.197243)
(-0.260371 -0.154338 0.306295)
(-0.0898846 -0.111284 -0.110915)
(0.0139041 -0.0487819 -0.282996)
(0.135741 0.0811625 -0.330167)
(-0.0294019 0.0474568 -0.458697)
(0.0240478 0.00745097 -0.0539757)
(-0.0269916 -0.0402956 -0.0970902)
(-0.100732 -0.0266637 -0.0424532)
(-0.0173009 -0.0748411 0.0738119)
(0.0479886 -0.0923924 -0.120148)
(-0.0044039 -0.108125 -0.420536)
(-0.168933 -0.0683612 -0.175339)
(-0.144317 -0.00180501 -0.013873)
(-0.00771144 0.113178 0.399655)
(0.0508661 0.121603 0.180856)
(0.0220564 -0.0946799 -0.326806)
(-0.146153 -0.0485869 -0.334117)
(-0.12797 0.147115 0.345343)
(-0.0102168 0.0489957 0.196348)
(0.0914735 0.0132173 -0.383461)
(-0.0359749 -0.0375696 0.280777)
(-0.168846 -0.0275325 0.15306)
(0.0418933 0.0688569 -0.17811)
(0.146767 0.10524 -0.0902901)
(-0.162588 -0.0778322 0.160705)
(-0.0203234 0.0299888 -0.164059)
(0.0911663 0.0841348 -0.289776)
(0.140053 0.11194 -0.266971)
(-0.0188082 0.0674388 -0.353184)
(0.0119733 0.0498701 -0.227067)
(0.0217657 -0.0407429 -0.0149883)
(-0.0170172 0.0439987 -0.197658)
(-0.00744265 -0.0385348 -0.126609)
(0.0259965 -0.114126 -0.219898)
(-0.0878029 -0.0264107 -0.312402)
(0.00959645 -0.00900823 -0.0381012)
(-0.172295 -0.000813264 -0.198783)
(-0.0123518 0.00852079 0.130486)
(0.0547417 -0.0353656 0.0108341)
(0.0488687 -0.0954366 -0.261619)
(-0.0876958 0.0423269 -0.317484)
(-0.164607 0.070553 -0.142099)
(0.0834187 -0.0570098 0.027826)
(0.0855249 -0.0022446 -0.351653)
(0.0342371 -0.0345942 0.364655)
(0.0289499 0.068543 -0.0514569)
(0.0390876 0.0437778 -0.213244)
(0.0643768 0.0875088 -0.139079)
(-0.171973 0.00593109 0.158442)
(0.0424918 0.111348 -0.197531)
(0.0715764 0.129643 -0.220064)
(0.116357 0.151088 -0.144314)
(-0.0226626 0.0800029 -0.249142)
(-0.0141683 0.00748368 -0.00632312)
(0.0110562 0.0947475 -0.235854)
(0.0457019 -0.011944 0.0230578)
(0.0995095 0.0888104 -0.149135)
(0.138194 0.0925409 -0.212762)
(0.204945 0.0945667 -0.253741)
(-0.101564 -0.0419893 -0.185048)
(-0.00906263 -0.00343589 -0.00435005)
(0.0480635 0.0388136 -0.0784234)
(0.130732 0.117362 -0.200007)
(0.132646 0.0692553 -0.21074)
(0.0233832 -0.0555794 -0.11234)
(0 0 0)
(0.174484 0.070713 -0.307864)
(0 0 0)
(-0.018604 0.0258023 -0.116914)
(-0.0627081 -0.00228621 -0.318256)
(0.0156143 0.00499323 -0.238191)
(-0.0572426 0.0771119 0.150039)
(-0.00606675 0.0712548 -0.242686)
(0.0257715 0.0369566 -0.251261)
(-0.085009 0.186478 0.116247)
(0.0308676 0.143319 -0.0773931)
(0.0354757 0.146181 -0.129358)
(0.120222 0.158433 -0.0781386)
(0 0 0)
(-0.0185686 0.00783923 -0.0140486)
(0.00730843 0.108674 -0.231208)
(0.0215988 0.0593492 0.0538164)
(0.137107 0.0886593 -0.0667917)
(0.171133 0.147715 -0.175473)
(0.213402 0.108676 -0.206022)
(0 0 0)
(-0.0197411 -0.00313475 -0.0159591)
(0.0875021 0.102599 -0.121463)
(0.166744 0.118861 -0.131807)
(0.223753 0.115209 -0.194718)
(0 0 0)
(0 0 0)
(-0.0199403 -0.00867447 -0.0197046)
(0.197942 0.11301 -0.243908)
(0.223525 0.10169 -0.199314)
(0 0 0)
(0.07955 -0.062022 -0.203652)
(0.0509319 -0.0539015 -0.270391)
(0.163749 0.0349071 -0.0610217)
(0.0478533 0.0421529 -0.147137)
(0.00291962 0.0100224 -0.403391)
(0.0427538 0.217837 0.148964)
(0.0375256 0.154057 0.0766334)
(0.0563206 0.138842 -0.0720802)
(0.145182 0.106095 -0.154096)
(0 0 0)
(0 0 0)
(0.00611427 0.0883317 -0.199812)
(0.00569371 0.105715 0.110413)
(0.143859 0.10681 -0.0333986)
(0.184951 0.168202 -0.0925687)
(0.258295 0.0578614 -0.119621)
(0 0 0)
(0 0 0)
(0.0527954 0.11006 -0.0505368)
(0.155199 0.130722 -0.0759473)
(0.219002 0.144344 -0.128102)
(0.319104 0.117588 -0.115637)
(0 0 0)
(0 0 0)
(0.191059 0.128768 -0.136985)
(0.165021 0.246486 -0.162878)
(0 0 0)
(0.0959606 -0.178086 -0.0699438)
(0.0611367 -0.0733895 -0.246396)
(0.170302 -0.0620903 -0.110307)
(0.192027 0.0320497 0.040769)
(0.290167 -0.0798445 -0.159531)
(0.0407344 0.128442 0.0468263)
(0.114295 0.178171 0.162549)
(0.15417 0.117935 -0.0043975)
(0.22262 0.0398224 -0.111533)
(0 0 0)
(0 0 0)
(0.01221 0.0556427 -0.185749)
(0.00768192 0.122485 0.18961)
(0.134766 0.143484 0.0535807)
(0.207331 0.140607 -0.00892612)
(0.291162 0.0861293 -0.0269092)
(0.388529 0.0506055 -0.0877339)
(0 0 0)
(0.0581788 0.139582 -0.0387998)
(0.152249 0.159097 -0.039241)
(0.223892 0.151015 -0.0382044)
(0.291223 0.121994 -0.0646748)
(0 0 0)
(0.179598 0.208486 -0.118991)
(0 0 0)
(0 0 0)
(0.208278 -0.14701 -0.164426)
(0.0449084 -0.0944146 -0.264628)
(0.0917687 -0.034926 -0.364248)
(0.205087 0.014372 0.110493)
(0.331242 -0.0184753 0.06817)
(0.0371832 0.109945 0.0537498)
(0.132108 0.161781 0.205325)
(0.214409 0.0963374 0.121409)
(0.22819 0.0080465 -0.0732032)
(0 0 0)
(-0.00476953 0.0298175 -0.217663)
(0.0156963 0.227504 0.298615)
(0.145645 0.194441 0.113923)
(0.231065 0.130285 0.0433363)
(0.307599 0.0599095 -0.0264858)
(0 0 0)
(0.0535477 0.152759 -0.0707806)
(0.137162 0.181526 0.00868963)
(0.224834 0.16713 -0.0032735)
(0.286599 0.0880744 -0.072398)
(0 0 0)
(0.15407 0.109559 -0.0573842)
(0 0 0)
(0 0 0)
(0 0 0)
(-0.0127849 -0.177306 0.0469081)
(0.149235 -0.0947071 0.0495328)
(0.24561 -0.0270715 0.211001)
(0 0 0)
(0.0126599 0.0319013 0.109711)
(0.137754 0.132991 0.318346)
(0.223829 0.0795647 0.198506)
(0.270504 -0.057814 -0.0526548)
(0 0 0)
(-0.0165848 0.0332466 -0.114487)
(0.0384089 0.200239 0.278719)
(0.145291 0.212132 0.189212)
(0.232653 0.110258 0.0794924)
(0.342206 0.014971 0.075884)
(0 0 0)
(0.0171057 0.213693 0.0051622)
(0.1286 0.207041 0.0785527)
(0.224513 0.152426 0.0462726)
(0 0 0)
(0 0 0)
(0 0 0)
(0 0 0)
(0 0 0)
(0 0 0)
(0 0 0)
(0.145511 -0.072941 0.304385)
(0 0 0)
(0 0 0)
(-0.0204243 0.0308329 0.215553)
(0.147443 0.111008 0.368606)
(0.237503 0.0592839 0.254613)
(0 0 0)
(0 0 0)
(0 0 0)
(0.00710864 0.17577 0.206141)
(0.144029 0.195416 0.251937)
(0.220134 0.0943018 0.113395)
(0 0 0)
(0 0 0)
(-0.0041915 0.2937 0.202785)
(0.135712 0.213909 0.152189)
(0.216522 0.168471 0.111912)
(0 0 0)
(0 0 0)
(0 0 0)
(0 0 0)
(0 0 0)
(0 0 0)
(0 0 0)
(0 0 0)
(0 0 0)
(0 0 0)
(0 0 0)
(0.142421 0.112347 0.433487)
(0.218351 -0.0504204 0.16717)
(0 0 0)
(0 0 0)
(0 0 0)
(0.0487504 0.054483 0.122967)
(0.132677 0.159502 0.306512)
(0.231763 0.0654052 0.152566)
(0.260345 -0.00117268 0.145963)
(0 0 0)
(0 0 0)
(0.192709 0.206715 0.190701)
(0 0 0)
(0 0 0)
(0 0 0)
(0 0 0)
(0 0 0)
(0 0 0)
(0 0 0)
(0 0 0)
(0 0 0)
(0 0 0)
(0 0 0)
(0 0 0)
(0 0 0)
(0 0 0)
(0 0 0)
(0 0 0)
(0 0 0)
(0 0 0)
(0 0 0)
(0 0 0)
(0 0 0)
(0 0 0)
(0 0 0)
(0 0 0)
(0 0 0)
(0 0 0)
(0 0 0)
(0 0 0)
(0 0 0)
(0 0 0)
(0 0 0)
(0 0 0)
(0 0 0)
(0 0 0)
(0 0 0)
(0 0 0)
(0 0 0)
(0 0 0)
(0 0 0)
(0 0 0)
(0 0 0)
(0 0 0)
(0 0 0)
(0 0 0)
(0 0 0)
(0 0 0)
(0 0 0)
(0 0 0)
(0 0 0)
(0 0 0)
(0 0 0)
(0 0 0)
(0 0 0)
(0 0 0)
(0 0 0)
(0 0 0)
(0 0 0)
(0 0 0)
(0 0 0)
(0 0 0)
(0 0 0)
(0 0 0)
(0 0 0)
(0 0 0)
(0 0 0)
(0 0 0)
(0 0 0)
(0 0 0)
(0 0 0)
(0 0 0)
(0 0 0)
(0 0 0)
(0 0 0)
(0 0 0)
(0 0 0)
(0 0 0)
(0 0 0)
(0 0 0)
(0 0 0)
(0 0 0)
(0 0 0)
(0 0 0)
(0 0 0)
(0 0 0)
(0 0 0)
(0 0 0)
(0 0 0)
(0 0 0)
(0 0 0)
(0 0 0)
(0 0 0)
(0 0 0)
(0 0 0)
(0 0 0)
(0 0 0)
(0 0 0)
(0 0 0)
(0 0 0)
(0 0 0)
(0 0 0)
(0 0 0)
(0 0 0)
(0 0 0)
(0 0 0)
(0 0 0)
(0 0 0)
(0 0 0)
(0 0 0)
(0 0 0)
(0 0 0)
(0 0 0)
(0 0 0)
(0 0 0)
(0 0 0)
(0 0 0)
(0 0 0)
(0 0 0)
(0 0 0)
(0 0 0)
(0 0 0)
(0 0 0)
(0 0 0)
(0 0 0)
(0 0 0)
(0 0 0)
(0 0 0)
(0 0 0)
(0 0 0)
(0 0 0)
(0 0 0)
(0 0 0)
(0 0 0)
(0 0 0)
(0 0 0)
(0 0 0)
(0 0 0)
(0 0 0)
(0 0 0)
(0 0 0)
(0 0 0)
(0 0 0)
(0 0 0)
(0 0 0)
(0 0 0)
(0 0 0)
(0 0 0)
(0 0 0)
(0 0 0)
(0 0 0)
(0 0 0)
(0 0 0)
(0 0 0)
(0 0 0)
(0 0 0)
(0 0 0)
(0 0 0)
(0 0 0)
(0 0 0)
(0 0 0)
(0 0 0)
(0 0 0)
(0 0 0)
(0 0 0)
(0 0 0)
(0 0 0)
(0 0 0)
(0 0 0)
(0 0 0)
(0 0 0)
(0 0 0)
(0 0 0)
(0 0 0)
(0 0 0)
(0 0 0)
(0 0 0)
(0 0 0)
(0 0 0)
(0 0 0)
(0 0 0)
(0 0 0)
(0 0 0)
(0 0 0)
(0 0 0)
(0 0 0)
(0 0 0)
(0 0 0)
(0 0 0)
(0 0 0)
(0 0 0)
(0 0 0)
(0 0 0)
(0 0 0)
(0 0 0)
(0 0 0)
(0 0 0)
(0 0 0)
(0 0 0)
(0 0 0)
(0 0 0)
(0 0 0)
(0 0 0)
(0 0 0)
(0 0 0)
(0 0 0)
(0 0 0)
(0 0 0)
(0 0 0)
(0 0 0)
(0 0 0)
(0 0 0)
(0 0 0)
(0 0 0)
(0 0 0)
(0 0 0)
(0 0 0)
(0 0 0)
(0 0 0)
(0 0 0)
(0 0 0)
(0 0 0)
(0 0 0)
(0 0 0)
(0 0 0)
(0 0 0)
(0 0 0)
(0 0 0)
(0 0 0)
(0 0 0)
(0 0 0)
(0 0 0)
(0 0 0)
(0 0 0)
(0 0 0)
(0 0 0)
(0 0 0)
(0 0 0)
(0 0 0)
(0 0 0)
(0 0 0)
(0 0 0)
(0 0 0)
(0 0 0)
(0 0 0)
(0 0 0)
(0 0 0)
(0 0 0)
(0 0 0)
(0 0 0)
(0 0 0)
(0 0 0)
(0 0 0)
(0 0 0)
(0 0 0)
(0 0 0)
(0 0 0)
(0 0 0)
(0 0 0)
(0 0 0)
(0 0 0)
(0 0 0)
(0 0 0)
(0 0 0)
(0 0 0)
(0 0 0)
(0 0 0)
(0 0 0)
(0 0 0)
(0 0 0)
(0 0 0)
(0 0 0)
(0 0 0)
(0 0 0)
(0 0 0)
(0 0 0)
(0 0 0)
(0 0 0)
(0 0 0)
(0 0 0)
(0 0 0)
(0 0 0)
(0 0 0)
(0 0 0)
(0 0 0)
(0 0 0)
(0 0 0)
(0 0 0)
(0 0 0)
(0 0 0)
(0 0 0)
(0 0 0)
(0 0 0)
(0 0 0)
(0 0 0)
(0 0 0)
(0 0 0)
(0 0 0)
(0 0 0)
(0 0 0)
(0 0 0)
(0 0 0)
(0 0 0)
(0 0 0)
(0 0 0)
(0 0 0)
(0 0 0)
(0 0 0)
(0 0 0)
(0 0 0)
(0 0 0)
(0 0 0)
(0 0 0)
(0 0 0)
(0 0 0)
(0 0 0)
(0 0 0)
(0 0 0)
(0 0 0)
(0 0 0)
(0 0 0)
(0 0 0)
(0 0 0)
(0 0 0)
(0 0 0)
(0 0 0)
(0 0 0)
(0 0 0)
(0 0 0)
(0 0 0)
(0 0 0)
(0 0 0)
(0 0 0)
(0 0 0)
(0 0 0)
(0 0 0)
(0 0 0)
(0 0 0)
(0 0 0)
(0 0 0)
(0 0 0)
(0 0 0)
(0 0 0)
(0 0 0)
(0 0 0)
(0 0 0)
(0 0 0)
(0 0 0)
(0 0 0)
(0 0 0)
(0 0 0)
(0 0 0)
(0 0 0)
(0 0 0)
(0 0 0)
(0 0 0)
(0 0 0)
(0 0 0)
(0 0 0)
(0 0 0)
(0 0 0)
(0 0 0)
(0 0 0)
(0 0 0)
(0 0 0)
(0 0 0)
(0 0 0)
(0 0 0)
(0 0 0)
(0 0 0)
(0 0 0)
(0 0 0)
(0 0 0)
(0 0 0)
(0 0 0)
(0 0 0)
(0 0 0)
(0 0 0)
(0 0 0)
(0 0 0)
(0 0 0)
(0 0 0)
(0 0 0)
(0 0 0)
(0 0 0)
(0 0 0)
(0 0 0)
(0 0 0)
(0 0 0)
(0 0 0)
(0 0 0)
(0 0 0)
(0 0 0)
(0 0 0)
(0 0 0)
(0 0 0)
(0 0 0)
(0 0 0)
(0 0 0)
(0 0 0)
(0 0 0)
(0 0 0)
(0 0 0)
(0 0 0)
(0 0 0)
(0 0 0)
(0 0 0)
(0 0 0)
(0 0 0)
(0 0 0)
(0 0 0)
(0 0 0)
(0 0 0)
(0 0 0)
(0 0 0)
(0 0 0)
(0 0 0)
(0 0 0)
(0 0 0)
(0 0 0)
(0 0 0)
(0 0 0)
(0 0 0)
(0 0 0)
(0 0 0)
(0 0 0)
(0 0 0)
(0 0 0)
(0 0 0)
(0 0 0)
(0 0 0)
(0 0 0)
(0 0 0)
(0 0 0)
(0 0 0)
(0 0 0)
(0 0 0)
(0 0 0)
(0 0 0)
(0 0 0)
(0 0 0)
(0 0 0)
(0 0 0)
(0 0 0)
(0 0 0)
(0 0 0)
(0 0 0)
(0 0 0)
(0 0 0)
(0 0 0)
(0 0 0)
(0 0 0)
(0 0 0)
(0 0 0)
(0 0 0)
(0 0 0)
(0 0 0)
(0 0 0)
(0 0 0)
(0 0 0)
(0 0 0)
(0 0 0)
(0 0 0)
(0 0 0)
(0 0 0)
(0 0 0)
(0 0 0)
(0 0 0)
(0 0 0)
(0 0 0)
(0 0 0)
(0 0 0)
(0 0 0)
(0 0 0)
(0 0 0)
(0 0 0)
(0 0 0)
(0 0 0)
(0 0 0)
(0 0 0)
(0 0 0)
(0 0 0)
(0 0 0)
(0 0 0)
(0 0 0)
(0 0 0)
(0 0 0)
(0 0 0)
(0 0 0)
(0 0 0)
(0 0 0)
(0 0 0)
(0 0 0)
(0 0 0)
(0 0 0)
(0 0 0)
(0 0 0)
(0 0 0)
(0 0 0)
(0 0 0)
(0 0 0)
(0 0 0)
(0 0 0)
(0 0 0)
(0 0 0)
(0 0 0)
(0 0 0)
(0 0 0)
(0 0 0)
(0 0 0)
(0 0 0)
(0 0 0)
(0 0 0)
(0 0 0)
(0 0 0)
(0 0 0)
(0 0 0)
(0 0 0)
(0 0 0)
(0 0 0)
(0 0 0)
(0 0 0)
(0 0 0)
(0 0 0)
(0 0 0)
(0 0 0)
(0 0 0)
(0 0 0)
(0 0 0)
(0 0 0)
(0 0 0)
(0 0 0)
(0 0 0)
(0 0 0)
(0 0 0)
(0 0 0)
(0 0 0)
(0 0 0)
(0 0 0)
(0 0 0)
(0 0 0)
(0 0 0)
(0 0 0)
(0 0 0)
(0 0 0)
(0 0 0)
(0 0 0)
(0 0 0)
(0 0 0)
(0 0 0)
(0 0 0)
(0 0 0)
(0 0 0)
(0 0 0)
(0 0 0)
(0 0 0)
(0 0 0)
(0 0 0)
(0 0 0)
(0 0 0)
(0 0 0)
(0 0 0)
(0 0 0)
(0 0 0)
(0 0 0)
(0 0 0)
(0 0 0)
(0 0 0)
(0 0 0)
(0 0 0)
(0 0 0)
(0 0 0)
(0 0 0)
(0 0 0)
(0 0 0)
(0 0 0)
(0 0 0)
(0 0 0)
(0 0 0)
(0 0 0)
(0 0 0)
(0 0 0)
(0 0 0)
(0 0 0)
(0 0 0)
(0 0 0)
(0 0 0)
(0 0 0)
(0 0 0)
(0 0 0)
(0 0 0)
(0 0 0)
(0 0 0)
(0 0 0)
(0 0 0)
(0 0 0)
(0 0 0)
(0 0 0)
(0 0 0)
(0 0 0)
(0 0 0)
(0 0 0)
(0 0 0)
(0 0 0)
(0 0 0)
(0 0 0)
(0 0 0)
(0 0 0)
(0 0 0)
(0 0 0)
(0 0 0)
(0 0 0)
(0 0 0)
(0 0 0)
(0 0 0)
(0 0 0)
(0 0 0)
(0 0 0)
(0 0 0)
(0 0 0)
(0 0 0)
(0 0 0)
(0 0 0)
(0 0 0)
(0 0 0)
(0 0 0)
(0 0 0)
(0 0 0)
(0 0 0)
(0 0 0)
(0 0 0)
(0 0 0)
(0 0 0)
(0 0 0)
(0 0 0)
(0 0 0)
(0 0 0)
(0 0 0)
(0 0 0)
(0 0 0)
(0 0 0)
(0 0 0)
(0 0 0)
(0 0 0)
(0 0 0)
(0 0 0)
(0 0 0)
(0 0 0)
(0 0 0)
(0 0 0)
(0 0 0)
(0 0 0)
(0 0 0)
(0 0 0)
(0 0 0)
(0 0 0)
(0 0 0)
(0 0 0)
(0 0 0)
(0 0 0)
(0 0 0)
(0 0 0)
(0 0 0)
(0 0 0)
(0 0 0)
(0 0 0)
(0 0 0)
(0 0 0)
(0 0 0)
(0 0 0)
(0 0 0)
(0 0 0)
(0 0 0)
(0 0 0)
(0 0 0)
(0 0 0)
(0 0 0)
(0 0 0)
(0 0 0)
(0 0 0)
(0 0 0)
(0 0 0)
(0 0 0)
(0 0 0)
(0 0 0)
(0 0 0)
(0 0 0)
(0 0 0)
(0 0 0)
(0 0 0)
(0 0 0)
(0 0 0)
(0 0 0)
(0 0 0)
(0 0 0)
(0 0 0)
(0 0 0)
(0 0 0)
(0 0 0)
(0 0 0)
(0 0 0)
(0 0 0)
(0 0 0)
(0 0 0)
(0 0 0)
(0 0 0)
(0 0 0)
(0 0 0)
(0 0 0)
(0 0 0)
(0 0 0)
(0 0 0)
(0 0 0)
(0 0 0)
(0 0 0)
(0 0 0)
(0 0 0)
(0 0 0)
(0 0 0)
(0 0 0)
(0 0 0)
(0 0 0)
(0 0 0)
(0 0 0)
(0 0 0)
(0 0 0)
(0 0 0)
(0 0 0)
(0 0 0)
(0 0 0)
(0 0 0)
(0 0 0)
(0 0 0)
(0 0 0)
(0 0 0)
(0 0 0)
(0 0 0)
(0 0 0)
(0 0 0)
(0 0 0)
(0 0 0)
(0 0 0)
(0 0 0)
(0 0 0)
(0 0 0)
(0 0 0)
(0 0 0)
(0 0 0)
(0 0 0)
(0 0 0)
(0 0 0)
(0 0 0)
(0 0 0)
(0 0 0)
(0 0 0)
(0 0 0)
(0 0 0)
(0 0 0)
(0 0 0)
(0 0 0)
(0 0 0)
(0 0 0)
(0 0 0)
(0 0 0)
(0 0 0)
(0 0 0)
(0 0 0)
(0 0 0)
(0 0 0)
(0 0 0)
(0 0 0)
(0 0 0)
(0 0 0)
(0 0 0)
(0 0 0)
(0 0 0)
(0 0 0)
(0 0 0)
(0 0 0)
(0 0 0)
(0 0 0)
(0 0 0)
(0 0 0)
(0 0 0)
(0 0 0)
(0 0 0)
(0 0 0)
(0 0 0)
(0 0 0)
(0 0 0)
(0 0 0)
(0 0 0)
(0 0 0)
(0 0 0)
(0 0 0)
(0 0 0)
(0 0 0)
(0 0 0)
(0 0 0)
(0 0 0)
(0 0 0)
(0 0 0)
(0 0 0)
(0 0 0)
(0 0 0)
(0 0 0)
(0 0 0)
(0 0 0)
(0 0 0)
(0 0 0)
(0 0 0)
(0 0 0)
(0 0 0)
(0 0 0)
(0 0 0)
(0 0 0)
(0 0 0)
(0 0 0)
(0 0 0)
(0 0 0)
(0 0 0)
(0 0 0)
(0 0 0)
(0 0 0)
(0 0 0)
(0 0 0)
(0 0 0)
(0 0 0)
(0 0 0)
(0 0 0)
(0 0 0)
(0 0 0)
(0 0 0)
(0 0 0)
(0 0 0)
(0 0 0)
(0 0 0)
(0 0 0)
(0 0 0)
(0 0 0)
(0 0 0)
(0 0 0)
(0 0 0)
(0 0 0)
(0 0 0)
(0 0 0)
(0 0 0)
(0 0 0)
(0 0 0)
(0 0 0)
(0 0 0)
(0 0 0)
(0 0 0)
(0 0 0)
(0 0 0)
(0 0 0)
(0 0 0)
(0 0 0)
(0 0 0)
(0 0 0)
(0 0 0)
(0 0 0)
(0 0 0)
(0 0 0)
(0 0 0)
(0 0 0)
(0 0 0)
(0 0 0)
(0 0 0)
(0 0 0)
(0 0 0)
(0 0 0)
(0 0 0)
(0 0 0)
(0 0 0)
(0 0 0)
(0 0 0)
(0 0 0)
(0 0 0)
(0 0 0)
(0 0 0)
(0 0 0)
(0 0 0)
(0 0 0)
(0 0 0)
(0 0 0)
(0 0 0)
(0 0 0)
(0 0 0)
(0 0 0)
(0 0 0)
(0 0 0)
(0 0 0)
(0 0 0)
(0 0 0)
(0 0 0)
(0 0 0)
(0 0 0)
(0 0 0)
(0 0 0)
(0 0 0)
(0 0 0)
(0 0 0)
(0 0 0)
(0 0 0)
(0 0 0)
(0 0 0)
(0 0 0)
(0 0 0)
(0 0 0)
(0 0 0)
(0 0 0)
(0 0 0)
(0 0 0)
(0 0 0)
(0 0 0)
(0 0 0)
(0 0 0)
(0 0 0)
(0 0 0)
(0 0 0)
(0 0 0)
(0 0 0)
(0 0 0)
(0 0 0)
(0 0 0)
(0 0 0)
(0 0 0)
(0 0 0)
(0 0 0)
(0 0 0)
(0 0 0)
(0 0 0)
(0 0 0)
(0 0 0)
(0 0 0)
(0 0 0)
(0 0 0)
(0 0 0)
(0 0 0)
(0 0 0)
(0 0 0)
(0 0 0)
(0 0 0)
(0 0 0)
(0 0 0)
(0 0 0)
(0 0 0)
(0 0 0)
(0 0 0)
(0 0 0)
(0 0 0)
(0 0 0)
(0 0 0)
(0 0 0)
(0 0 0)
(0 0 0)
(0 0 0)
(0 0 0)
(0 0 0)
(0 0 0)
(0 0 0)
(0 0 0)
(0 0 0)
(0 0 0)
(0 0 0)
(0 0 0)
(0 0 0)
(0 0 0)
(0 0 0)
(0 0 0)
(0 0 0)
(0 0 0)
(0 0 0)
(0 0 0)
(0 0 0)
(0 0 0)
(0 0 0)
(0 0 0)
(0 0 0)
(0 0 0)
(0 0 0)
(0 0 0)
(0 0 0)
(0 0 0)
(0 0 0)
(0 0 0)
(0 0 0)
(0 0 0)
(0 0 0)
(0 0 0)
(0 0 0)
(0 0 0)
(0 0 0)
(0 0 0)
(0 0 0)
(0 0 0)
(0 0 0)
(0 0 0)
(0 0 0)
(0 0 0)
(0 0 0)
(0 0 0)
(0 0 0)
(0 0 0)
(0 0 0)
(0 0 0)
(0 0 0)
(0 0 0)
(0 0 0)
(0 0 0)
(0 0 0)
(0 0 0)
(0 0 0)
(0 0 0)
(0 0 0)
(0 0 0)
(0 0 0)
(0 0 0)
(0 0 0)
(0 0 0)
(0 0 0)
(0 0 0)
(0 0 0)
(0 0 0)
(0 0 0)
(0 0 0)
(0 0 0)
(0 0 0)
(0 0 0)
(0 0 0)
(0 0 0)
(0 0 0)
(0 0 0)
(0 0 0)
(0 0 0)
(0 0 0)
(0 0 0)
(0 0 0)
(0 0 0)
(0 0 0)
(0 0 0)
(0 0 0)
(0 0 0)
(0 0 0)
(0 0 0)
(0 0 0)
(0 0 0)
(0 0 0)
(0 0 0)
(0 0 0)
(0 0 0)
(0 0 0)
(0 0 0)
(0 0 0)
(0 0 0)
(0 0 0)
(0 0 0)
(0 0 0)
(0 0 0)
(0 0 0)
(0 0 0)
(0 0 0)
(0 0 0)
(0 0 0)
(0 0 0)
(0 0 0)
(0 0 0)
(0 0 0)
(0 0 0)
(0 0 0)
(0 0 0)
(0 0 0)
(0 0 0)
(0 0 0)
(0 0 0)
(0 0 0)
(0 0 0)
(0 0 0)
(0 0 0)
(0 0 0)
(0 0 0)
(0 0 0)
(0 0 0)
(0 0 0)
(0 0 0)
(0 0 0)
(0 0 0)
(0 0 0)
(0 0 0)
(0 0 0)
(0 0 0)
(0 0 0)
(0 0 0)
(0 0 0)
(0 0 0)
(0 0 0)
(0 0 0)
(0 0 0)
(0 0 0)
(0 0 0)
(0 0 0)
(0 0 0)
(0 0 0)
(0 0 0)
(0 0 0)
(0 0 0)
(0 0 0)
(0 0 0)
(0 0 0)
(0 0 0)
(0 0 0)
(0 0 0)
(0 0 0)
(0 0 0)
(0 0 0)
(0 0 0)
(0 0 0)
(0 0 0)
(0 0 0)
(0 0 0)
(0 0 0)
(0 0 0)
(0 0 0)
(0 0 0)
(0 0 0)
(0 0 0)
(0 0 0)
(0 0 0)
(0 0 0)
(0 0 0)
(0 0 0)
(0 0 0)
(0 0 0)
(0 0 0)
(0 0 0)
(0 0 0)
(0 0 0)
(0 0 0)
(0 0 0)
(0 0 0)
(0 0 0)
(0 0 0)
(0 0 0)
(0 0 0)
(0 0 0)
(0 0 0)
(0 0 0)
(0 0 0)
(0 0 0)
(0 0 0)
(0 0 0)
(0 0 0)
(0 0 0)
(0 0 0)
(0 0 0)
(0 0 0)
(0 0 0)
(0 0 0)
(0 0 0)
(0 0 0)
(0 0 0)
(0 0 0)
(0 0 0)
(0 0 0)
(0 0 0)
(0 0 0)
(0 0 0)
(0 0 0)
(0 0 0)
(0 0 0)
(0 0 0)
(0 0 0)
(0 0 0)
(0 0 0)
(0 0 0)
(0 0 0)
(0 0 0)
(0 0 0)
(0 0 0)
(0 0 0)
(0 0 0)
(0 0 0)
(0 0 0)
(0 0 0)
(0 0 0)
(0 0 0)
(0 0 0)
(0 0 0)
(0 0 0)
(0 0 0)
(0 0 0)
(0 0 0)
(0 0 0)
(0 0 0)
(0 0 0)
(0 0 0)
(0 0 0)
(0 0 0)
(0 0 0)
(0 0 0)
(0 0 0)
(0 0 0)
(0 0 0)
(0 0 0)
(0 0 0)
(0 0 0)
(0 0 0)
(0 0 0)
(0 0 0)
(0 0 0)
(0 0 0)
(0 0 0)
(0 0 0)
(0 0 0)
(0 0 0)
(0 0 0)
(0 0 0)
(0 0 0)
(0 0 0)
(0 0 0)
(0 0 0)
(0 0 0)
(0 0 0)
(0 0 0)
(0 0 0)
(0 0 0)
(0 0 0)
(0 0 0)
(0 0 0)
(0 0 0)
(0 0 0)
(0 0 0)
(0 0 0)
(0 0 0)
(0 0 0)
(0 0 0)
(0 0 0)
(0 0 0)
(0 0 0)
(0 0 0)
(0 0 0)
(0 0 0)
(0 0 0)
(0 0 0)
(0 0 0)
(0 0 0)
(0 0 0)
(0 0 0)
(0 0 0)
(0 0 0)
(0 0 0)
(0 0 0)
(0 0 0)
(0 0 0)
(0 0 0)
(0 0 0)
(0 0 0)
(0 0 0)
(0 0 0)
(0 0 0)
(0 0 0)
(0 0 0)
(0 0 0)
(0 0 0)
(0 0 0)
(0 0 0)
(0 0 0)
(0 0 0)
(0 0 0)
(0 0 0)
(0 0 0)
(0 0 0)
(0 0 0)
(0 0 0)
(0 0 0)
(0 0 0)
(0 0 0)
(0 0 0)
(0 0 0)
(0 0 0)
(0 0 0)
(0 0 0)
(0 0 0)
(0 0 0)
(0 0 0)
(0 0 0)
(0 0 0)
(0 0 0)
(0 0 0)
(0 0 0)
(0 0 0)
(0 0 0)
(0 0 0)
(0 0 0)
(0 0 0)
(0 0 0)
(0 0 0)
(0 0 0)
(0 0 0)
(0 0 0)
(0 0 0)
(0 0 0)
(0 0 0)
(0 0 0)
(0 0 0)
(0 0 0)
(0 0 0)
(0 0 0)
(0 0 0)
(0 0 0)
(0 0 0)
(0 0 0)
(0 0 0)
(0 0 0)
(0 0 0)
(0 0 0)
(0 0 0)
(0 0 0)
(0 0 0)
(0 0 0)
(0 0 0)
(0 0 0)
(0 0 0)
(0 0 0)
(0 0 0)
(0 0 0)
(0 0 0)
(0 0 0)
(0 0 0)
(0 0 0)
(0 0 0)
(0 0 0)
(0 0 0)
(0 0 0)
(0 0 0)
(0 0 0)
(0 0 0)
(0 0 0)
(0 0 0)
(0 0 0)
(0 0 0)
(0 0 0)
(0 0 0)
(0 0 0)
(0 0 0)
(0 0 0)
(0 0 0)
(0 0 0)
(0 0 0)
(0 0 0)
(0 0 0)
(0 0 0)
(0 0 0)
(0 0 0)
(0 0 0)
(0 0 0)
(0 0 0)
(0 0 0)
(0 0 0)
(0 0 0)
(0 0 0)
(0 0 0)
(0 0 0)
(0 0 0)
(0 0 0)
(0 0 0)
(0 0 0)
(0 0 0)
(0 0 0)
(0 0 0)
(0 0 0)
(0 0 0)
(0 0 0)
(0 0 0)
(0 0 0)
(0 0 0)
(0 0 0)
(0 0 0)
(0 0 0)
(0 0 0)
(0 0 0)
(0 0 0)
(0 0 0)
(0 0 0)
(0 0 0)
(0 0 0)
(0 0 0)
(0 0 0)
(0 0 0)
(0 0 0)
(0 0 0)
(0 0 0)
(0 0 0)
(0 0 0)
(0 0 0)
(0 0 0)
(0 0 0)
(0 0 0)
(0 0 0)
(0 0 0)
(0 0 0)
(0 0 0)
(0 0 0)
(0 0 0)
(0 0 0)
(0 0 0)
(0 0 0)
(0 0 0)
(0 0 0)
(0 0 0)
(0 0 0)
(0 0 0)
(0 0 0)
(0 0 0)
(0 0 0)
(0 0 0)
(0 0 0)
(0 0 0)
(0 0 0)
(0 0 0)
(0 0 0)
(0 0 0)
(0 0 0)
(0 0 0)
(0 0 0)
(0 0 0)
(0 0 0)
(0 0 0)
(0 0 0)
(0 0 0)
(0 0 0)
(0 0 0)
(0 0 0)
(0 0 0)
(0 0 0)
(0 0 0)
(0 0 0)
(0 0 0)
(0 0 0)
(0 0 0)
(0 0 0)
(0 0 0)
(0 0 0)
(0 0 0)
(0 0 0)
(0 0 0)
(0 0 0)
(0 0 0)
(0 0 0)
(0 0 0)
(0 0 0)
(0 0 0)
(0 0 0)
(0 0 0)
(0 0 0)
(0 0 0)
(0 0 0)
(0 0 0)
(0 0 0)
(0 0 0)
(0 0 0)
(0 0 0)
(0 0 0)
(0 0 0)
(0 0 0)
(0 0 0)
(0 0 0)
(0 0 0)
(0 0 0)
(0 0 0)
(0 0 0)
(0 0 0)
(0 0 0)
(0 0 0)
(0 0 0)
(0 0 0)
(0 0 0)
(0 0 0)
(0 0 0)
(0 0 0)
(0 0 0)
(0 0 0)
(0 0 0)
(0 0 0)
(0 0 0)
(0 0 0)
(0 0 0)
(0 0 0)
(0 0 0)
(0 0 0)
(0 0 0)
(0 0 0)
(0 0 0)
(0 0 0)
(0 0 0)
(0 0 0)
(0 0 0)
(0 0 0)
(0 0 0)
(0 0 0)
(0 0 0)
(0 0 0)
(0 0 0)
(0 0 0)
(-0.0646614 0.0308992 0.00542599)
(-0.130291 0.0283111 -0.0126335)
(-0.102022 0.0331429 0.00930852)
(-0.16056 0.0191518 0.0239324)
(-0.157654 -0.0204982 0.00706902)
(-0.295502 -0.0638095 0.0417841)
(-0.303991 -0.103813 0.0261622)
(-0.23003 -0.100954 0.00198181)
(0.0192456 0.0476276 -0.0236751)
(0.0161229 0.0709113 -0.0258188)
(-0.0375916 0.0237725 0.0114222)
(0.0484387 0.0813972 0.00576175)
(-0.0306948 0.028452 0.0203153)
(-0.112854 0.0010554 0.0197397)
(-0.174905 -0.0109897 0.0390963)
(-0.121029 -0.00460217 0.0236692)
(-0.235894 -0.0057991 0.0653051)
(-0.334651 -0.0785664 0.0565766)
(-0.475894 -0.15836 0.0398587)
(-0.368065 -0.0647699 0.0631132)
(-0.597643 -0.109473 0.0307517)
(-0.346852 -0.158708 -0.00302396)
(-0.185092 -0.126319 -0.0323713)
(-0.404954 -0.114651 -0.0304119)
(-0.203884 -0.0966537 -0.0392333)
(-0.0826524 -0.0691132 -0.00946268)
(0.0356675 -0.0282944 -0.00591558)
(0.0235568 -0.0683594 -0.0423309)
(0.038079 -0.0919383 -0.0115779)
(0.0439829 -0.0504261 -0.00584492)
(-0.102148 -0.0462114 0.00896151)
(0.0105415 -0.0800074 -0.00222885)
(-0.0755665 -0.0482394 -0.00328122)
(-0.152567 0.0253417 0.022724)
(-0.245761 0.0425218 0.0403109)
(-0.141674 0.0461049 -0.00145468)
(-0.184945 0.0613322 0.0213064)
(-0.334471 0.0013371 0.0389703)
(-0.612072 0.0239884 0.0244146)
(-0.283594 0.0593845 0.0456376)
(-0.521282 0.114558 0.0621029)
(-0.402855 0.0476733 -0.0425458)
(-0.234845 0.0184554 -0.0417987)
(-0.466704 0.173134 0.0027827)
(-0.286177 0.145373 -0.016401)
(-0.114158 -0.0343107 0.00389195)
(-0.0961674 0.0930896 -0.0065412)
(-0.00572312 0.0956104 -0.00118396)
(0.0159666 -0.0650883 -0.0388552)
(0.0478979 -0.115846 -0.0186319)
(0.0451347 -0.11068 -0.0198555)
(0.0603946 -0.097531 0.0021398)
(-0.0390716 -0.00584448 -0.00609038)
(0.0686051 -0.159886 0.0246681)
(-0.103619 -0.0476667 -0.0024936)
(-0.0958535 0.0372604 0.000300156)
(-0.126272 0.0559246 0.00836614)
(-0.110106 -0.0480323 0.00921501)
(-0.117124 0.026301 0.00838831)
(-0.180009 0.0816125 0.0260161)
(-0.277331 0.105666 0.0486896)
(-0.169259 0.0620164 0.0211788)
(-0.218536 0.0952609 0.0471725)
(-0.501718 0.233411 0.0881597)
(-0.331308 0.22311 0.048756)
(-0.469018 0.225475 0.173831)
(-0.333477 0.23747 0.0750362)
(-0.165874 0.182479 0.00916142)
(-0.0397489 0.127468 0.0159594)
(-0.185067 0.221497 -0.0107007)
(0.00986698 -0.103354 -0.0184131)
(-0.0126709 -0.179815 0.0192317)
(-0.109187 -0.251453 0.0063963)
(-0.0338181 -0.101982 -0.00736415)
(-0.102043 -0.170384 0.00698332)
(-0.116698 -0.319076 -0.00589271)
(-0.0844459 -0.363639 0.0201432)
(-0.152064 -0.273638 -0.00947806)
(-0.109035 -0.340513 0.0217987)
(-0.126692 -0.171442 0.026342)
(-0.197361 0.00486037 0.0494391)
(-0.050751 -0.295261 0.0312244)
(-0.0613043 -0.177206 0.0124797)
(-0.285595 0.118465 0.0966888)
(-0.2571 0.210004 0.0531732)
(-0.1496 0.044489 0.040838)
(-0.156626 0.114271 0.0173767)
(-0.14989 0.182009 -0.00383728)
(-0.101233 -0.100479 -0.0114428)
(-0.143976 -0.145613 -0.0449258)
(-0.0658983 -0.191109 -0.0724115)
(0.00413527 -0.0704617 -0.124387)
(-0.0128359 -0.181804 -0.00581031)
(0.0118964 -0.122941 -0.034036)
(0.0374474 -0.0696766 -0.0707667)
(0.0041814 -0.0291996 -0.00411965)
(-0.16639 0.0888859 -0.0505032)
(-0.162766 0.0916526 -0.125675)
(-0.316557 0.0518528 -0.00618377)
(-0.263768 0.0930762 0.0278104)
(-0.335762 0.0456791 0.094532)
(-0.267787 0.0162167 0.00901789)
(-0.293251 0.0534536 0.109805)
(-0.388367 -0.00935971 0.0974797)
(-0.426898 -0.135283 0.100445)
(-0.322548 -0.134893 0.0403111)
(-0.253841 -0.032694 0.0710437)
(-0.325781 -0.118806 0.0953298)
(-0.239228 -0.135795 0.0640018)
(-0.236888 -0.136864 -0.0186325)
(-0.17514 -0.115614 0.00752426)
(0.0361795 -0.00121838 -0.000598605)
(0.0476429 -0.0504865 0.0764264)
(-0.122914 0.090232 -0.0309947)
(0.0679887 0.0377744 0.0495102)
(0.0576971 0.00549168 0.14382)
(-0.166909 0.130646 -0.0691476)
(-0.20483 0.119758 -0.0392754)
(0.0771487 -0.047638 0.139828)
(0.0376804 -0.100647 0.229543)
(-0.127957 -0.123539 -0.0826182)
(-0.180295 -0.0698919 -0.119872)
(-0.115634 -0.0800249 -0.116919)
(-0.144763 -0.139275 -0.098623)
(-0.102285 -0.106671 -0.133353)
(-0.109402 -0.0726544 -0.172768)
(-0.0852 -0.0742947 -0.191439)
(-0.0409634 -0.0548632 -0.0500488)
(-0.0364219 -0.0570676 -0.119275)
(0.111855 -0.214961 -0.0139353)
(0.0370893 -0.125939 -0.103024)
(0.0880768 -0.171304 -0.0454183)
(0.108493 -0.22501 0.124677)
(0.0253898 -0.068878 -0.0471855)
(0.0772446 -0.0983371 0.029786)
(-0.0577303 0.0687279 -0.0433477)
(-0.00199172 0.0561144 0.0239501)
(-0.0301952 -0.0347826 -0.134398)
(-0.0599477 0.0234074 -0.135219)
(-0.00952028 0.0171344 -0.0516588)
(0.0440189 -0.0924501 -0.0199492)
(-0.0121076 -0.084975 -0.0242225)
(0.0180174 -0.0556397 -0.0809356)
(0.0164645 -0.0682545 -0.0152586)
(-0.049778 -0.0744828 -0.00290238)
(-0.0350949 0.0995511 0.00730827)
(-0.135518 0.165696 -0.0660968)
(-0.101373 0.0849308 -0.139224)
(-0.0218731 0.0531624 -0.0719149)
(-0.0750885 0.103894 -0.143667)
(-0.0317999 -0.0884626 -0.0470582)
(-0.0600285 -0.0808696 -0.0557998)
(-0.162746 -0.148825 0.0262186)
(-0.0575669 -0.0802662 -0.0466272)
(-0.085192 -0.111085 -0.0134176)
(-0.167646 -0.100281 -0.0132834)
(-0.226706 -0.0923044 0.0525022)
(-0.109308 -0.0928758 -0.163171)
(-0.0953864 -0.0540999 -0.238656)
(-0.220232 0.137585 0.0120939)
(-0.236742 0.117986 0.0461403)
(-0.154174 0.116551 -0.0386739)
(-0.196384 0.0673773 0.109746)
(-0.137634 0.10075 -0.0528702)
(-0.159955 0.0725841 -0.0318055)
(-0.103234 0.084574 -0.106571)
(-0.0714815 0.0952557 -0.134271)
(-0.0637842 -0.0575688 -0.0819333)
(-0.0541779 -0.0322996 -0.349985)
(-0.0153719 -0.0903965 -0.196988)
(0.00783523 -0.0175619 -0.271106)
(0.0226178 -0.0438338 -0.349272)
(0.0225805 -0.00310923 -0.293333)
(0.019938 0.00553969 -0.338652)
(-0.0800881 -0.0495793 -0.0818448)
(0.027101 -0.0276632 -0.149653)
(-0.0226835 0.0031767 -0.0876346)
(-0.112572 0.00744099 -0.0911417)
(0.0261089 0.0233118 -0.245011)
(-0.137918 0.0572555 -0.0862724)
(-0.163501 0.0913608 -0.104554)
(-0.154336 0.0532909 -0.0815286)
(-0.122105 0.00878221 -0.000826748)
(-0.177694 0.0398518 0.00913201)
(-0.223849 0.0243213 0.0848699)
(-0.0619425 0.0113745 -0.0351826)
(-0.146188 0.0393371 -0.079689)
(-0.0822548 0.0646825 0.00817623)
(-0.200841 -0.0546966 0.129348)
(-0.201253 -0.0992087 0.0938437)
(-0.0474195 0.00655769 0.119902)
(-0.096412 0.00795338 0.182208)
(-0.153501 -0.0486482 0.108232)
(-0.173302 -0.10431 0.0228048)
(-0.142034 -0.067869 0.000486934)
(0.0576348 -0.101291 0.176956)
(0.0113254 -0.100624 0.275585)
(-0.267183 0.0858497 0.0847448)
(0.0503869 -0.157021 0.270731)
(-0.131984 -0.199367 0.351482)
(-0.276127 0.145586 0.191812)
(-0.294737 0.00101954 0.280879)
(-0.0238943 -0.217667 0.385948)
(-0.165642 -0.228553 0.432817)
(-0.104032 -0.103762 -0.187219)
(-0.0966922 -0.102017 -0.214183)
(-0.0733606 -0.0868399 -0.23192)
(-0.138916 -0.0750125 -0.149161)
(-0.0849795 -0.0669902 -0.234484)
(-0.0663734 -0.114252 -0.23207)
(-0.061183 -0.0858048 -0.251723)
(-0.0373037 -0.0726669 -0.193796)
(-0.0311097 -0.0656145 -0.224769)
(0.0757574 -0.202198 0.219187)
(0.00941591 -0.0693361 0.000203663)
(0.0440123 -0.124081 0.105621)
(0.0327156 -0.174163 0.257611)
(0.00921446 -0.0928708 0.0201185)
(0.00431148 -0.173887 0.140854)
(-0.0492917 -0.0422588 -0.23412)
(-0.00771491 -0.0324771 -0.129818)
(-0.0106882 -0.0847651 -0.255018)
(-0.0305696 -0.0796058 -0.289189)
(-0.0225478 -0.0658266 -0.191241)
(-0.0205654 -0.0918036 0.0426808)
(-0.0610874 -0.0829412 0.0291346)
(-0.0117113 -0.0928905 0.000211251)
(-0.0522562 -0.127674 0.0844183)
(-0.0426926 -0.107341 0.0720634)
(-0.0104709 -0.00351964 -0.149959)
(-0.0469332 0.0627219 -0.220021)
(-0.0193926 -0.0548629 -0.322246)
(0.0135525 -0.0678187 -0.236542)
(-0.00474307 0.00686822 -0.284513)
(-0.0754264 -0.110278 -0.0382809)
(-0.0955151 -0.167792 0.0320001)
(-0.222022 -0.0362864 0.123547)
(-0.15719 -0.0755693 -0.163418)
(-0.0999105 -0.0300707 -0.178289)
(-0.174514 -0.152652 -0.0337553)
(-0.117077 -0.0210885 0.0451909)
(-0.116387 -0.116727 -0.166783)
(-0.0873041 -0.0541614 -0.178152)
(-0.0318511 0.101289 -0.0767573)
(-0.107468 0.115266 -0.0587232)
(-0.0561089 0.0852394 -0.151221)
(-0.0265929 0.111895 0.111157)
(0.0551277 0.128047 0.0577578)
(-0.0363314 0.176369 0.0316225)
(-0.0121537 0.0857793 -0.0676725)
(0.0258524 0.0258961 -0.157834)
(-0.0434338 -0.0204804 -0.323214)
(-0.0656722 -0.0264292 -0.2956)
(0.00680847 0.0085314 -0.30561)
(-0.0257621 0.00708788 -0.364699)
(-0.0512208 -0.0178683 -0.325672)
(-0.0278636 -0.00253366 -0.292586)
(-0.0825854 -0.00054151 -0.382808)
(-0.085057 0.0514925 -0.0246808)