thermo_log      ../DEM/post/thermo.txt

atom_style      granular
atom_modify     map array
communicate     single vel yes

boundary        f f f
newton          off

units           si
processors      2 2 1

# read the restart file
read_restart    ../DEM/post/restart/liggghts.restart
WARNING: Restart file version does not match LIGGGHTS version (../read_restart.cpp:507)
  orthogonal box = (-0.05 -0.05 -0.01) to (0.05 0.05 0.5)
  2 by 2 by 1 MPI processor grid
  286046 atoms

neighbor        0.0005 bin
neigh_modify    delay 0


# Material properties required for granular pair styles
fix         m1 all property/global youngsModulus peratomtype 5e6 5e6
fix         m2 all property/global poissonsRatio peratomtype 0.3 0.3
#fix         m3 all property/global coefficientRestitution peratomtypepair 2 0.79 0.645 0.645 0.5
fix         m3 all property/global coefficientRestitution peratomtypepair 2 0.2 0.35 0.35 0.5
fix         m4 all property/global coefficientFriction peratomtypepair 2 0.45 0.5 0.5 0.55
fix         m5 all property/global coefficientRollingFriction peratomtypepair 2 0.000016 0.000016 0.000016 0.000016


# pair style
pair_style  gran model hertz tangential history # Hertzian without cohesion
pair_coeff  * *

# timestep, gravity
timestep    0.00001
fix         gravi all gravity 9.81 vector 0.0 0.0 -1.0

#import mesh from cad:
fix  fb1 all mesh/surface file ../DEM/STL/fluidizedbedriser1.stl type 1 scale 0.0254
INFO: mesh file (../DEM/STL/fluidizedbedriser1.stl) is required, but data will be taken from restart file (../fix_mesh.cpp:417)
Resetting global state of Fix fb1 Style mesh/surface from restart file info
fix  fb2 all mesh/surface file ../DEM/STL/fluidizedbedriser2.stl type 1 scale 0.0254
INFO: mesh file (../DEM/STL/fluidizedbedriser2.stl) is required, but data will be taken from restart file (../fix_mesh.cpp:417)
Resetting global state of Fix fb2 Style mesh/surface from restart file info
fix  fbBioin all mesh/surface file ../DEM/STL/fluidizedbedBioin.stl type 1 scale 0.0254
INFO: mesh file (../DEM/STL/fluidizedbedBioin.stl) is required, but data will be taken from restart file (../fix_mesh.cpp:417)
Resetting global state of Fix fbBioin Style mesh/surface from restart file info
fix  fbGasin all mesh/surface file ../DEM/STL/fluidizedbedGasin.stl type 1 scale 0.0254
INFO: mesh file (../DEM/STL/fluidizedbedGasin.stl) is required, but data will be taken from restart file (../fix_mesh.cpp:417)
Resetting global state of Fix fbGasin Style mesh/surface from restart file info
fix  fbOut all mesh/surface file ../DEM/STL/fluidizedbedOut.stl type 1 scale 0.0254
INFO: mesh file (../DEM/STL/fluidizedbedOut.stl) is required, but data will be taken from restart file (../fix_mesh.cpp:417)
Resetting global state of Fix fbOut Style mesh/surface from restart file info

#use the imported mesh as granular wall
#fix  walls all wall/gran model hertz tangential history rolling_friction epsd2 mesh n_meshes 2 meshes fb fbGasin
fix	walls all wall/gran model hertz tangential history mesh n_meshes 4 meshes fb1 fb2  fbGasin fbBioin
Resetting global state of Fix n_neighs_mesh_fb1 Style property/atom from restart file info
Resetting per-atom state of Fix n_neighs_mesh_fb1 Style property/atom from restart file info
Resetting global state of Fix tracker_fb1 Style contacthistory/mesh from restart file info
Resetting per-atom state of Fix tracker_fb1 Style contacthistory/mesh from restart file info
Resetting global state of Fix n_neighs_mesh_fb2 Style property/atom from restart file info
Resetting per-atom state of Fix n_neighs_mesh_fb2 Style property/atom from restart file info
Resetting global state of Fix tracker_fb2 Style contacthistory/mesh from restart file info
Resetting per-atom state of Fix tracker_fb2 Style contacthistory/mesh from restart file info
Resetting global state of Fix n_neighs_mesh_fbGasin Style property/atom from restart file info
Resetting per-atom state of Fix n_neighs_mesh_fbGasin Style property/atom from restart file info
Resetting global state of Fix tracker_fbGasin Style contacthistory/mesh from restart file info
Resetting per-atom state of Fix tracker_fbGasin Style contacthistory/mesh from restart file info
Resetting global state of Fix n_neighs_mesh_fbBioin Style property/atom from restart file info
Resetting per-atom state of Fix n_neighs_mesh_fbBioin Style property/atom from restart file info
Resetting global state of Fix tracker_fbBioin Style contacthistory/mesh from restart file info
Resetting per-atom state of Fix tracker_fbBioin Style contacthistory/mesh from restart file info


#particle distributions and insertion ### insert biomass

#region     bc2 cylinder x 0.0 0.0635 0.0125 0.035 0.038 units box
fix        pts2 all particletemplate/sphere 49979693 atom_type 2 density constant 294 radius constant 0.0005
fix        pdd2 all particledistribution/discrete 86028157 1 pts2 1.0
fix        ins2 all insert/stream seed 86028121 distributiontemplate pdd2 mass 0.0002 massrate 0.0001 insert_every 2000 overlapcheck yes vel constant -0.1 0.0 0.0  insertion_face fbBioin ntry_mc 10000
##extrude_length 5
#fix        ins2 all insert/rate/region seed 86028121 distributiontemplate pdd2 mass 0.00002 massrate 0.00001 insert_every 1000 overlapcheck yes vel constant -0.01 0.0 0.0 region bc2 ntry_mc 10000

# apply nve integration to all particles that are inserted as single particles
fix         integr all nve/sphere

# cfd coupling
fix     cfd all couple/cfd couple_every 100 mpi
couple_every as specified in LIGGGHTS is overriden by calling external program (../fix_cfd_coupling.cpp:114)
fix     cfd2 all couple/cfd/force

# apply nve integration to all particles that are inserted as single particles
fix     integr all nve/sphere

# center of mass
compute     centerOfMass all com

# compute total dragforce
compute     dragtotal all reduce sum f_dragforce[1] f_dragforce[2] f_dragforce[3]

# screen output
 compute         rke all erotate/sphere
# Define a computation that calculates the rotational kinetic energy of a group of spherical particles. The rotational energy is computed as 1/2Iw^2, where I is the moment of inertia for a sphere and w is # the particle’s angular velocity.
thermo_style    custom step atoms ke c_rke vol c_centerOfMass[3] c_dragtotal[1] c_dragtotal[2] c_dragtotal[3]
thermo          100
thermo_modify   lost ignore norm no
compute_modify  thermo_temp dynamic yes
WARNING: Changing thermo_temp compute object. This object is deprecated and will be removed in the future. (../compute.cpp:161)

# dump        dmp all custom/vtk 50000 post/dump*.liggghts_restart.vtk id type x y z vx vy vz fx fy fz f_dragforce[1] f_dragforce[2] f_dragforce[3] radius
dump        dmp all custom/vtk 5000 post/dump*.liggghts_restart.vtk id type x y z vx vy vz fx fy fz f_dragforce[1] f_dragforce[2] f_dragforce[3] radius diameter

run 0
Resetting global state of Fix contacthistory Style contacthistory from restart file info
Resetting per-atom state of Fix contacthistory Style contacthistory from restart file info
Setting up run at Sun Oct 25 06:06:17 2020

INFO: Particle insertion ins2: 12.992240 particles every 2000 steps - particle rate 649.612013, (mass rate 1.000000e-04)
      1299 particles (mass 1.999655e-04) within 198000 steps
Memory usage per processor = 146.285 Mbytes
    Step    Atoms         KinEng            rke         Volume       centerOf       dragtota       dragtota       dragtota 
  400000   286046  1.0824171e-07  1.9718986e-07         0.0051   0.0073784253              0              0              0 
Loop time of 4.05312e-06 on 4 procs for 0 steps with 286046 atoms, finish time Sun Oct 25 06:06:25 2020


Pair  time (%) = 0 (0)
Neigh time (%) = 0 (0)
Comm  time (%) = 0 (0)
Outpt time (%) = 0 (0)
Other time (%) = 4.05312e-06 (100)

Nlocal:    71511.5 ave 72013 max 70999 min
Histogram: 1 0 0 0 1 1 0 0 0 1
Nghost:    9443.75 ave 9477 max 9411 min
Histogram: 2 0 0 0 0 0 0 0 0 2
Neighs:    1.50642e+06 ave 1.51611e+06 max 1.49599e+06 min
Histogram: 1 0 0 0 1 0 1 0 0 1

Total # of neighbors = 6025676
Ave neighs/atom = 21.0654
Neighbor list builds = 0
Dangerous builds = 0

run 100    
Setting up run at Sun Oct 25 06:06:27 2020

Memory usage per processor = 146.285 Mbytes
    Step    Atoms         KinEng            rke         Volume       centerOf       dragtota       dragtota       dragtota 
  400000   286046  1.0824171e-07  1.9718986e-07         0.0051   0.0073784253              0              0              0 
INFO: Particle insertion ins2: inserted 13 particle templates (mass 2.001195e-06) at step 400001
 - a total of 13 particle templates (mass 2.001195e-06) inserted so far.
CFD Coupling established at step 400100
  400100   286059  1.1460517e-07  1.8738119e-07         0.0051   0.0073808772              0              0              0 
Loop time of 9.57439 on 4 procs for 100 steps with 286059 atoms, finish time Sun Oct 25 06:06:37 2020


Pair  time (%) = 7.78582 (81.3192)
Neigh time (%) = 0.241443 (2.52176)
Comm  time (%) = 0.1074 (1.12175)
Outpt time (%) = 0.00317174 (0.0331274)
Other time (%) = 1.43655 (15.0041)

Nlocal:    71514.8 ave 72013 max 71006 min
Histogram: 1 0 0 0 1 1 0 0 0 1
Nghost:    9444 ave 9477 max 9411 min
Histogram: 2 0 0 0 0 0 0 0 0 2
Neighs:    1.50642e+06 ave 1.5161e+06 max 1.49599e+06 min
Histogram: 1 0 0 0 1 0 1 0 0 1

Total # of neighbors = 6025668
Ave neighs/atom = 21.0644
Neighbor list builds = 1
Dangerous builds = 0
run 100    
Setting up run at Sun Oct 25 06:07:13 2020

Memory usage per processor = 146.285 Mbytes
    Step    Atoms         KinEng            rke         Volume       centerOf       dragtota       dragtota       dragtota 
  400100   286059  1.1460517e-07  1.8738119e-07         0.0051   0.0073805818    0.017097722   -0.022403943     0.23644971 
CFD Coupling established at step 400200
  400200   286059  6.0162156e-07  1.6839045e-07         0.0051   0.0073822546    0.017097722   -0.022403943     0.23644971 
Loop time of 8.73201 on 4 procs for 100 steps with 286059 atoms, finish time Sun Oct 25 06:07:23 2020


Pair  time (%) = 7.4519 (85.34)
Neigh time (%) = 0 (0)
Comm  time (%) = 0.0955926 (1.09474)
Outpt time (%) = 0.00296825 (0.0339927)
Other time (%) = 1.18155 (13.5313)

Nlocal:    71514.8 ave 72016 max 71003 min
Histogram: 1 0 0 0 1 1 0 0 0 1
Nghost:    9443.5 ave 9476 max 9413 min
Histogram: 2 0 0 0 0 0 0 0 0 2
Neighs:    1.50638e+06 ave 1.51618e+06 max 1.49583e+06 min
Histogram: 1 0 0 0 1 0 1 0 0 1

Total # of neighbors = 6025524
Ave neighs/atom = 21.0639
Neighbor list builds = 0
Dangerous builds = 0
run 100    
Setting up run at Sun Oct 25 06:07:27 2020

Memory usage per processor = 146.285 Mbytes
    Step    Atoms         KinEng            rke         Volume       centerOf       dragtota       dragtota       dragtota 
  400200   286059  6.0162156e-07  1.6839045e-07         0.0051   0.0073822546     0.13079788  -0.0052861839      1.3409686 
CFD Coupling established at step 400300
  400300   286059  1.5771879e-05  1.6452562e-07         0.0051   0.0073960845     0.13079788  -0.0052861839      1.3409686 
Loop time of 8.69354 on 4 procs for 100 steps with 286059 atoms, finish time Sun Oct 25 06:07:36 2020


Pair  time (%) = 7.3961 (85.0758)
Neigh time (%) = 0 (0)
Comm  time (%) = 0.0938027 (1.07899)
Outpt time (%) = 0.00280976 (0.0323201)
Other time (%) = 1.20083 (13.8129)

Nlocal:    71514.8 ave 72013 max 71006 min
Histogram: 1 0 0 0 1 1 0 0 0 1
Nghost:    9444.75 ave 9477 max 9412 min
Histogram: 2 0 0 0 0 0 0 0 0 2
Neighs:    1.50602e+06 ave 1.51538e+06 max 1.49574e+06 min
Histogram: 1 0 0 0 1 0 1 0 0 1

Total # of neighbors = 6024081
Ave neighs/atom = 21.0589
Neighbor list builds = 0
Dangerous builds = 0
run 100    
Setting up run at Sun Oct 25 06:07:39 2020

Memory usage per processor = 146.285 Mbytes
    Step    Atoms         KinEng            rke         Volume       centerOf       dragtota       dragtota       dragtota 
  400300   286059  1.5771879e-05  1.6452562e-07         0.0051   0.0073960845  -0.0088978128   0.0054684169      2.1519443 
CFD Coupling established at step 400400
  400400   286059  8.0028951e-05  4.7430909e-07         0.0051   0.0074351994  -0.0088978128   0.0054684169      2.1519443 
Loop time of 8.32225 on 4 procs for 100 steps with 286059 atoms, finish time Sun Oct 25 06:07:48 2020


Pair  time (%) = 7.1043 (85.3652)
Neigh time (%) = 0 (0)
Comm  time (%) = 0.091679 (1.10161)
Outpt time (%) = 0.00301349 (0.0362101)
Other time (%) = 1.12326 (13.497)

Nlocal:    71514.8 ave 72002 max 71019 min
Histogram: 1 0 0 0 1 1 0 0 0 1
Nghost:    9442.75 ave 9476 max 9410 min
Histogram: 2 0 0 0 0 0 0 0 0 2
Neighs:    1.50427e+06 ave 1.51284e+06 max 1.49462e+06 min
Histogram: 1 0 0 0 0 1 1 0 0 1

Total # of neighbors = 6017067
Ave neighs/atom = 21.0344
Neighbor list builds = 0
Dangerous builds = 0
run 100    
Setting up run at Sun Oct 25 06:07:51 2020

Memory usage per processor = 146.285 Mbytes
    Step    Atoms         KinEng            rke         Volume       centerOf       dragtota       dragtota       dragtota 
  400400   286059  8.0028951e-05  4.7430909e-07         0.0051   0.0074351994   0.0053812755    0.003558307      2.0774272 
CFD Coupling established at step 400500
  400500   286059  0.00018819852   8.727196e-07         0.0051   0.0075052686   0.0053812755    0.003558307      2.0774272 
Loop time of 8.58934 on 4 procs for 100 steps with 286059 atoms, finish time Sun Oct 25 06:08:00 2020


Pair  time (%) = 7.19699 (83.7898)
Neigh time (%) = 0 (0)
Comm  time (%) = 0.0995186 (1.15863)
Outpt time (%) = 0.00298142 (0.0347107)
Other time (%) = 1.28985 (15.0168)

Nlocal:    71514.8 ave 71984 max 71034 min
Histogram: 1 0 0 0 1 1 0 0 0 1
Nghost:    9442.25 ave 9475 max 9409 min
Histogram: 2 0 0 0 0 0 0 0 0 2
Neighs:    1.49857e+06 ave 1.50679e+06 max 1.48939e+06 min
Histogram: 1 0 0 0 0 1 1 0 0 1

Total # of neighbors = 5994274
Ave neighs/atom = 20.9547
Neighbor list builds = 0
Dangerous builds = 0
run 100    
Setting up run at Sun Oct 25 06:08:03 2020

Memory usage per processor = 146.285 Mbytes
    Step    Atoms         KinEng            rke         Volume       centerOf       dragtota       dragtota       dragtota 
  400500   286059  0.00018819852   8.727196e-07         0.0051   0.0075052686   0.0046989296   0.0040422275      2.0256325 
CFD Coupling established at step 400600
  400600   286059  0.00060755149  1.4127118e-06         0.0051   0.0076048165   0.0046989296   0.0040422275      2.0256325 
Loop time of 10.8326 on 4 procs for 100 steps with 286059 atoms, finish time Sun Oct 25 06:08:14 2020


Pair  time (%) = 6.80062 (62.779)
Neigh time (%) = 2.45075 (22.6238)
Comm  time (%) = 0.156604 (1.44567)
Outpt time (%) = 0.00353116 (0.0325974)
Other time (%) = 1.42113 (13.1189)

Nlocal:    71514.8 ave 71953 max 71073 min
Histogram: 1 0 0 0 1 1 0 0 0 1
Nghost:    9437 ave 9479 max 9401 min
Histogram: 1 1 0 0 0 0 1 0 0 1
Neighs:    1.48298e+06 ave 1.49116e+06 max 1.47436e+06 min
Histogram: 1 0 0 0 1 1 0 0 0 1

Total # of neighbors = 5931907
Ave neighs/atom = 20.7367
Neighbor list builds = 10
Dangerous builds = 9
run 100    
Setting up run at Sun Oct 25 06:08:18 2020

Memory usage per processor = 146.285 Mbytes
    Step    Atoms         KinEng            rke         Volume       centerOf       dragtota       dragtota       dragtota 
  400600   286059  0.00060755149  1.4127118e-06         0.0051   0.0076048165    0.005200469   0.0046413307      1.9710007 
CFD Coupling established at step 400700
  400700   286059   0.0014034481  2.7797947e-05         0.0051   0.0077326031    0.005200469   0.0046413307      1.9710007 
Loop time of 35.5855 on 4 procs for 100 steps with 286059 atoms, finish time Sun Oct 25 06:08:54 2020


Pair  time (%) = 6.78968 (19.0799)
Neigh time (%) = 24.0542 (67.5955)
Comm  time (%) = 0.672375 (1.88946)
Outpt time (%) = 0.00341755 (0.00960378)
Other time (%) = 4.06583 (11.4255)

Nlocal:    71514.8 ave 71941 max 71086 min
Histogram: 1 0 0 0 1 1 0 0 0 1
Nghost:    9435.75 ave 9472 max 9400 min
Histogram: 1 1 0 0 0 0 0 0 1 1
Neighs:    1.47427e+06 ave 1.48266e+06 max 1.46556e+06 min
Histogram: 1 0 0 0 1 1 0 0 0 1

Total # of neighbors = 5897069
Ave neighs/atom = 20.6149
Neighbor list builds = 100
Dangerous builds = 100
run 100    
Setting up run at Sun Oct 25 06:08:57 2020

Memory usage per processor = 146.285 Mbytes
    Step    Atoms         KinEng            rke         Volume       centerOf       dragtota       dragtota       dragtota 
  400700   286059   0.0014034481  2.7797947e-05         0.0051   0.0077326031   0.0042826289    0.004324779      1.8854896 
CFD Coupling established at step 400800
  400800   286059  0.00090924955  0.00012542192         0.0051   0.0078872066   0.0042826289    0.004324779      1.8854896 
Loop time of 35.4683 on 4 procs for 100 steps with 286059 atoms, finish time Sun Oct 25 06:09:33 2020


Pair  time (%) = 6.74144 (19.0069)
Neigh time (%) = 23.9899 (67.6376)
Comm  time (%) = 0.695225 (1.96013)
Outpt time (%) = 0.0031088 (0.00876501)
Other time (%) = 4.03863 (11.3866)

Nlocal:    71514.8 ave 71933 max 71098 min
Histogram: 1 0 0 0 1 1 0 0 0 1
Nghost:    9434 ave 9462 max 9402 min
Histogram: 1 0 0 1 0 0 0 0 1 1
Neighs:    1.46439e+06 ave 1.4728e+06 max 1.45584e+06 min
Histogram: 1 0 0 0 1 1 0 0 0 1

Total # of neighbors = 5857564
Ave neighs/atom = 20.4768
Neighbor list builds = 100
Dangerous builds = 100
run 100    
Setting up run at Sun Oct 25 06:09:37 2020

Memory usage per processor = 146.285 Mbytes
    Step    Atoms         KinEng            rke         Volume       centerOf       dragtota       dragtota       dragtota 
  400800   286059  0.00090924955  0.00012542192         0.0051   0.0078872066   0.0062695997    0.003766343      1.7958276 
CFD Coupling established at step 400900
  400900   286059   0.0010232607  2.7004638e-05         0.0051   0.0080668838   0.0062695997    0.003766343      1.7958276 
Loop time of 35.3025 on 4 procs for 100 steps with 286059 atoms, finish time Sun Oct 25 06:10:13 2020


Pair  time (%) = 6.66291 (18.8738)
Neigh time (%) = 24.0589 (68.1508)
Comm  time (%) = 0.592996 (1.67976)
Outpt time (%) = 0.00306869 (0.00869254)
Other time (%) = 3.98458 (11.287)

Nlocal:    71514.8 ave 71919 max 71110 min
Histogram: 1 0 0 0 1 1 0 0 0 1
Nghost:    9437.25 ave 9465 max 9411 min
Histogram: 1 0 1 0 0 0 0 1 0 1
Neighs:    1.45411e+06 ave 1.46206e+06 max 1.44585e+06 min
Histogram: 1 0 0 0 1 1 0 0 0 1

Total # of neighbors = 5816458
Ave neighs/atom = 20.3331
Neighbor list builds = 100
Dangerous builds = 100
run 100    
Setting up run at Sun Oct 25 06:10:16 2020

Memory usage per processor = 146.285 Mbytes
    Step    Atoms         KinEng            rke         Volume       centerOf       dragtota       dragtota       dragtota 
  400900   286059   0.0010232607  2.7004638e-05         0.0051   0.0080668838    0.006830868   0.0027736484      1.7057113 
CFD Coupling established at step 401000
  401000   286059   0.0018053675  2.7461956e-05         0.0051   0.0082701922    0.006830868   0.0027736484      1.7057113 
Loop time of 35.3115 on 4 procs for 100 steps with 286059 atoms, finish time Sun Oct 25 06:10:52 2020


Pair  time (%) = 6.54606 (18.538)
Neigh time (%) = 24.1201 (68.3066)
Comm  time (%) = 0.705423 (1.99772)
Outpt time (%) = 0.00293231 (0.00830412)
Other time (%) = 3.93701 (11.1494)

Nlocal:    71514.8 ave 71895 max 71130 min
Histogram: 1 0 0 0 1 1 0 0 0 1
Nghost:    9436.25 ave 9474 max 9399 min
Histogram: 1 0 0 1 0 0 1 0 0 1
Neighs:    1.44233e+06 ave 1.44989e+06 max 1.43411e+06 min
Histogram: 1 0 0 0 1 0 1 0 0 1

Total # of neighbors = 5769308
Ave neighs/atom = 20.1682
Neighbor list builds = 100
Dangerous builds = 100
run 100    
Setting up run at Sun Oct 25 06:10:55 2020

Memory usage per processor = 146.285 Mbytes
    Step    Atoms         KinEng            rke         Volume       centerOf       dragtota       dragtota       dragtota 
  401000   286059   0.0018053675  2.7461956e-05         0.0051   0.0082701922   0.0078508414   0.0020506584      1.6215162 
CFD Coupling established at step 401100
  401100   286059   0.0022047227  0.00011874327         0.0051   0.0084957822   0.0078508414   0.0020506584      1.6215162 
Loop time of 35.1564 on 4 procs for 100 steps with 286059 atoms, finish time Sun Oct 25 06:11:30 2020


Pair  time (%) = 6.43316 (18.2987)
Neigh time (%) = 24.1639 (68.7324)
Comm  time (%) = 0.645859 (1.8371)
Outpt time (%) = 0.0034427 (0.00979253)
Other time (%) = 3.9101 (11.122)

Nlocal:    71514.8 ave 71881 max 71136 min
Histogram: 1 0 0 0 1 1 0 0 0 1
Nghost:    9440.75 ave 9483 max 9405 min
Histogram: 1 0 1 0 0 1 0 0 0 1
Neighs:    1.43038e+06 ave 1.43764e+06 max 1.4223e+06 min
Histogram: 1 0 0 0 1 0 1 0 0 1

Total # of neighbors = 5721538
Ave neighs/atom = 20.0013
Neighbor list builds = 100
Dangerous builds = 100
run 100    
Setting up run at Sun Oct 25 06:11:33 2020

Memory usage per processor = 146.285 Mbytes
    Step    Atoms         KinEng            rke         Volume       centerOf       dragtota       dragtota       dragtota 
  401100   286059   0.0022047227  0.00011874327         0.0051   0.0084957822   0.0067933556   0.0017082248      1.5352924 
CFD Coupling established at step 401200
  401200   286059   0.0018360011   5.777934e-05         0.0051   0.0087422111   0.0067933556   0.0017082248      1.5352924 
Loop time of 24.5651 on 4 procs for 100 steps with 286059 atoms, finish time Sun Oct 25 06:11:58 2020


Pair  time (%) = 6.28157 (25.5711)
Neigh time (%) = 15.088 (61.4208)
Comm  time (%) = 0.387931 (1.5792)
Outpt time (%) = 0.00287598 (0.0117076)
Other time (%) = 2.80464 (11.4172)

Nlocal:    71514.8 ave 71867 max 71149 min
Histogram: 1 0 0 0 1 1 0 0 0 1
Nghost:    9440.5 ave 9481 max 9408 min
Histogram: 1 0 1 0 0 1 0 0 0 1
Neighs:    1.41919e+06 ave 1.42608e+06 max 1.41111e+06 min
Histogram: 1 0 0 0 1 0 1 0 0 1

Total # of neighbors = 5676743
Ave neighs/atom = 19.8447
Neighbor list builds = 63
Dangerous builds = 27
run 100    
Setting up run at Sun Oct 25 06:12:02 2020

Memory usage per processor = 146.285 Mbytes
    Step    Atoms         KinEng            rke         Volume       centerOf       dragtota       dragtota       dragtota 
  401200   286059   0.0018360011   5.777934e-05         0.0051   0.0087422111   0.0059973711   0.0015098616      1.4554498 
CFD Coupling established at step 401300
  401300   286059   0.0020566791  5.3849022e-05         0.0051   0.0090079825   0.0059973711   0.0015098616      1.4554498 
Loop time of 21.0311 on 4 procs for 100 steps with 286059 atoms, finish time Sun Oct 25 06:12:23 2020


Pair  time (%) = 6.19359 (29.4496)
Neigh time (%) = 12.0515 (57.3029)
Comm  time (%) = 0.348476 (1.65695)
Outpt time (%) = 0.00296605 (0.0141031)
Other time (%) = 2.43465 (11.5764)

Nlocal:    71514.8 ave 71848 max 71170 min
Histogram: 1 0 0 0 1 1 0 0 0 1
Nghost:    9436 ave 9476 max 9399 min
Histogram: 1 0 0 0 1 1 0 0 0 1
Neighs:    1.40826e+06 ave 1.41512e+06 max 1.40049e+06 min
Histogram: 1 0 0 0 1 0 1 0 0 1

Total # of neighbors = 5633054
Ave neighs/atom = 19.6919
Neighbor list builds = 50
Dangerous builds = 0
run 100    
Setting up run at Sun Oct 25 06:12:27 2020

Memory usage per processor = 146.285 Mbytes
    Step    Atoms         KinEng            rke         Volume       centerOf       dragtota       dragtota       dragtota 
  401300   286059   0.0020566791  5.3849022e-05         0.0051   0.0090079825    0.004336229   0.0010066237      1.3778031 
CFD Coupling established at step 401400
  401400   286059    0.002266139  3.9687994e-05         0.0051   0.0092916245    0.004336229   0.0010066237      1.3778031 
Loop time of 18.7236 on 4 procs for 100 steps with 286059 atoms, finish time Sun Oct 25 06:12:46 2020


Pair  time (%) = 6.14091 (32.7976)
Neigh time (%) = 10.0731 (53.7986)
Comm  time (%) = 0.311753 (1.66502)
Outpt time (%) = 0.0030719 (0.0164066)
Other time (%) = 2.19485 (11.7224)

Nlocal:    71514.8 ave 71826 max 71193 min
Histogram: 1 0 0 0 1 1 0 0 0 1
Nghost:    9437.75 ave 9485 max 9399 min
Histogram: 1 0 0 1 1 0 0 0 0 1
Neighs:    1.39792e+06 ave 1.40442e+06 max 1.39058e+06 min
Histogram: 1 0 0 0 0 1 1 0 0 1

Total # of neighbors = 5591688
Ave neighs/atom = 19.5473
Neighbor list builds = 42
Dangerous builds = 0
run 100    
Setting up run at Sun Oct 25 06:12:49 2020

Memory usage per processor = 146.285 Mbytes
    Step    Atoms         KinEng            rke         Volume       centerOf       dragtota       dragtota       dragtota 
  401400   286059    0.002266139  3.9687994e-05         0.0051   0.0092916245   0.0036499834   0.0013842409      1.3036295 
CFD Coupling established at step 401500
  401500   286059   0.0025180873  3.6899233e-05         0.0051   0.0095916242   0.0036499834   0.0013842409      1.3036295 
Loop time of 16.3152 on 4 procs for 100 steps with 286059 atoms, finish time Sun Oct 25 06:13:06 2020


Pair  time (%) = 6.11801 (37.4988)
Neigh time (%) = 7.93616 (48.6428)
Comm  time (%) = 0.283632 (1.73845)
Outpt time (%) = 0.00307101 (0.018823)
Other time (%) = 1.97432 (12.1011)

Nlocal:    71514.8 ave 71811 max 71205 min
Histogram: 1 0 0 0 1 1 0 0 0 1
Nghost:    9433 ave 9476 max 9403 min
Histogram: 1 0 1 1 0 0 0 0 0 1
Neighs:    1.38785e+06 ave 1.39405e+06 max 1.38074e+06 min
Histogram: 1 0 0 0 0 1 1 0 0 1

Total # of neighbors = 5551394
Ave neighs/atom = 19.4065
Neighbor list builds = 33
Dangerous builds = 0
run 100    
Setting up run at Sun Oct 25 06:13:09 2020

Memory usage per processor = 146.285 Mbytes
    Step    Atoms         KinEng            rke         Volume       centerOf       dragtota       dragtota       dragtota 
  401500   286059   0.0025180873  3.6899233e-05         0.0051   0.0095916242   0.0034591672   0.0017087481      1.2416974 
CFD Coupling established at step 401600
  401600   286059   0.0027595076  3.5570423e-05         0.0051   0.0099065462   0.0034591672   0.0017087481      1.2416974 
Loop time of 16.2935 on 4 procs for 100 steps with 286059 atoms, finish time Sun Oct 25 06:13:26 2020


Pair  time (%) = 6.10787 (37.4867)
Neigh time (%) = 7.91268 (48.5636)
Comm  time (%) = 0.281523 (1.72783)
Outpt time (%) = 0.00291222 (0.0178736)
Other time (%) = 1.98846 (12.204)

Nlocal:    71514.8 ave 71799 max 71220 min
Histogram: 1 0 0 0 1 1 0 0 0 1
Nghost:    9431.25 ave 9470 max 9399 min
Histogram: 1 0 0 1 0 1 0 0 0 1
Neighs:    1.37801e+06 ave 1.38397e+06 max 1.37132e+06 min
Histogram: 1 0 0 0 0 2 0 0 0 1

Total # of neighbors = 5512056
Ave neighs/atom = 19.2689
Neighbor list builds = 33
Dangerous builds = 0
run 100    
Setting up run at Sun Oct 25 06:13:29 2020

Memory usage per processor = 146.285 Mbytes
    Step    Atoms         KinEng            rke         Volume       centerOf       dragtota       dragtota       dragtota 
  401600   286059   0.0027595076  3.5570423e-05         0.0051   0.0099065462   0.0036581945   0.0021046757       1.191863 
CFD Coupling established at step 401700
  401700   286059   0.0030009506  3.2748295e-05         0.0051    0.010235238   0.0036581945   0.0021046757       1.191863 
Loop time of 18.088 on 4 procs for 100 steps with 286059 atoms, finish time Sun Oct 25 06:13:47 2020


Pair  time (%) = 6.06882 (33.5517)
Neigh time (%) = 9.58296 (52.9797)
Comm  time (%) = 0.28195 (1.55877)
Outpt time (%) = 0.00302851 (0.0167432)
Other time (%) = 2.15122 (11.8931)

Nlocal:    71514.8 ave 71781 max 71236 min
Histogram: 1 0 0 0 1 1 0 0 0 1
Nghost:    9425.5 ave 9456 max 9399 min
Histogram: 1 0 1 0 0 1 0 0 0 1
Neighs:    1.36794e+06 ave 1.37346e+06 max 1.36186e+06 min
Histogram: 1 0 0 0 0 2 0 0 0 1

Total # of neighbors = 5471769
Ave neighs/atom = 19.1281
Neighbor list builds = 40
Dangerous builds = 0
run 100    
Setting up run at Sun Oct 25 06:13:50 2020

Memory usage per processor = 146.285 Mbytes
    Step    Atoms         KinEng            rke         Volume       centerOf       dragtota       dragtota       dragtota 
  401700   286059   0.0030009506  3.2748295e-05         0.0051    0.010235238   0.0037083217   0.0024488195      1.1446315 
CFD Coupling established at step 401800
  401800   286059   0.0032301836  3.2911761e-05         0.0051    0.010576659   0.0037083217   0.0024488195      1.1446315 
Loop time of 20.6702 on 4 procs for 100 steps with 286059 atoms, finish time Sun Oct 25 06:14:12 2020


Pair  time (%) = 6.00511 (29.052)
Neigh time (%) = 11.8934 (57.5391)
Comm  time (%) = 0.34114 (1.6504)
Outpt time (%) = 0.00286472 (0.0138592)
Other time (%) = 2.42764 (11.7446)

Nlocal:    71514.8 ave 71760 max 71250 min
Histogram: 1 0 0 0 1 0 1 0 0 1
Nghost:    9421.25 ave 9454 max 9402 min
Histogram: 1 1 0 1 0 0 0 0 0 1
Neighs:    1.35815e+06 ave 1.3633e+06 max 1.35212e+06 min
Histogram: 1 0 0 0 0 1 1 0 0 1

Total # of neighbors = 5432581
Ave neighs/atom = 18.9911
Neighbor list builds = 50
Dangerous builds = 0
run 100    
Setting up run at Sun Oct 25 06:14:15 2020

Memory usage per processor = 146.285 Mbytes
    Step    Atoms         KinEng            rke         Volume       centerOf       dragtota       dragtota       dragtota 
  401800   286059   0.0032301836  3.2911761e-05         0.0051    0.010576659   0.0038528979   0.0024452159      1.0984689 
CFD Coupling established at step 401900
  401900   286059   0.0034544545  3.3305569e-05         0.0051    0.010929847   0.0038528979   0.0024452159      1.0984689 
Loop time of 20.3148 on 4 procs for 100 steps with 286059 atoms, finish time Sun Oct 25 06:14:36 2020


Pair  time (%) = 5.97786 (29.4262)
Neigh time (%) = 11.612 (57.1603)
Comm  time (%) = 0.329778 (1.62334)
Outpt time (%) = 0.0030967 (0.0152436)
Other time (%) = 2.39203 (11.7749)

Nlocal:    71514.8 ave 71738 max 71260 min
Histogram: 1 0 0 0 1 0 1 0 0 1
Nghost:    9420 ave 9461 max 9394 min
Histogram: 1 1 0 1 0 0 0 0 0 1
Neighs:    1.34861e+06 ave 1.35324e+06 max 1.34255e+06 min
Histogram: 1 0 0 0 0 0 2 0 0 1

Total # of neighbors = 5394431
Ave neighs/atom = 18.8578
Neighbor list builds = 49
Dangerous builds = 0
run 100    
Setting up run at Sun Oct 25 06:14:39 2020

Memory usage per processor = 146.285 Mbytes
    Step    Atoms         KinEng            rke         Volume       centerOf       dragtota       dragtota       dragtota 
  401900   286059   0.0034544545  3.3305569e-05         0.0051    0.010929847   0.0036173553   0.0020452055      1.0553325 
CFD Coupling established at step 402000
  402000   286059   0.0036756225  2.6532922e-05         0.0051    0.011294002   0.0036173553   0.0020452055      1.0553325 
Loop time of 17.8045 on 4 procs for 100 steps with 286059 atoms, finish time Sun Oct 25 06:14:57 2020


Pair  time (%) = 6.00024 (33.7007)
Neigh time (%) = 9.34324 (52.4768)
Comm  time (%) = 0.299446 (1.68185)
Outpt time (%) = 0.00283945 (0.0159479)
Other time (%) = 2.15876 (12.1248)

Nlocal:    71514.8 ave 71726 max 71285 min
Histogram: 1 0 0 0 1 0 1 0 0 1
Nghost:    9413.75 ave 9442 max 9382 min
Histogram: 1 0 0 0 1 0 1 0 0 1
Neighs:    1.33913e+06 ave 1.34338e+06 max 1.33362e+06 min
Histogram: 1 0 0 0 0 1 1 0 0 1

Total # of neighbors = 5356503
Ave neighs/atom = 18.7252
Neighbor list builds = 39
Dangerous builds = 0
run 100    
Setting up run at Sun Oct 25 06:15:01 2020

Memory usage per processor = 146.285 Mbytes
    Step    Atoms         KinEng            rke         Volume       centerOf       dragtota       dragtota       dragtota 
  402000   286059   0.0036756225  2.6532922e-05         0.0051    0.011294002   0.0038486485   0.0018891599      1.0136909 
INFO: Particle insertion ins2: inserted 13 particle templates (mass 2.001195e-06) at step 402001
 - a total of 26 particle templates (mass 4.002389e-06) inserted so far.
CFD Coupling established at step 402100
  402100   286072   0.0041534436  2.1115795e-05         0.0051    0.011670881   0.0038486485   0.0018891599      1.0136909 
Loop time of 24.9064 on 4 procs for 100 steps with 286072 atoms, finish time Sun Oct 25 06:15:26 2020


Pair  time (%) = 6.06575 (24.3542)
Neigh time (%) = 15.4346 (61.9707)
Comm  time (%) = 0.483858 (1.94271)
Outpt time (%) = 0.00361001 (0.0144943)
Other time (%) = 2.91851 (11.7179)

Nlocal:    71518 ave 71707 max 71313 min
Histogram: 1 0 0 0 1 0 1 0 0 1
Nghost:    9413 ave 9439 max 9376 min
Histogram: 1 0 0 0 0 0 1 1 0 1
Neighs:    1.32999e+06 ave 1.33377e+06 max 1.32513e+06 min
Histogram: 1 0 0 0 0 1 0 1 0 1

Total # of neighbors = 5319953
Ave neighs/atom = 18.5966
Neighbor list builds = 64
Dangerous builds = 27
run 100    
Setting up run at Sun Oct 25 06:15:30 2020

Memory usage per processor = 146.284 Mbytes
    Step    Atoms         KinEng            rke         Volume       centerOf       dragtota       dragtota       dragtota 
  402100   286072   0.0041534436  2.1115795e-05         0.0051    0.011670414    0.003764269   0.0016158738     0.96900981 
CFD Coupling established at step 402200
  402200   286072   0.0046783674  0.00013571016         0.0051    0.012054385    0.003764269   0.0016158738     0.96900981 
Loop time of 33.804 on 4 procs for 100 steps with 286072 atoms, finish time Sun Oct 25 06:16:04 2020


Pair  time (%) = 5.89232 (17.4309)
Neigh time (%) = 23.546 (69.6546)
Comm  time (%) = 0.539069 (1.59469)
Outpt time (%) = 0.00307751 (0.00910398)
Other time (%) = 3.8235 (11.3108)

Nlocal:    71518 ave 71683 max 71324 min
Histogram: 1 0 0 0 1 0 1 0 0 1
Nghost:    9408.5 ave 9434 max 9381 min
Histogram: 1 0 0 0 1 0 1 0 0 1
Neighs:    1.32116e+06 ave 1.32435e+06 max 1.3168e+06 min
Histogram: 1 0 0 0 0 1 0 1 0 1

Total # of neighbors = 5284642
Ave neighs/atom = 18.4731
Neighbor list builds = 100
Dangerous builds = 100
run 100    
Setting up run at Sun Oct 25 06:16:07 2020

Memory usage per processor = 146.284 Mbytes
    Step    Atoms         KinEng            rke         Volume       centerOf       dragtota       dragtota       dragtota 
  402200   286072   0.0046783674  0.00013571016         0.0051    0.012054385   0.0036153973  0.00086281257     0.92441405 
CFD Coupling established at step 402300
  402300   286072   0.0048649312    0.000137131         0.0051    0.012447167   0.0036153973  0.00086281257     0.92441405 
Loop time of 33.4404 on 4 procs for 100 steps with 286072 atoms, finish time Sun Oct 25 06:16:41 2020


Pair  time (%) = 5.81287 (17.3828)
Neigh time (%) = 23.2838 (69.6277)
Comm  time (%) = 0.549057 (1.6419)
Outpt time (%) = 0.00281537 (0.00841905)
Other time (%) = 3.79188 (11.3392)

Nlocal:    71518 ave 71668 max 71338 min
Histogram: 1 0 0 0 1 0 0 1 0 1
Nghost:    9401 ave 9419 max 9376 min
Histogram: 1 0 0 0 0 1 0 1 0 1
Neighs:    1.31284e+06 ave 1.31575e+06 max 1.30858e+06 min
Histogram: 1 0 0 0 0 1 0 1 0 1

Total # of neighbors = 5251348
Ave neighs/atom = 18.3567
Neighbor list builds = 100
Dangerous builds = 100
run 100    
Setting up run at Sun Oct 25 06:16:45 2020

Memory usage per processor = 146.284 Mbytes
    Step    Atoms         KinEng            rke         Volume       centerOf       dragtota       dragtota       dragtota 
  402300   286072   0.0048649312    0.000137131         0.0051    0.012447167   0.0035816874  0.00085644467     0.89327623 
CFD Coupling established at step 402400
  402400   286072   0.0056136299   0.0001255218         0.0051    0.012847981   0.0035816874  0.00085644467     0.89327623 
Loop time of 32.337 on 4 procs for 100 steps with 286072 atoms, finish time Sun Oct 25 06:17:18 2020


Pair  time (%) = 5.78241 (17.8817)
Neigh time (%) = 22.2767 (68.8893)
Comm  time (%) = 0.575275 (1.779)
Outpt time (%) = 0.00287718 (0.00889746)
Other time (%) = 3.69972 (11.4411)

Nlocal:    71518 ave 71649 max 71343 min
Histogram: 1 0 0 0 0 1 0 1 0 1
Nghost:    9397.5 ave 9416 max 9385 min
Histogram: 1 1 0 0 1 0 0 0 0 1
Neighs:    1.30488e+06 ave 1.30744e+06 max 1.30088e+06 min
Histogram: 1 0 0 0 0 0 1 0 1 1

Total # of neighbors = 5219516
Ave neighs/atom = 18.2455
Neighbor list builds = 96
Dangerous builds = 92
run 100    
Setting up run at Sun Oct 25 06:17:22 2020

Memory usage per processor = 146.284 Mbytes
    Step    Atoms         KinEng            rke         Volume       centerOf       dragtota       dragtota       dragtota 
  402400   286072   0.0056136299   0.0001255218         0.0051    0.012847981    0.004868255   0.0012918776     0.87616868 
CFD Coupling established at step 402500
  402500   286072    0.005043511  0.00025778133         0.0051    0.013256337    0.004868255   0.0012918776     0.87616868 
Loop time of 33.3696 on 4 procs for 100 steps with 286072 atoms, finish time Sun Oct 25 06:17:55 2020


Pair  time (%) = 5.76957 (17.2899)
Neigh time (%) = 23.2336 (69.625)
Comm  time (%) = 0.553387 (1.65836)
Outpt time (%) = 0.00284153 (0.00851532)
Other time (%) = 3.81022 (11.4182)

Nlocal:    71518 ave 71637 max 71352 min
Histogram: 1 0 0 0 0 1 0 1 0 1
Nghost:    9396.75 ave 9406 max 9388 min
Histogram: 1 1 0 0 0 0 0 0 1 1
Neighs:    1.29727e+06 ave 1.2991e+06 max 1.29369e+06 min
Histogram: 1 0 0 0 0 0 0 1 0 2

Total # of neighbors = 5189087
Ave neighs/atom = 18.1391
Neighbor list builds = 100
Dangerous builds = 100
run 100    
Setting up run at Sun Oct 25 06:17:59 2020

Memory usage per processor = 146.284 Mbytes
    Step    Atoms         KinEng            rke         Volume       centerOf       dragtota       dragtota       dragtota 
  402500   286072    0.005043511  0.00025778133         0.0051    0.013256337   0.0036205751  0.00085274882     0.86466885 
CFD Coupling established at step 402600
  402600   286072   0.0049685869  0.00028584475         0.0051    0.013671878   0.0036205751  0.00085274882     0.86466885 
Loop time of 25.011 on 4 procs for 100 steps with 286072 atoms, finish time Sun Oct 25 06:18:24 2020


Pair  time (%) = 5.7261 (22.8943)
Neigh time (%) = 15.907 (63.6)
Comm  time (%) = 0.395024 (1.5794)
Outpt time (%) = 0.00279599 (0.011179)
Other time (%) = 2.9801 (11.9151)

Nlocal:    71518 ave 71615 max 71363 min
Histogram: 1 0 0 0 0 1 0 0 1 1
Nghost:    9392.25 ave 9402 max 9384 min
Histogram: 1 0 0 1 1 0 0 0 0 1
Neighs:    1.28995e+06 ave 1.29131e+06 max 1.28696e+06 min
Histogram: 1 0 0 0 0 0 0 1 0 2

Total # of neighbors = 5159817
Ave neighs/atom = 18.0368
Neighbor list builds = 69
Dangerous builds = 39
run 100    
Setting up run at Sun Oct 25 06:18:27 2020

Memory usage per processor = 146.284 Mbytes
    Step    Atoms         KinEng            rke         Volume       centerOf       dragtota       dragtota       dragtota 
  402600   286072   0.0049685869  0.00028584475         0.0051    0.013671878   0.0023876301   0.0006152072     0.85645959 
CFD Coupling established at step 402700
  402700   286072   0.0050813217  0.00020287981         0.0051    0.014094356   0.0023876301   0.0006152072     0.85645959 
Loop time of 20.0684 on 4 procs for 100 steps with 286072 atoms, finish time Sun Oct 25 06:18:48 2020


Pair  time (%) = 5.69852 (28.3955)
Neigh time (%) = 11.5619 (57.6127)
Comm  time (%) = 0.325202 (1.62047)
Outpt time (%) = 0.00289088 (0.0144052)
Other time (%) = 2.47985 (12.357)

Nlocal:    71518 ave 71595 max 71372 min
Histogram: 1 0 0 0 0 0 1 0 0 2
Nghost:    9387.25 ave 9396 max 9380 min
Histogram: 2 0 0 0 0 0 0 1 0 1
Neighs:    1.28297e+06 ave 1.28431e+06 max 1.2799e+06 min
Histogram: 1 0 0 0 0 0 0 0 1 2

Total # of neighbors = 5131898
Ave neighs/atom = 17.9392
Neighbor list builds = 50
Dangerous builds = 0
run 100    
Setting up run at Sun Oct 25 06:18:51 2020

Memory usage per processor = 146.284 Mbytes
    Step    Atoms         KinEng            rke         Volume       centerOf       dragtota       dragtota       dragtota 
  402700   286072   0.0050813217  0.00020287981         0.0051    0.014094356   0.0019290532 -4.6873916e-05     0.84820595 
CFD Coupling established at step 402800
  402800   286072   0.0052261081  8.6079493e-05         0.0051    0.014523645   0.0019290532 -4.6873916e-05     0.84820595 
Loop time of 19.9399 on 4 procs for 100 steps with 286072 atoms, finish time Sun Oct 25 06:19:12 2020


Pair  time (%) = 5.65324 (28.3515)
Neigh time (%) = 11.4934 (57.6402)
Comm  time (%) = 0.318119 (1.5954)
Outpt time (%) = 0.00315237 (0.0158094)
Other time (%) = 2.47196 (12.3971)

Nlocal:    71518 ave 71587 max 71379 min
Histogram: 1 0 0 0 0 0 0 1 1 1
Nghost:    9387.75 ave 9394 max 9377 min
Histogram: 1 0 0 0 0 0 0 2 0 1
Neighs:    1.27595e+06 ave 1.27698e+06 max 1.27303e+06 min
Histogram: 1 0 0 0 0 0 0 0 0 3

Total # of neighbors = 5103787
Ave neighs/atom = 17.8409
Neighbor list builds = 50
Dangerous builds = 0
run 100    
Setting up run at Sun Oct 25 06:19:16 2020

Memory usage per processor = 146.284 Mbytes
    Step    Atoms         KinEng            rke         Volume       centerOf       dragtota       dragtota       dragtota 
  402800   286072   0.0052261081  8.6079493e-05         0.0051    0.014523645  0.00079411099 -0.00077207079     0.82234533 
CFD Coupling established at step 402900
  402900   286072   0.0053577542  8.3863614e-05         0.0051    0.014959466  0.00079411099 -0.00077207079     0.82234533 
Loop time of 19.9353 on 4 procs for 100 steps with 286072 atoms, finish time Sun Oct 25 06:19:36 2020


Pair  time (%) = 5.65967 (28.3902)
Neigh time (%) = 11.4782 (57.5771)
Comm  time (%) = 0.322238 (1.61642)
Outpt time (%) = 0.00286376 (0.0143653)
Other time (%) = 2.47238 (12.402)

Nlocal:    71518 ave 71576 max 71385 min
Histogram: 1 0 0 0 0 0 0 0 1 2
Nghost:    9389.75 ave 9400 max 9383 min
Histogram: 1 1 0 0 1 0 0 0 0 1
Neighs:    1.26909e+06 ave 1.26997e+06 max 1.2666e+06 min
Histogram: 1 0 0 0 0 0 0 0 0 3

Total # of neighbors = 5076371
Ave neighs/atom = 17.7451
Neighbor list builds = 50
Dangerous builds = 0
run 100    
Setting up run at Sun Oct 25 06:19:40 2020

Memory usage per processor = 146.284 Mbytes
    Step    Atoms         KinEng            rke         Volume       centerOf       dragtota       dragtota       dragtota 
  402900   286072   0.0053577542  8.3863614e-05         0.0051    0.014959466  0.00030863879 -0.00045355593     0.78341368 
CFD Coupling established at step 403000
  403000   286072   0.0055034495  6.4674627e-05         0.0051    0.015401189  0.00030863879 -0.00045355593     0.78341368 
Loop time of 19.9796 on 4 procs for 100 steps with 286072 atoms, finish time Sun Oct 25 06:20:00 2020


Pair  time (%) = 5.64938 (28.2757)
Neigh time (%) = 11.4392 (57.2545)
Comm  time (%) = 0.411688 (2.06054)
Outpt time (%) = 0.00350028 (0.0175193)
Other time (%) = 2.47583 (12.3918)

Nlocal:    71518 ave 71562 max 71392 min
Histogram: 1 0 0 0 0 0 0 0 0 3
Nghost:    9391.75 ave 9407 max 9381 min
Histogram: 2 0 0 0 0 0 1 0 0 1
Neighs:    1.2626e+06 ave 1.26366e+06 max 1.26038e+06 min
Histogram: 1 0 0 0 0 0 0 0 2 1

Total # of neighbors = 5050409
Ave neighs/atom = 17.6543
Neighbor list builds = 50
Dangerous builds = 0
run 100    
Setting up run at Sun Oct 25 06:20:04 2020

Memory usage per processor = 146.284 Mbytes
    Step    Atoms         KinEng            rke         Volume       centerOf       dragtota       dragtota       dragtota 
  403000   286072   0.0055034495  6.4674627e-05         0.0051    0.015401189  5.8021192e-05 -9.1651588e-05     0.74599555 
CFD Coupling established at step 403100
  403100   286072   0.0067137196  5.6057004e-05         0.0051    0.015848038  5.8021192e-05 -9.1651588e-05     0.74599555 
Loop time of 23.083 on 4 procs for 100 steps with 286072 atoms, finish time Sun Oct 25 06:20:27 2020


Pair  time (%) = 5.63533 (24.4133)
Neigh time (%) = 14.2606 (61.7795)
Comm  time (%) = 0.381661 (1.65343)
Outpt time (%) = 0.00291961 (0.0126483)
Other time (%) = 2.80253 (12.1411)

Nlocal:    71518 ave 71563 max 71403 min
Histogram: 1 0 0 0 0 0 0 0 0 3
Nghost:    9390.75 ave 9403 max 9380 min
Histogram: 1 0 1 0 0 0 1 0 0 1
Neighs:    1.25637e+06 ave 1.25759e+06 max 1.25472e+06 min
Histogram: 1 0 0 0 0 1 0 1 0 1

Total # of neighbors = 5025471
Ave neighs/atom = 17.5672
Neighbor list builds = 62
Dangerous builds = 24
run 100    
Setting up run at Sun Oct 25 06:20:31 2020

Memory usage per processor = 146.284 Mbytes
    Step    Atoms         KinEng            rke         Volume       centerOf       dragtota       dragtota       dragtota 
  403100   286072   0.0067137196  5.6057004e-05         0.0051    0.015848038   0.0022305082 -6.4656374e-05     0.71240695 
CFD Coupling established at step 403200
  403200   286072   0.0077156703  0.00081832193         0.0051    0.016299308   0.0022305082 -6.4656374e-05     0.71240695 
Loop time of 33.0206 on 4 procs for 100 steps with 286072 atoms, finish time Sun Oct 25 06:21:04 2020


Pair  time (%) = 5.63725 (17.0719)
Neigh time (%) = 22.9713 (69.5664)
Comm  time (%) = 0.568621 (1.72202)
Outpt time (%) = 0.00300336 (0.00909541)
Other time (%) = 3.84048 (11.6306)

Nlocal:    71518 ave 71577 max 71409 min
Histogram: 1 0 0 0 0 0 0 1 1 1
Nghost:    9385.25 ave 9394 max 9374 min
Histogram: 1 0 0 1 0 0 0 0 0 2
Neighs:    1.25033e+06 ave 1.25196e+06 max 1.24891e+06 min
Histogram: 1 0 0 1 1 0 0 0 0 1

Total # of neighbors = 5001319
Ave neighs/atom = 17.4827
Neighbor list builds = 100
Dangerous builds = 100
run 100    
Setting up run at Sun Oct 25 06:21:08 2020

Memory usage per processor = 146.284 Mbytes
    Step    Atoms         KinEng            rke         Volume       centerOf       dragtota       dragtota       dragtota 
  403200   286072   0.0077156703  0.00081832193         0.0051    0.016299308  0.00020732047  4.2603641e-05     0.68746489 
CFD Coupling established at step 403300
  403300   286072   0.0061631626  0.00027585821         0.0051    0.016754433  0.00020732047  4.2603641e-05     0.68746489 
Loop time of 32.8686 on 4 procs for 100 steps with 286072 atoms, finish time Sun Oct 25 06:21:41 2020


Pair  time (%) = 5.57734 (16.9686)
Neigh time (%) = 22.8826 (69.6185)
Comm  time (%) = 0.563217 (1.71354)
Outpt time (%) = 0.00309056 (0.00940279)
Other time (%) = 3.84233 (11.69)

Nlocal:    71518 ave 71585 max 71418 min
Histogram: 1 0 0 0 0 0 1 1 0 1
Nghost:    9377.5 ave 9403 max 9351 min
Histogram: 1 0 0 1 0 0 0 1 0 1
Neighs:    1.2444e+06 ave 1.24657e+06 max 1.24346e+06 min
Histogram: 2 1 0 0 0 0 0 0 0 1

Total # of neighbors = 4977611
Ave neighs/atom = 17.3999
Neighbor list builds = 100
Dangerous builds = 100
run 100    
Setting up run at Sun Oct 25 06:21:44 2020

Memory usage per processor = 146.284 Mbytes
    Step    Atoms         KinEng            rke         Volume       centerOf       dragtota       dragtota       dragtota 
  403300   286072   0.0061631626  0.00027585821         0.0051    0.016754433  0.00010642684 -0.00059543758     0.67789714 
CFD Coupling established at step 403400
  403400   286072   0.0061494175  0.00017840403         0.0051    0.017213131  0.00010642684 -0.00059543758     0.67789714 
Loop time of 32.3643 on 4 procs for 100 steps with 286072 atoms, finish time Sun Oct 25 06:22:17 2020


Pair  time (%) = 5.44594 (16.827)
Neigh time (%) = 22.5876 (69.7918)
Comm  time (%) = 0.539943 (1.66833)
Outpt time (%) = 0.00315511 (0.00974874)
Other time (%) = 3.78763 (11.7031)

Nlocal:    71518 ave 71612 max 71423 min
Histogram: 1 0 0 0 1 1 0 0 0 1
Nghost:    9374.25 ave 9405 max 9347 min
Histogram: 1 0 0 1 0 1 0 0 0 1
Neighs:    1.23848e+06 ave 1.24136e+06 max 1.2374e+06 min
Histogram: 3 0 0 0 0 0 0 0 0 1

Total # of neighbors = 4953914
Ave neighs/atom = 17.317
Neighbor list builds = 100
Dangerous builds = 100
run 100    
Setting up run at Sun Oct 25 06:22:20 2020

Memory usage per processor = 146.284 Mbytes
    Step    Atoms         KinEng            rke         Volume       centerOf       dragtota       dragtota       dragtota 
  403400   286072   0.0061494175  0.00017840403         0.0051    0.017213131  0.00010272865 -0.00060117692     0.66739299 
CFD Coupling established at step 403500
  403500   286072   0.0061459722  0.00013013025         0.0051    0.017675266  0.00010272865 -0.00060117692     0.66739299 
Loop time of 23.934 on 4 procs for 100 steps with 286072 atoms, finish time Sun Oct 25 06:22:45 2020


Pair  time (%) = 5.37377 (22.4525)
Neigh time (%) = 15.1575 (63.3303)
Comm  time (%) = 0.479936 (2.00525)
Outpt time (%) = 0.0031023 (0.0129619)
Other time (%) = 2.9197 (12.199)

Nlocal:    71518 ave 71639 max 71425 min
Histogram: 1 0 0 2 0 0 0 0 0 1
Nghost:    9371.5 ave 9396 max 9341 min
Histogram: 1 0 0 0 1 0 0 1 0 1
Neighs:    1.23245e+06 ave 1.23613e+06 max 1.23121e+06 min
Histogram: 3 0 0 0 0 0 0 0 0 1

Total # of neighbors = 4929796
Ave neighs/atom = 17.2327
Neighbor list builds = 68
Dangerous builds = 37
run 100    
Setting up run at Sun Oct 25 06:22:49 2020

Memory usage per processor = 146.284 Mbytes
    Step    Atoms         KinEng            rke         Volume       centerOf       dragtota       dragtota       dragtota 
  403500   286072   0.0061459722  0.00013013025         0.0051    0.017675266  0.00060456463  -0.0001639565     0.64954241 
CFD Coupling established at step 403600
  403600   286072   0.0067789623  0.00012379704         0.0051    0.018140487  0.00060456463  -0.0001639565     0.64954241 
Loop time of 20.4687 on 4 procs for 100 steps with 286072 atoms, finish time Sun Oct 25 06:23:09 2020


Pair  time (%) = 5.36874 (26.229)
Neigh time (%) = 12.1772 (59.4921)
Comm  time (%) = 0.357826 (1.74816)
Outpt time (%) = 0.00317311 (0.0155023)
Other time (%) = 2.5617 (12.5152)

Nlocal:    71518 ave 71656 max 71433 min
Histogram: 1 0 1 1 0 0 0 0 0 1
Nghost:    9371.5 ave 9400 max 9341 min
Histogram: 1 0 0 1 0 0 0 1 0 1
Neighs:    1.22614e+06 ave 1.23018e+06 max 1.22427e+06 min
Histogram: 2 1 0 0 0 0 0 0 0 1

Total # of neighbors = 4904548
Ave neighs/atom = 17.1445
Neighbor list builds = 54
Dangerous builds = 8
run 100    
Setting up run at Sun Oct 25 06:23:13 2020

Memory usage per processor = 146.284 Mbytes
    Step    Atoms         KinEng            rke         Volume       centerOf       dragtota       dragtota       dragtota 
  403600   286072   0.0067789623  0.00012379704         0.0051    0.018140487   0.0019722933  0.00049157567     0.61258365 
CFD Coupling established at step 403700
  403700   286072   0.0069106092  0.00017365992         0.0051    0.018608226   0.0019722933  0.00049157567     0.61258365 
Loop time of 31.935 on 4 procs for 100 steps with 286072 atoms, finish time Sun Oct 25 06:23:45 2020


Pair  time (%) = 5.30937 (16.6255)
Neigh time (%) = 22.299 (69.8262)
Comm  time (%) = 0.564093 (1.76638)
Outpt time (%) = 0.00316834 (0.00992122)
Other time (%) = 3.75938 (11.772)

Nlocal:    71518 ave 71672 max 71436 min
Histogram: 2 0 0 1 0 0 0 0 0 1
Nghost:    9369.5 ave 9413 max 9339 min
Histogram: 2 0 0 0 0 0 1 0 0 1
Neighs:    1.2199e+06 ave 1.22429e+06 max 1.21743e+06 min
Histogram: 1 1 0 1 0 0 0 0 0 1

Total # of neighbors = 4879613
Ave neighs/atom = 17.0573
Neighbor list builds = 100
Dangerous builds = 100
run 100    
Setting up run at Sun Oct 25 06:23:49 2020

Memory usage per processor = 146.284 Mbytes
    Step    Atoms         KinEng            rke         Volume       centerOf       dragtota       dragtota       dragtota 
  403700   286072   0.0069106092  0.00017365992         0.0051    0.018608226   0.0019616829  0.00079678317     0.58468921 
CFD Coupling established at step 403800
  403800   286072   0.0065239233  0.00015360629         0.0051    0.019077884   0.0019616829  0.00079678317     0.58468921 
Loop time of 31.8344 on 4 procs for 100 steps with 286072 atoms, finish time Sun Oct 25 06:24:21 2020


Pair  time (%) = 5.20918 (16.3633)
Neigh time (%) = 22.267 (69.9464)
Comm  time (%) = 0.604371 (1.89848)
Outpt time (%) = 0.00327808 (0.0102973)
Other time (%) = 3.75056 (11.7815)

Nlocal:    71518 ave 71692 max 71433 min
Histogram: 2 0 1 0 0 0 0 0 0 1
Nghost:    9370 ave 9425 max 9331 min
Histogram: 2 0 0 0 0 0 1 0 0 1
Neighs:    1.21352e+06 ave 1.21818e+06 max 1.21056e+06 min
Histogram: 1 1 0 1 0 0 0 0 0 1

Total # of neighbors = 4854080
Ave neighs/atom = 16.968
Neighbor list builds = 100
Dangerous builds = 100
run 100    
Setting up run at Sun Oct 25 06:24:25 2020

Memory usage per processor = 146.284 Mbytes
    Step    Atoms         KinEng            rke         Volume       centerOf       dragtota       dragtota       dragtota 
  403800   286072   0.0065239233  0.00015360629         0.0051    0.019077884  0.00061852874  0.00080870721     0.56128764 
CFD Coupling established at step 403900
  403900   286072    0.007048837  0.00010125284         0.0051    0.019548981  0.00061852874  0.00080870721     0.56128764 
Loop time of 31.6734 on 4 procs for 100 steps with 286072 atoms, finish time Sun Oct 25 06:24:57 2020


Pair  time (%) = 5.05406 (15.9568)
Neigh time (%) = 22.256 (70.2671)
Comm  time (%) = 0.63046 (1.99051)
Outpt time (%) = 0.00305033 (0.00963057)
Other time (%) = 3.72985 (11.776)

Nlocal:    71518 ave 71717 max 71412 min
Histogram: 2 0 0 1 0 0 0 0 0 1
Nghost:    9370.75 ave 9419 max 9334 min
Histogram: 2 0 0 0 0 0 0 1 0 1
Neighs:    1.20707e+06 ave 1.21207e+06 max 1.20371e+06 min
Histogram: 1 1 0 0 1 0 0 0 0 1

Total # of neighbors = 4828266
Ave neighs/atom = 16.8778
Neighbor list builds = 100
Dangerous builds = 100
run 100    
Setting up run at Sun Oct 25 06:25:00 2020

Memory usage per processor = 146.284 Mbytes
    Step    Atoms         KinEng            rke         Volume       centerOf       dragtota       dragtota       dragtota 
  403900   286072    0.007048837  0.00010125284         0.0051    0.019548981   0.0013905565   0.0011644198     0.52087494 
CFD Coupling established at step 404000
  404000   286071   0.0068362349  8.3357567e-05         0.0051    0.020020735  0.00090687252    0.001162174     0.52086779 
Loop time of 31.6521 on 4 procs for 100 steps with 286071 atoms, finish time Sun Oct 25 06:25:32 2020


Pair  time (%) = 5.03216 (15.8983)
Neigh time (%) = 22.1634 (70.022)
Comm  time (%) = 0.729662 (2.30525)
Outpt time (%) = 0.0029133 (0.00920411)
Other time (%) = 3.72395 (11.7653)

Nlocal:    71517.8 ave 71741 max 71390 min
Histogram: 1 1 0 1 0 0 0 0 0 1
Nghost:    9373.5 ave 9421 max 9331 min
Histogram: 1 1 0 0 0 0 0 1 0 1
Neighs:    1.20081e+06 ave 1.20623e+06 max 1.19707e+06 min
Histogram: 1 0 1 0 1 0 0 0 0 1

Total # of neighbors = 4803238
Ave neighs/atom = 16.7904
Neighbor list builds = 100
Dangerous builds = 100
run 100    
Setting up run at Sun Oct 25 06:25:36 2020

Memory usage per processor = 146.284 Mbytes
    Step    Atoms         KinEng            rke         Volume       centerOf       dragtota       dragtota       dragtota 
  404000   286071   0.0068362349  8.3357567e-05         0.0051    0.020020796   0.0010098497  0.00093185404     0.47478614 
INFO: Particle insertion ins2: inserted 13 particle templates (mass 2.001195e-06) at step 404001
 - a total of 39 particle templates (mass 6.003584e-06) inserted so far.
CFD Coupling established at step 404100
  404100   286084   0.0068312539  7.3419677e-05         0.0051    0.020495292   0.0010098497  0.00093185404     0.47478614 
Loop time of 31.292 on 4 procs for 100 steps with 286084 atoms, finish time Sun Oct 25 06:26:08 2020


Pair  time (%) = 4.97917 (15.9119)
Neigh time (%) = 21.978 (70.2351)
Comm  time (%) = 0.634905 (2.02897)
Outpt time (%) = 0.00286478 (0.00915497)
Other time (%) = 3.6971 (11.8148)

Nlocal:    71521 ave 71775 max 71357 min
Histogram: 1 1 0 1 0 0 0 0 0 1
Nghost:    9372.5 ave 9415 max 9327 min
Histogram: 1 1 0 0 0 0 0 0 1 1
Neighs:    1.1945e+06 ave 1.20038e+06 max 1.19005e+06 min
Histogram: 1 0 1 0 1 0 0 0 0 1

Total # of neighbors = 4777990
Ave neighs/atom = 16.7014
Neighbor list builds = 100
Dangerous builds = 99
run 100    
Setting up run at Sun Oct 25 06:26:11 2020

Memory usage per processor = 146.283 Mbytes
    Step    Atoms         KinEng            rke         Volume       centerOf       dragtota       dragtota       dragtota 
  404100   286084   0.0068312539  7.3419677e-05         0.0051    0.020494472  0.00057379446  0.00076598882     0.44422392 
CFD Coupling established at step 404200
  404200   286084   0.0068199729  0.00034674566         0.0051    0.020965715  0.00057379446  0.00076598882     0.44422392 
Loop time of 31.1728 on 4 procs for 100 steps with 286084 atoms, finish time Sun Oct 25 06:26:43 2020


Pair  time (%) = 4.95063 (15.8813)
Neigh time (%) = 21.8208 (69.9994)
Comm  time (%) = 0.729973 (2.3417)
Outpt time (%) = 0.00305021 (0.00978485)
Other time (%) = 3.66836 (11.7678)

Nlocal:    71521 ave 71805 max 71324 min
Histogram: 1 0 1 0 1 0 0 0 0 1
Nghost:    9370.25 ave 9408 max 9321 min
Histogram: 1 0 0 1 0 0 0 0 0 2
Neighs:    1.1882e+06 ave 1.19436e+06 max 1.18334e+06 min
Histogram: 1 0 0 1 1 0 0 0 0 1

Total # of neighbors = 4752815
Ave neighs/atom = 16.6134
Neighbor list builds = 100
Dangerous builds = 100
run 100    
Setting up run at Sun Oct 25 06:26:46 2020

Memory usage per processor = 146.283 Mbytes
    Step    Atoms         KinEng            rke         Volume       centerOf       dragtota       dragtota       dragtota 
  404200   286084   0.0068199729  0.00034674566         0.0051    0.020965715 -0.00013344544   0.0010477536     0.42180278 
CFD Coupling established at step 404300
  404300   286084   0.0065410301  7.8527671e-05         0.0051    0.021435767 -0.00013344544   0.0010477536     0.42180278 
Loop time of 21.018 on 4 procs for 100 steps with 286084 atoms, finish time Sun Oct 25 06:27:07 2020


Pair  time (%) = 5.00847 (23.8295)
Neigh time (%) = 12.9271 (61.5048)
Comm  time (%) = 0.427897 (2.03586)
Outpt time (%) = 0.00349891 (0.0166472)
Other time (%) = 2.65104 (12.6132)

Nlocal:    71521 ave 71824 max 71306 min
Histogram: 1 0 1 0 1 0 0 0 0 1
Nghost:    9366.25 ave 9407 max 9320 min
Histogram: 1 1 0 0 0 0 0 0 0 2
Neighs:    1.18218e+06 ave 1.18834e+06 max 1.17705e+06 min
Histogram: 1 0 0 1 1 0 0 0 0 1

Total # of neighbors = 4728719
Ave neighs/atom = 16.5291
Neighbor list builds = 59
Dangerous builds = 19
run 100    
Setting up run at Sun Oct 25 06:27:11 2020

Memory usage per processor = 146.283 Mbytes
    Step    Atoms         KinEng            rke         Volume       centerOf       dragtota       dragtota       dragtota 
  404300   286084   0.0065410301  7.8527671e-05         0.0051    0.021435767  0.00012292345   0.0016097902      0.3908409 
CFD Coupling established at step 404400
  404400   286084    0.006482639  7.5529694e-05         0.0051    0.021904091  0.00012292345   0.0016097902      0.3908409 
Loop time of 18.5777 on 4 procs for 100 steps with 286084 atoms, finish time Sun Oct 25 06:27:30 2020


Pair  time (%) = 4.94213 (26.6025)
Neigh time (%) = 10.8622 (58.469)
Comm  time (%) = 0.358743 (1.93104)
Outpt time (%) = 0.00301349 (0.0162211)
Other time (%) = 2.41162 (12.9813)

Nlocal:    71521 ave 71845 max 71287 min
Histogram: 1 0 1 0 1 0 0 0 0 1
Nghost:    9364.5 ave 9411 max 9317 min
Histogram: 1 1 0 0 0 0 0 0 0 2
Neighs:    1.17617e+06 ave 1.18258e+06 max 1.17052e+06 min
Histogram: 1 0 0 1 0 1 0 0 0 1

Total # of neighbors = 4704674
Ave neighs/atom = 16.4451
Neighbor list builds = 50
Dangerous builds = 0
run 100    
Setting up run at Sun Oct 25 06:27:33 2020

Memory usage per processor = 146.283 Mbytes
    Step    Atoms         KinEng            rke         Volume       centerOf       dragtota       dragtota       dragtota 
  404400   286084    0.006482639  7.5529694e-05         0.0051    0.021904091  0.00015453889   0.0023504821     0.35542389 
CFD Coupling established at step 404500
  404500   286084   0.0064207348  5.9813844e-05         0.0051    0.022370099  0.00015453889   0.0023504821     0.35542389 
Loop time of 18.7338 on 4 procs for 100 steps with 286084 atoms, finish time Sun Oct 25 06:27:53 2020


Pair  time (%) = 4.95829 (26.4671)
Neigh time (%) = 10.9649 (58.5301)
Comm  time (%) = 0.37578 (2.00589)
Outpt time (%) = 0.00297046 (0.0158561)
Other time (%) = 2.43185 (12.9811)

Nlocal:    71521 ave 71865 max 71269 min
Histogram: 1 0 1 0 1 0 0 0 0 1
Nghost:    9370.75 ave 9414 max 9324 min
Histogram: 1 1 0 0 0 0 0 0 0 2
Neighs:    1.1705e+06 ave 1.17696e+06 max 1.1647e+06 min
Histogram: 1 0 0 1 0 1 0 0 0 1

Total # of neighbors = 4681997
Ave neighs/atom = 16.3658
Neighbor list builds = 50
Dangerous builds = 0
run 100    
Setting up run at Sun Oct 25 06:27:56 2020

Memory usage per processor = 146.283 Mbytes
    Step    Atoms         KinEng            rke         Volume       centerOf       dragtota       dragtota       dragtota 
  404500   286084   0.0064207348  5.9813844e-05         0.0051    0.022370099  0.00033215707   0.0027805743     0.34966996 
CFD Coupling established at step 404600
  404600   286084   0.0063592379  5.9495207e-05         0.0051    0.022833393  0.00033215707   0.0027805743     0.34966996 
Loop time of 18.5806 on 4 procs for 100 steps with 286084 atoms, finish time Sun Oct 25 06:28:15 2020


Pair  time (%) = 4.88007 (26.2643)
Neigh time (%) = 10.8909 (58.6146)
Comm  time (%) = 0.388106 (2.08877)
Outpt time (%) = 0.00292945 (0.0157662)
Other time (%) = 2.41855 (13.0166)

Nlocal:    71521 ave 71882 max 71252 min
Histogram: 1 0 1 0 1 0 0 0 0 1
Nghost:    9370.75 ave 9426 max 9306 min
Histogram: 1 0 1 0 0 0 0 0 0 2
Neighs:    1.16476e+06 ave 1.17135e+06 max 1.15876e+06 min
Histogram: 1 0 0 1 0 1 0 0 0 1

Total # of neighbors = 4659052
Ave neighs/atom = 16.2856
Neighbor list builds = 50
Dangerous builds = 0
run 100    
Setting up run at Sun Oct 25 06:28:19 2020

Memory usage per processor = 146.283 Mbytes
    Step    Atoms         KinEng            rke         Volume       centerOf       dragtota       dragtota       dragtota 
  404600   286084   0.0063592379  5.9495207e-05         0.0051    0.022833393  0.00046958734    0.002872195     0.37534491 
CFD Coupling established at step 404700
  404700   286084   0.0063275207   5.803734e-05         0.0051    0.023294175  0.00046958734    0.002872195     0.37534491 
Loop time of 18.2269 on 4 procs for 100 steps with 286084 atoms, finish time Sun Oct 25 06:28:37 2020


Pair  time (%) = 4.68922 (25.7269)
Neigh time (%) = 10.7842 (59.1666)
Comm  time (%) = 0.371438 (2.03785)
Outpt time (%) = 0.00304145 (0.0166866)
Other time (%) = 2.37898 (13.052)

Nlocal:    71521 ave 71896 max 71239 min
Histogram: 1 0 1 0 1 0 0 0 0 1
Nghost:    9369.5 ave 9435 max 9287 min
Histogram: 1 0 0 1 0 0 0 0 1 1
Neighs:    1.15885e+06 ave 1.16557e+06 max 1.15244e+06 min
Histogram: 1 0 0 1 0 1 0 0 0 1

Total # of neighbors = 4635404
Ave neighs/atom = 16.2029
Neighbor list builds = 50
Dangerous builds = 0
run 100    
Setting up run at Sun Oct 25 06:28:40 2020

Memory usage per processor = 146.283 Mbytes
    Step    Atoms         KinEng            rke         Volume       centerOf       dragtota       dragtota       dragtota 
  404700   286084   0.0063275207   5.803734e-05         0.0051    0.023294175  0.00061637308    0.002936171     0.40018443 
CFD Coupling established at step 404800
  404800   286084   0.0063085401  5.6694172e-05         0.0051    0.023752968  0.00061637308    0.002936171     0.40018443 
Loop time of 17.7988 on 4 procs for 100 steps with 286084 atoms, finish time Sun Oct 25 06:28:58 2020


Pair  time (%) = 4.34813 (24.4294)
Neigh time (%) = 10.7038 (60.1379)
Comm  time (%) = 0.377711 (2.12211)
Outpt time (%) = 0.00321805 (0.0180802)
Other time (%) = 2.36591 (13.2926)

Nlocal:    71521 ave 71932 max 71209 min
Histogram: 1 0 1 0 1 0 0 0 0 1
Nghost:    9368 ave 9429 max 9291 min
Histogram: 1 0 0 1 0 0 0 0 1 1
Neighs:    1.15289e+06 ave 1.15997e+06 max 1.14595e+06 min
Histogram: 1 0 0 0 1 1 0 0 0 1

Total # of neighbors = 4611561
Ave neighs/atom = 16.1196
Neighbor list builds = 50
Dangerous builds = 0
run 100    
Setting up run at Sun Oct 25 06:29:02 2020

Memory usage per processor = 146.283 Mbytes
    Step    Atoms         KinEng            rke         Volume       centerOf       dragtota       dragtota       dragtota 
  404800   286084   0.0063085401  5.6694172e-05         0.0051    0.023752968  0.00038401275   0.0030023761     0.39264201 
CFD Coupling established at step 404900
  404900   286084    0.006287831  5.1851483e-05         0.0051     0.02420999  0.00038401275   0.0030023761     0.39264201 
Loop time of 17.2888 on 4 procs for 100 steps with 286084 atoms, finish time Sun Oct 25 06:29:19 2020


Pair  time (%) = 4.15549 (24.0357)
Neigh time (%) = 10.4287 (60.3204)
Comm  time (%) = 0.372549 (2.15486)
Outpt time (%) = 0.00350773 (0.0202891)
Other time (%) = 2.32857 (13.4687)

Nlocal:    71521 ave 71953 max 71176 min
Histogram: 1 0 0 1 1 0 0 0 0 1
Nghost:    9369.25 ave 9436 max 9293 min
Histogram: 1 0 1 0 0 0 0 0 1 1
Neighs:    1.14732e+06 ave 1.1548e+06 max 1.13965e+06 min
Histogram: 1 0 0 0 1 1 0 0 0 1

Total # of neighbors = 4589264
Ave neighs/atom = 16.0417
Neighbor list builds = 49
Dangerous builds = 0
run 100    
Setting up run at Sun Oct 25 06:29:23 2020

Memory usage per processor = 146.283 Mbytes
    Step    Atoms         KinEng            rke         Volume       centerOf       dragtota       dragtota       dragtota 
  404900   286084    0.006287831  5.1851483e-05         0.0051     0.02420999  0.00072828664   0.0032968824     0.36231929 
CFD Coupling established at step 405000
  405000   286084   0.0065135084   5.592389e-05         0.0051    0.024664873  0.00072828664   0.0032968824     0.36231929 
Loop time of 22.4322 on 4 procs for 100 steps with 286084 atoms, finish time Sun Oct 25 06:29:46 2020


Pair  time (%) = 4.25722 (18.9782)
Neigh time (%) = 13.1844 (58.7747)
Comm  time (%) = 0.519152 (2.31432)
Outpt time (%) = 1.81856 (8.10694)
Other time (%) = 2.65279 (11.8258)

Nlocal:    71521 ave 71975 max 71151 min
Histogram: 1 0 0 1 1 0 0 0 0 1
Nghost:    9364.25 ave 9431 max 9283 min
Histogram: 1 0 0 1 0 0 0 0 1 1
Neighs:    1.14212e+06 ave 1.15009e+06 max 1.13386e+06 min
Histogram: 1 0 0 0 1 1 0 0 0 1

Total # of neighbors = 4568483
Ave neighs/atom = 15.969
Neighbor list builds = 61
Dangerous builds = 39
run 100    
Setting up run at Sun Oct 25 06:29:50 2020

Memory usage per processor = 146.283 Mbytes
    Step    Atoms         KinEng            rke         Volume       centerOf       dragtota       dragtota       dragtota 
  405000   286084   0.0065135084   5.592389e-05         0.0051    0.024664873   0.0013843172   0.0033154741     0.31005033 
CFD Coupling established at step 405100
  405100   286084   0.0062081264  7.0112247e-05         0.0051    0.025116819   0.0013843172   0.0033154741     0.31005033 
Loop time of 25.528 on 4 procs for 100 steps with 286084 atoms, finish time Sun Oct 25 06:30:16 2020


Pair  time (%) = 4.30579 (16.8669)
Neigh time (%) = 17.4694 (68.4325)
Comm  time (%) = 0.582211 (2.28068)
Outpt time (%) = 0.00339204 (0.0132875)
Other time (%) = 3.16715 (12.4066)

Nlocal:    71521 ave 71994 max 71123 min
Histogram: 1 0 0 1 0 1 0 0 0 1
Nghost:    9359.5 ave 9425 max 9282 min
Histogram: 1 0 0 1 0 0 0 0 1 1
Neighs:    1.13726e+06 ave 1.14554e+06 max 1.1284e+06 min
Histogram: 1 0 0 0 1 1 0 0 0 1

Total # of neighbors = 4549020
Ave neighs/atom = 15.901
Neighbor list builds = 82
Dangerous builds = 65
write_restart ../DEM/post/restart/liggghts.restartCFDEM
run 100    
Setting up run at Sun Oct 25 06:30:22 2020

Memory usage per processor = 146.283 Mbytes
    Step    Atoms         KinEng            rke         Volume       centerOf       dragtota       dragtota       dragtota 
  405100   286084   0.0062081264  7.0112247e-05         0.0051    0.025116819   0.0010750609   0.0029689704     0.25920133 
CFD Coupling established at step 405200
  405200   286084   0.0061153609  6.8280855e-05         0.0051    0.025564813   0.0010750609   0.0029689704     0.25920133 
Loop time of 17.8067 on 4 procs for 100 steps with 286084 atoms, finish time Sun Oct 25 06:30:41 2020


Pair  time (%) = 4.38888 (24.6474)
Neigh time (%) = 10.6426 (59.7678)
Comm  time (%) = 0.390946 (2.1955)
Outpt time (%) = 0.00339228 (0.0190506)
Other time (%) = 2.38081 (13.3703)

Nlocal:    71521 ave 72025 max 71088 min
Histogram: 1 0 0 1 0 1 0 0 0 1
Nghost:    9358.25 ave 9430 max 9279 min
Histogram: 1 0 1 0 0 0 0 0 1 1
Neighs:    1.13309e+06 ave 1.14177e+06 max 1.12376e+06 min
Histogram: 1 0 0 0 1 1 0 0 0 1

Total # of neighbors = 4532346
Ave neighs/atom = 15.8427
Neighbor list builds = 50
Dangerous builds = 0
write_restart ../DEM/post/restart/liggghts.restartCFDEM
run 100    
Setting up run at Sun Oct 25 06:30:45 2020

Memory usage per processor = 146.283 Mbytes
    Step    Atoms         KinEng            rke         Volume       centerOf       dragtota       dragtota       dragtota 
  405200   286084   0.0061153609  6.8280855e-05         0.0051    0.025564813  0.00062270564   0.0026217786     0.22704708 
CFD Coupling established at step 405300
  405300   286084   0.0068161335  5.5350262e-05         0.0051    0.026008077  0.00062270564   0.0026217786     0.22704708 
Loop time of 27.9963 on 4 procs for 100 steps with 286084 atoms, finish time Sun Oct 25 06:31:13 2020


Pair  time (%) = 4.43356 (15.8362)
Neigh time (%) = 19.402 (69.3021)
Comm  time (%) = 0.728628 (2.60259)
Outpt time (%) = 0.00361967 (0.0129291)
Other time (%) = 3.42847 (12.2462)

Nlocal:    71521 ave 72048 max 71062 min
Histogram: 1 0 0 1 0 1 0 0 0 1
Nghost:    9358 ave 9425 max 9278 min
Histogram: 1 0 0 1 0 0 0 0 1 1
Neighs:    1.12924e+06 ave 1.1383e+06 max 1.1194e+06 min
Histogram: 1 0 0 0 0 2 0 0 0 1

Total # of neighbors = 4516975
Ave neighs/atom = 15.789
Neighbor list builds = 91
Dangerous builds = 82
write_restart ../DEM/post/restart/liggghts.restartCFDEM
run 100    
Setting up run at Sun Oct 25 06:31:17 2020

Memory usage per processor = 146.283 Mbytes
    Step    Atoms         KinEng            rke         Volume       centerOf       dragtota       dragtota       dragtota 
  405300   286084   0.0068161335  5.5350262e-05         0.0051    0.026008077   0.0016274652   0.0022830153     0.21625064 
CFD Coupling established at step 405400
  405400   286084   0.0060130107  0.00034937405         0.0051    0.026446251   0.0016274652   0.0022830153     0.21625064 
Loop time of 30.2285 on 4 procs for 100 steps with 286084 atoms, finish time Sun Oct 25 06:31:47 2020


Pair  time (%) = 4.4944 (14.8681)
Neigh time (%) = 21.3652 (70.6789)
Comm  time (%) = 0.700058 (2.31589)
Outpt time (%) = 0.00343323 (0.0113576)
Other time (%) = 3.66542 (12.1257)

Nlocal:    71521 ave 72064 max 71042 min
Histogram: 1 0 0 1 0 1 0 0 0 1
Nghost:    9360.75 ave 9427 max 9274 min
Histogram: 1 0 0 1 0 0 0 0 0 2
Neighs:    1.12543e+06 ave 1.1349e+06 max 1.11523e+06 min
Histogram: 1 0 0 0 0 2 0 0 0 1

Total # of neighbors = 4501732
Ave neighs/atom = 15.7357
Neighbor list builds = 100
Dangerous builds = 100
write_restart ../DEM/post/restart/liggghts.restartCFDEM
run 100    
Setting up run at Sun Oct 25 06:31:51 2020

Memory usage per processor = 146.283 Mbytes
    Step    Atoms         KinEng            rke         Volume       centerOf       dragtota       dragtota       dragtota 
  405400   286084   0.0060130107  0.00034937405         0.0051    0.026446251  0.00096540864   0.0023986812     0.23070054 
CFD Coupling established at step 405500
  405500   286084   0.0062530307  0.00026006113         0.0051    0.026879465  0.00096540864   0.0023986812     0.23070054 
Loop time of 29.8404 on 4 procs for 100 steps with 286084 atoms, finish time Sun Oct 25 06:32:22 2020


Pair  time (%) = 4.39881 (14.7411)
Neigh time (%) = 21.1092 (70.7403)
Comm  time (%) = 0.705828 (2.36535)
Outpt time (%) = 0.00350177 (0.011735)
Other time (%) = 3.62307 (12.1415)

Nlocal:    71521 ave 72079 max 71023 min
Histogram: 1 0 0 1 0 1 0 0 0 1
Nghost:    9361 ave 9433 max 9263 min
Histogram: 1 0 0 1 0 0 0 0 0 2
Neighs:    1.12166e+06 ave 1.13142e+06 max 1.11107e+06 min
Histogram: 1 0 0 0 0 2 0 0 0 1

Total # of neighbors = 4486651
Ave neighs/atom = 15.683
Neighbor list builds = 100
Dangerous builds = 100
write_restart ../DEM/post/restart/liggghts.restartCFDEM
run 100    
Setting up run at Sun Oct 25 06:32:26 2020

Memory usage per processor = 146.283 Mbytes
    Step    Atoms         KinEng            rke         Volume       centerOf       dragtota       dragtota       dragtota 
  405500   286084   0.0062530307  0.00026006113         0.0051    0.026879465   0.0012447321   0.0027523772     0.26404768 
CFD Coupling established at step 405600
  405600   286084   0.0059028948  0.00024010963         0.0051    0.027308124   0.0012447321   0.0027523772     0.26404768 
Loop time of 29.4569 on 4 procs for 100 steps with 286084 atoms, finish time Sun Oct 25 06:32:56 2020


Pair  time (%) = 4.26818 (14.4896)
Neigh time (%) = 20.9058 (70.9705)
Comm  time (%) = 0.692102 (2.34954)
Outpt time (%) = 0.00342226 (0.0116178)
Other time (%) = 3.58749 (12.1788)

Nlocal:    71521 ave 72110 max 70992 min
Histogram: 1 0 0 1 0 1 0 0 0 1
Nghost:    9367.75 ave 9448 max 9273 min
Histogram: 1 0 1 0 0 0 0 0 1 1
Neighs:    1.11776e+06 ave 1.12781e+06 max 1.10675e+06 min
Histogram: 1 0 0 0 0 2 0 0 0 1

Total # of neighbors = 4471030
Ave neighs/atom = 15.6284
Neighbor list builds = 100
Dangerous builds = 100
write_restart ../DEM/post/restart/liggghts.restartCFDEM
run 100    
Setting up run at Sun Oct 25 06:33:00 2020

Memory usage per processor = 146.283 Mbytes
    Step    Atoms         KinEng            rke         Volume       centerOf       dragtota       dragtota       dragtota 
  405600   286084   0.0059028948  0.00024010963         0.0051    0.027308124   0.0012253063    0.003393281     0.30649578 
CFD Coupling established at step 405700
  405700   286084    0.006255514  0.00015785746         0.0051    0.027733019   0.0012253063    0.003393281     0.30649578 
Loop time of 29.4516 on 4 procs for 100 steps with 286084 atoms, finish time Sun Oct 25 06:33:29 2020


Pair  time (%) = 4.09336 (13.8986)
Neigh time (%) = 21.0161 (71.3581)
Comm  time (%) = 0.769643 (2.61325)
Outpt time (%) = 0.00356603 (0.0121081)
Other time (%) = 3.56893 (12.118)

Nlocal:    71521 ave 72130 max 70977 min
Histogram: 1 0 0 1 0 1 0 0 0 1
Nghost:    9365 ave 9444 max 9267 min
Histogram: 1 0 1 0 0 0 0 0 0 2
Neighs:    1.1137e+06 ave 1.12379e+06 max 1.10253e+06 min
Histogram: 1 0 0 0 0 2 0 0 0 1

Total # of neighbors = 4454801
Ave neighs/atom = 15.5717
Neighbor list builds = 100
Dangerous builds = 100
write_restart ../DEM/post/restart/liggghts.restartCFDEM
run 100    
Setting up run at Sun Oct 25 06:33:33 2020

Memory usage per processor = 146.283 Mbytes
    Step    Atoms         KinEng            rke         Volume       centerOf       dragtota       dragtota       dragtota 
  405700   286084    0.006255514  0.00015785746         0.0051    0.027733019   0.0020468211   0.0037531477     0.33922327 
CFD Coupling established at step 405800
  405800   286084   0.0058615509  0.00015474551         0.0051    0.028154932   0.0020468211   0.0037531477     0.33922327 
Loop time of 29.143 on 4 procs for 100 steps with 286084 atoms, finish time Sun Oct 25 06:34:03 2020


Pair  time (%) = 3.9372 (13.51)
Neigh time (%) = 20.938 (71.8457)
Comm  time (%) = 0.713652 (2.4488)
Outpt time (%) = 0.00311196 (0.0106782)
Other time (%) = 3.55105 (12.1849)

Nlocal:    71521 ave 72152 max 70946 min
Histogram: 1 0 0 1 0 1 0 0 0 1
Nghost:    9362.25 ave 9444 max 9273 min
Histogram: 1 1 0 0 0 0 0 0 0 2
Neighs:    1.10995e+06 ave 1.12037e+06 max 1.09784e+06 min
Histogram: 1 0 0 0 0 1 1 0 0 1

Total # of neighbors = 4439793
Ave neighs/atom = 15.5192
Neighbor list builds = 100
Dangerous builds = 100
write_restart ../DEM/post/restart/liggghts.restartCFDEM
run 100    
Setting up run at Sun Oct 25 06:34:07 2020

Memory usage per processor = 146.283 Mbytes
    Step    Atoms         KinEng            rke         Volume       centerOf       dragtota       dragtota       dragtota 
  405800   286084   0.0058615509  0.00015474551         0.0051    0.028154932   0.0016714778   0.0037210619      0.3450744 
CFD Coupling established at step 405900
  405900   286084   0.0056144618  0.00013223204         0.0051    0.028574288   0.0016714778   0.0037210619      0.3450744 
Loop time of 17.8726 on 4 procs for 100 steps with 286084 atoms, finish time Sun Oct 25 06:34:25 2020


Pair  time (%) = 3.95574 (22.133)
Neigh time (%) = 11.0596 (61.8802)
Comm  time (%) = 0.452382 (2.53115)
Outpt time (%) = 0.00324875 (0.0181773)
Other time (%) = 2.40162 (13.4375)

Nlocal:    71521 ave 72178 max 70911 min
Histogram: 1 0 0 1 0 1 0 0 0 1
Nghost:    9355.5 ave 9448 max 9274 min
Histogram: 2 0 0 0 0 0 0 0 1 1
Neighs:    1.10639e+06 ave 1.11707e+06 max 1.09326e+06 min
Histogram: 1 0 0 0 0 1 1 0 0 1

Total # of neighbors = 4425561
Ave neighs/atom = 15.4694
Neighbor list builds = 53
Dangerous builds = 6
write_restart ../DEM/post/restart/liggghts.restartCFDEM
run 100    
Setting up run at Sun Oct 25 06:34:29 2020

Memory usage per processor = 146.283 Mbytes
    Step    Atoms         KinEng            rke         Volume       centerOf       dragtota       dragtota       dragtota 
  405900   286084   0.0056144618  0.00013223204         0.0051    0.028574288   0.0015555664   0.0034440419     0.32382247 
CFD Coupling established at step 406000
  406000   286084   0.0058352632  0.00012513253         0.0051    0.028991045   0.0015555664   0.0034440419     0.32382247 
Loop time of 23.9952 on 4 procs for 100 steps with 286084 atoms, finish time Sun Oct 25 06:34:53 2020


Pair  time (%) = 3.99822 (16.6626)
Neigh time (%) = 16.2587 (67.7583)
Comm  time (%) = 0.7278 (3.03311)
Outpt time (%) = 0.00314182 (0.0130935)
Other time (%) = 3.0073 (12.5329)

Nlocal:    71521 ave 72201 max 70895 min
Histogram: 1 0 0 1 0 1 0 0 0 1
Nghost:    9348.5 ave 9443 max 9252 min
Histogram: 1 1 0 0 0 0 0 0 1 1
Neighs:    1.1032e+06 ave 1.11408e+06 max 1.08941e+06 min
Histogram: 1 0 0 0 0 1 1 0 0 1

Total # of neighbors = 4412787
Ave neighs/atom = 15.4248
Neighbor list builds = 78
Dangerous builds = 56
write_restart ../DEM/post/restart/liggghts.restartCFDEM
run 100    
Setting up run at Sun Oct 25 06:34:58 2020

Memory usage per processor = 146.283 Mbytes
    Step    Atoms         KinEng            rke         Volume       centerOf       dragtota       dragtota       dragtota 
  406000   286084   0.0058352632  0.00012513253         0.0051    0.028991045    0.002301101   0.0030896973     0.28735762 
INFO: Particle insertion ins2: inserted 13 particle templates (mass 2.001195e-06) at step 406001
 - a total of 52 particle templates (mass 8.004778e-06) inserted so far.
CFD Coupling established at step 406100
  406100   286097   0.0060244493  0.00012427321         0.0051    0.029407197    0.002301101   0.0030896973     0.28735762 
Loop time of 28.9746 on 4 procs for 100 steps with 286097 atoms, finish time Sun Oct 25 06:35:27 2020


Pair  time (%) = 4.04931 (13.9754)
Neigh time (%) = 20.6475 (71.2606)
Comm  time (%) = 0.728047 (2.51271)
Outpt time (%) = 0.00327033 (0.0112869)
Other time (%) = 3.54649 (12.24)

Nlocal:    71524.2 ave 72232 max 70867 min
Histogram: 1 0 0 1 0 1 0 0 0 1
Nghost:    9340 ave 9445 max 9252 min
Histogram: 2 0 0 0 0 0 0 1 0 1
Neighs:    1.10039e+06 ave 1.11165e+06 max 1.0858e+06 min
Histogram: 1 0 0 0 0 1 1 0 0 1

Total # of neighbors = 4401550
Ave neighs/atom = 15.3848
Neighbor list builds = 100
Dangerous builds = 99
write_restart ../DEM/post/restart/liggghts.restartCFDEM
run 100    
Setting up run at Sun Oct 25 06:35:31 2020

Memory usage per processor = 146.283 Mbytes
    Step    Atoms         KinEng            rke         Volume       centerOf       dragtota       dragtota       dragtota 
  406100   286097   0.0060244493  0.00012427321         0.0051     0.02940602   0.0031861946   0.0029436684     0.25149715 
CFD Coupling established at step 406200
  406200   286096   0.0057280696  0.00010391583         0.0051    0.029815674   0.0026847465   0.0029459113     0.25149118 
Loop time of 29.1847 on 4 procs for 100 steps with 286096 atoms, finish time Sun Oct 25 06:36:00 2020


Pair  time (%) = 4.13691 (14.1749)
Neigh time (%) = 20.6513 (70.7607)
Comm  time (%) = 0.834907 (2.86077)
Outpt time (%) = 0.00335217 (0.011486)
Other time (%) = 3.55822 (12.1921)

Nlocal:    71524 ave 72261 max 70841 min
Histogram: 1 0 0 1 0 1 0 0 0 1
Nghost:    9339.25 ave 9444 max 9260 min
Histogram: 2 0 0 0 0 0 0 1 0 1
Neighs:    1.09779e+06 ave 1.10942e+06 max 1.08249e+06 min
Histogram: 1 0 0 0 0 1 1 0 0 1

Total # of neighbors = 4391146
Ave neighs/atom = 15.3485
Neighbor list builds = 100
Dangerous builds = 100
write_restart ../DEM/post/restart/liggghts.restartCFDEM
run 100    
Setting up run at Sun Oct 25 06:36:04 2020

Memory usage per processor = 146.283 Mbytes
[...]
  728300   287131  0.00044624546  1.9670214e-05         0.0051    0.011802751    0.090744147    0.037165066      0.4541829 
CFD Coupling established at step 728400
  728400   287131  0.00043899321  1.9849187e-05         0.0051    0.011787487    0.090744147    0.037165066      0.4541829 
Loop time of 7.67776 on 4 procs for 100 steps with 287131 atoms, finish time Mon Oct 26 06:28:45 2020


Pair  time (%) = 4.42696 (57.6595)
Neigh time (%) = 0.415885 (5.41675)
Comm  time (%) = 0.232002 (3.02174)
Outpt time (%) = 0.0188906 (0.246043)
Other time (%) = 2.58402 (33.656)

Nlocal:    71782.8 ave 91152 max 55062 min
Histogram: 2 0 0 0 0 0 0 0 1 1
Nghost:    8875 ave 10779 max 6822 min
Histogram: 1 0 1 0 0 0 0 1 0 1
Neighs:    1.11707e+06 ave 1.43335e+06 max 792258 min
Histogram: 1 1 0 0 0 0 0 0 0 2

Total # of neighbors = 4468274
Ave neighs/atom = 15.5618
Neighbor list builds = 2
Dangerous builds = 0
write_restart ../DEM/post/restart/liggghts.restartCFDEM
run 100    
Setting up run at Mon Oct 26 06:28:48 2020

Memory usage per processor = 196.788 Mbytes
    Step    Atoms         KinEng            rke         Volume       centerOf       dragtota       dragtota       dragtota 
  728400   287131  0.00043899321  1.9849187e-05         0.0051    0.011787487     0.09314073    0.037919153     0.46354868 
CFD Coupling established at step 728500
  728500   287131  0.00043251079  1.9829409e-05         0.0051    0.011771978     0.09314073    0.037919153     0.46354868 
Loop time of 7.51373 on 4 procs for 100 steps with 287131 atoms, finish time Mon Oct 26 06:28:56 2020


Pair  time (%) = 4.3413 (57.7782)
Neigh time (%) = 0.405315 (5.39433)
Comm  time (%) = 0.225895 (3.00643)
Outpt time (%) = 0.0185308 (0.246626)
Other time (%) = 2.52269 (33.5744)

Nlocal:    71782.8 ave 91111 max 55077 min
Histogram: 2 0 0 0 0 0 0 0 1 1
Nghost:    8860.5 ave 10808 max 6826 min
Histogram: 1 0 1 0 0 0 0 1 0 1
Neighs:    1.1201e+06 ave 1.43938e+06 max 795242 min
Histogram: 1 1 0 0 0 0 0 0 1 1

Total # of neighbors = 4480405
Ave neighs/atom = 15.604
Neighbor list builds = 2
Dangerous builds = 0
write_restart ../DEM/post/restart/liggghts.restartCFDEM
run 100    
Setting up run at Mon Oct 26 06:29:00 2020

Memory usage per processor = 196.788 Mbytes
    Step    Atoms         KinEng            rke         Volume       centerOf       dragtota       dragtota       dragtota 
  728500   287131  0.00043251079  1.9829409e-05         0.0051    0.011771978    0.096042051    0.038582763     0.47307427 
CFD Coupling established at step 728600
  728600   287131  0.00042772863  1.9706732e-05         0.0051    0.011756412    0.096042051    0.038582763     0.47307427 
Loop time of 7.5743 on 4 procs for 100 steps with 287131 atoms, finish time Mon Oct 26 06:29:08 2020


Pair  time (%) = 4.3862 (57.909)
Neigh time (%) = 0.410139 (5.41487)
Comm  time (%) = 0.226892 (2.99555)
Outpt time (%) = 0.0195729 (0.258412)
Other time (%) = 2.53149 (33.4222)

Nlocal:    71782.8 ave 91081 max 55095 min
Histogram: 2 0 0 0 0 0 0 0 1 1
Nghost:    8881.25 ave 10841 max 6902 min
Histogram: 1 0 1 0 0 0 0 1 0 1
Neighs:    1.12283e+06 ave 1.44412e+06 max 798635 min
Histogram: 1 1 0 0 0 0 0 0 1 1

Total # of neighbors = 4491339
Ave neighs/atom = 15.6421
Neighbor list builds = 2
Dangerous builds = 0
write_restart ../DEM/post/restart/liggghts.restartCFDEM
run 100    
Setting up run at Mon Oct 26 06:29:12 2020

Memory usage per processor = 196.788 Mbytes
    Step    Atoms         KinEng            rke         Volume       centerOf       dragtota       dragtota       dragtota 
  728600   287131  0.00042772863  1.9706732e-05         0.0051    0.011756412    0.099302983    0.039035701     0.48352753 
CFD Coupling established at step 728700
  728700   287131  0.00042422431  1.9501343e-05         0.0051    0.011740972    0.099302983    0.039035701     0.48352753 
Loop time of 7.67876 on 4 procs for 100 steps with 287131 atoms, finish time Mon Oct 26 06:29:20 2020


Pair  time (%) = 4.45863 (58.0645)
Neigh time (%) = 0.415099 (5.40581)
Comm  time (%) = 0.229783 (2.99245)
Outpt time (%) = 0.0188624 (0.245644)
Other time (%) = 2.55638 (33.2916)

Nlocal:    71782.8 ave 91072 max 55126 min
Histogram: 2 0 0 0 0 0 0 0 1 1
Nghost:    8870 ave 10844 max 6906 min
Histogram: 1 0 1 0 0 0 0 1 0 1
Neighs:    1.12552e+06 ave 1.44949e+06 max 801870 min
Histogram: 1 1 0 0 0 0 0 0 1 1

Total # of neighbors = 4502073
Ave neighs/atom = 15.6795
Neighbor list builds = 2
Dangerous builds = 0
write_restart ../DEM/post/restart/liggghts.restartCFDEM
run 100    
Setting up run at Mon Oct 26 06:29:24 2020

Memory usage per processor = 196.788 Mbytes
    Step    Atoms         KinEng            rke         Volume       centerOf       dragtota       dragtota       dragtota 
  728700   287131  0.00042422431  1.9501343e-05         0.0051    0.011740972     0.10279489    0.039646867     0.49449072 
CFD Coupling established at step 728800
  728800   287131  0.00042141733  1.9205764e-05         0.0051    0.011725889     0.10279489    0.039646867     0.49449072 
Loop time of 7.68505 on 4 procs for 100 steps with 287131 atoms, finish time Mon Oct 26 06:29:32 2020


Pair  time (%) = 4.4585 (58.0152)
Neigh time (%) = 0.415703 (5.40925)
Comm  time (%) = 0.229554 (2.98703)
Outpt time (%) = 0.0191332 (0.248967)
Other time (%) = 2.56216 (33.3395)

Nlocal:    71782.8 ave 91082 max 55117 min
Histogram: 2 0 0 0 0 0 0 0 1 1
Nghost:    8874.25 ave 10788 max 6949 min
Histogram: 1 0 1 0 0 0 0 1 0 1
Neighs:    1.12798e+06 ave 1.45432e+06 max 804199 min
Histogram: 1 1 0 0 0 0 0 0 1 1

Total # of neighbors = 4511920
Ave neighs/atom = 15.7138
Neighbor list builds = 2
Dangerous builds = 0
write_restart ../DEM/post/restart/liggghts.restartCFDEM
run 100    
Setting up run at Mon Oct 26 06:29:36 2020

Memory usage per processor = 196.788 Mbytes
    Step    Atoms         KinEng            rke         Volume       centerOf       dragtota       dragtota       dragtota 
  728800   287131  0.00042141733  1.9205764e-05         0.0051    0.011725889      0.1058006    0.040128046     0.50383626 
CFD Coupling established at step 728900
  728900   287131  0.00042004052  1.9070545e-05         0.0051    0.011711364      0.1058006    0.040128046     0.50383626 
Loop time of 7.82153 on 4 procs for 100 steps with 287131 atoms, finish time Mon Oct 26 06:29:44 2020


Pair  time (%) = 4.50219 (57.5614)
Neigh time (%) = 0.418072 (5.34513)
Comm  time (%) = 0.23512 (3.00605)
Outpt time (%) = 0.020347 (0.260141)
Other time (%) = 2.64581 (33.8272)

Nlocal:    71782.8 ave 91052 max 55169 min
Histogram: 2 0 0 0 0 0 0 0 1 1
Nghost:    8881.75 ave 10773 max 6939 min
Histogram: 1 0 1 0 0 0 0 0 1 1
Neighs:    1.13007e+06 ave 1.4579e+06 max 807649 min
Histogram: 1 1 0 0 0 0 0 0 1 1

Total # of neighbors = 4520265
Ave neighs/atom = 15.7429
Neighbor list builds = 2
Dangerous builds = 0
write_restart ../DEM/post/restart/liggghts.restartCFDEM
run 100    
Setting up run at Mon Oct 26 06:29:48 2020

Memory usage per processor = 196.788 Mbytes
    Step    Atoms         KinEng            rke         Volume       centerOf       dragtota       dragtota       dragtota 
  728900   287131  0.00042004052  1.9070545e-05         0.0051    0.011711364     0.10874113    0.040320866     0.51282953 
CFD Coupling established at step 729000
  729000   287131  0.00041968698  1.8959455e-05         0.0051    0.011697587     0.10874113    0.040320866     0.51282953 
Loop time of 7.77057 on 4 procs for 100 steps with 287131 atoms, finish time Mon Oct 26 06:29:56 2020


Pair  time (%) = 4.48636 (57.7353)
Neigh time (%) = 0.415457 (5.34655)
Comm  time (%) = 0.23295 (2.99785)
Outpt time (%) = 0.0194245 (0.249975)
Other time (%) = 2.61637 (33.6703)

Nlocal:    71782.8 ave 90994 max 55234 min
Histogram: 2 0 0 0 0 0 0 0 1 1
Nghost:    8886 ave 10789 max 6963 min
Histogram: 1 0 1 0 0 0 0 1 0 1
Neighs:    1.13158e+06 ave 1.46013e+06 max 810801 min
Histogram: 1 1 0 0 0 0 0 0 1 1

Total # of neighbors = 4526317
Ave neighs/atom = 15.7639
Neighbor list builds = 2
Dangerous builds = 0
write_restart ../DEM/post/restart/liggghts.restartCFDEM
run 100    
Setting up run at Mon Oct 26 06:30:00 2020

Memory usage per processor = 196.788 Mbytes
    Step    Atoms         KinEng            rke         Volume       centerOf       dragtota       dragtota       dragtota 
  729000   287131  0.00041968698  1.8959455e-05         0.0051    0.011697587     0.11149046    0.040728162     0.52163417 
CFD Coupling established at step 729100
  729100   287131  0.00042023289  1.8836182e-05         0.0051    0.011684727     0.11149046    0.040728162     0.52163417 
Loop time of 7.70025 on 4 procs for 100 steps with 287131 atoms, finish time Mon Oct 26 06:30:08 2020


Pair  time (%) = 4.45863 (57.9024)
Neigh time (%) = 0.411396 (5.34263)
Comm  time (%) = 0.230925 (2.99893)
Outpt time (%) = 0.0189236 (0.245754)
Other time (%) = 2.58038 (33.5103)

Nlocal:    71782.8 ave 90944 max 55310 min
Histogram: 2 0 0 0 0 0 0 0 1 1
Nghost:    8888 ave 10793 max 6974 min
Histogram: 1 0 1 0 0 0 0 1 0 1
Neighs:    1.13301e+06 ave 1.46273e+06 max 814165 min
Histogram: 1 1 0 0 0 0 0 0 1 1

Total # of neighbors = 4532056
Ave neighs/atom = 15.7839
Neighbor list builds = 2
Dangerous builds = 0
write_restart ../DEM/post/restart/liggghts.restartCFDEM
run 100    
Setting up run at Mon Oct 26 06:30:12 2020

Memory usage per processor = 196.788 Mbytes
    Step    Atoms         KinEng            rke         Volume       centerOf       dragtota       dragtota       dragtota 
  729100   287131  0.00042023289  1.8836182e-05         0.0051    0.011684727     0.11380299    0.040879116     0.52910578 
CFD Coupling established at step 729200
  729200   287131  0.00042153445  1.8697614e-05         0.0051    0.011672938     0.11380299    0.040879116     0.52910578 
Loop time of 7.65611 on 4 procs for 100 steps with 287131 atoms, finish time Mon Oct 26 06:30:20 2020


Pair  time (%) = 4.4081 (57.5762)
Neigh time (%) = 0.411236 (5.37134)
Comm  time (%) = 0.23116 (3.01929)
Outpt time (%) = 0.0195188 (0.254944)
Other time (%) = 2.5861 (33.7782)

Nlocal:    71782.8 ave 90890 max 55390 min
Histogram: 2 0 0 0 0 0 0 0 1 1
Nghost:    8893.25 ave 10767 max 7025 min
Histogram: 1 1 0 0 0 0 0 0 1 1
Neighs:    1.13417e+06 ave 1.46446e+06 max 817544 min
Histogram: 1 1 0 0 0 0 0 0 1 1

Total # of neighbors = 4536667
Ave neighs/atom = 15.8
Neighbor list builds = 2
Dangerous builds = 0
write_restart ../DEM/post/restart/liggghts.restartCFDEM
run 100    
Setting up run at Mon Oct 26 06:30:24 2020

Memory usage per processor = 196.788 Mbytes
    Step    Atoms         KinEng            rke         Volume       centerOf       dragtota       dragtota       dragtota 
  729200   287131  0.00042153445  1.8697614e-05         0.0051    0.011672938     0.11552907    0.040792122     0.53547889 
CFD Coupling established at step 729300
  729300   287131  0.00042332092  1.8584773e-05         0.0051    0.011662341     0.11552907    0.040792122     0.53547889 
Loop time of 7.66604 on 4 procs for 100 steps with 287131 atoms, finish time Mon Oct 26 06:30:32 2020


Pair  time (%) = 4.41134 (57.5439)
Neigh time (%) = 0.410597 (5.35605)
Comm  time (%) = 0.230868 (3.01156)
Outpt time (%) = 0.0193883 (0.252912)
Other time (%) = 2.59385 (33.8355)

Nlocal:    71782.8 ave 90826 max 55479 min
Histogram: 2 0 0 0 0 0 0 0 1 1
Nghost:    8911 ave 10758 max 7094 min
Histogram: 1 1 0 0 0 0 0 0 1 1
Neighs:    1.13525e+06 ave 1.46633e+06 max 821353 min
Histogram: 1 1 0 0 0 0 0 0 1 1

Total # of neighbors = 4540989
Ave neighs/atom = 15.815
Neighbor list builds = 2
Dangerous builds = 0
write_restart ../DEM/post/restart/liggghts.restartCFDEM
run 100    
Setting up run at Mon Oct 26 06:30:36 2020

Memory usage per processor = 196.788 Mbytes
    Step    Atoms         KinEng            rke         Volume       centerOf       dragtota       dragtota       dragtota 
  729300   287131  0.00042332092  1.8584773e-05         0.0051    0.011662341     0.11707818    0.040621163     0.54115044 
CFD Coupling established at step 729400
  729400   287131  0.00042606386  1.8478488e-05         0.0051    0.011653053     0.11707818    0.040621163     0.54115044 
Loop time of 7.70141 on 4 procs for 100 steps with 287131 atoms, finish time Mon Oct 26 06:30:44 2020


Pair  time (%) = 4.47804 (58.1457)
Neigh time (%) = 0.417987 (5.42741)
Comm  time (%) = 0.230729 (2.99593)
Outpt time (%) = 0.0190476 (0.247326)
Other time (%) = 2.55561 (33.1836)

Nlocal:    71782.8 ave 90750 max 55596 min
Histogram: 2 0 0 0 0 0 0 0 1 1
Nghost:    8943.75 ave 10797 max 7133 min
Histogram: 1 1 0 0 0 0 0 1 0 1
Neighs:    1.13587e+06 ave 1.46724e+06 max 824747 min
Histogram: 1 1 0 0 0 0 0 0 1 1

Total # of neighbors = 4543480
Ave neighs/atom = 15.8237
Neighbor list builds = 2
Dangerous builds = 0
write_restart ../DEM/post/restart/liggghts.restartCFDEM
run 100    
Setting up run at Mon Oct 26 06:30:48 2020

Memory usage per processor = 196.788 Mbytes
    Step    Atoms         KinEng            rke         Volume       centerOf       dragtota       dragtota       dragtota 
  729400   287131  0.00042606386  1.8478488e-05         0.0051    0.011653053     0.11836424    0.040201765     0.54601705 
CFD Coupling established at step 729500
  729500   287131  0.00043037417   1.825216e-05         0.0051    0.011645172     0.11836424    0.040201765     0.54601705 
Loop time of 7.7159 on 4 procs for 100 steps with 287131 atoms, finish time Mon Oct 26 06:30:56 2020


Pair  time (%) = 4.48033 (58.0662)
Neigh time (%) = 0.417798 (5.41477)
Comm  time (%) = 0.230806 (2.99131)
Outpt time (%) = 0.0190495 (0.246886)
Other time (%) = 2.56792 (33.2808)

Nlocal:    71782.8 ave 90722 max 55724 min
Histogram: 2 0 0 0 0 0 0 1 0 1
Nghost:    8971.75 ave 10739 max 7179 min
Histogram: 1 1 0 0 0 0 0 0 1 1
Neighs:    1.1366e+06 ave 1.46879e+06 max 828747 min
Histogram: 1 1 0 0 0 0 0 1 0 1

Total # of neighbors = 4546400
Ave neighs/atom = 15.8339
Neighbor list builds = 2
Dangerous builds = 0
write_restart ../DEM/post/restart/liggghts.restartCFDEM
run 100    
Setting up run at Mon Oct 26 06:31:00 2020

Memory usage per processor = 196.788 Mbytes
    Step    Atoms         KinEng            rke         Volume       centerOf       dragtota       dragtota       dragtota 
  729500   287131  0.00043037417   1.825216e-05         0.0051    0.011645172     0.11968183    0.039844324     0.55075726 
CFD Coupling established at step 729600
  729600   287131  0.00043512015  1.7934529e-05         0.0051    0.011638784     0.11968183    0.039844324     0.55075726 
Loop time of 7.62467 on 4 procs for 100 steps with 287131 atoms, finish time Mon Oct 26 06:31:08 2020


Pair  time (%) = 4.43283 (58.138)
Neigh time (%) = 0.415414 (5.44828)
Comm  time (%) = 0.228223 (2.99322)
Outpt time (%) = 0.0183012 (0.240027)
Other time (%) = 2.5299 (33.1805)

Nlocal:    71782.8 ave 90608 max 55877 min
Histogram: 2 0 0 0 0 0 0 1 0 1
Nghost:    8994.25 ave 10787 max 7203 min
Histogram: 1 1 0 0 0 0 0 0 1 1
Neighs:    1.13723e+06 ave 1.46823e+06 max 833580 min
Histogram: 1 1 0 0 0 0 0 1 0 1

Total # of neighbors = 4548935
Ave neighs/atom = 15.8427
Neighbor list builds = 2
Dangerous builds = 0
write_restart ../DEM/post/restart/liggghts.restartCFDEM
run 100    
Setting up run at Mon Oct 26 06:31:11 2020

Memory usage per processor = 196.788 Mbytes
    Step    Atoms         KinEng            rke         Volume       centerOf       dragtota       dragtota       dragtota 
  729600   287131  0.00043512015  1.7934529e-05         0.0051    0.011638784     0.12044519     0.03952965     0.55444186 
CFD Coupling established at step 729700
  729700   287131  0.00044067139  1.7796498e-05         0.0051    0.011633988     0.12044519     0.03952965     0.55444186 
Loop time of 8.03118 on 4 procs for 100 steps with 287131 atoms, finish time Mon Oct 26 06:31:20 2020


Pair  time (%) = 4.47963 (55.778)
Neigh time (%) = 0.636431 (7.9245)
Comm  time (%) = 0.299141 (3.72474)
Outpt time (%) = 0.0189667 (0.236164)
Other time (%) = 2.59701 (32.3366)

Nlocal:    71782.8 ave 90482 max 56076 min
Histogram: 2 0 0 0 0 0 0 1 0 1
Nghost:    9050.75 ave 10790 max 7286 min
Histogram: 1 1 0 0 0 0 0 0 1 1
Neighs:    1.13768e+06 ave 1.46748e+06 max 839903 min
Histogram: 1 1 0 0 0 0 0 1 0 1

Total # of neighbors = 4550730
Ave neighs/atom = 15.849
Neighbor list builds = 3
Dangerous builds = 0
write_restart ../DEM/post/restart/liggghts.restartCFDEM
run 100    
Setting up run at Mon Oct 26 06:31:23 2020

Memory usage per processor = 196.788 Mbytes
    Step    Atoms         KinEng            rke         Volume       centerOf       dragtota       dragtota       dragtota 
  729700   287131  0.00044067139  1.7796498e-05         0.0051    0.011633988     0.12101372    0.039162388      0.5576369 
CFD Coupling established at step 729800
  729800   287131    0.000447213  1.7594897e-05         0.0051    0.011630832     0.12101372    0.039162388      0.5576369 
Loop time of 7.98741 on 4 procs for 100 steps with 287131 atoms, finish time Mon Oct 26 06:31:32 2020


Pair  time (%) = 4.47045 (55.9687)
Neigh time (%) = 0.631227 (7.90278)
Comm  time (%) = 0.297249 (3.72146)
Outpt time (%) = 0.018772 (0.23502)
Other time (%) = 2.56971 (32.172)

Nlocal:    71782.8 ave 90386 max 56263 min
Histogram: 2 0 0 0 0 0 0 1 0 1
Nghost:    9084 ave 10789 max 7346 min
Histogram: 1 1 0 0 0 0 0 0 1 1
Neighs:    1.13775e+06 ave 1.46671e+06 max 844813 min
Histogram: 1 1 0 0 0 0 0 1 0 1

Total # of neighbors = 4550993
Ave neighs/atom = 15.8499
Neighbor list builds = 3
Dangerous builds = 0
write_restart ../DEM/post/restart/liggghts.restartCFDEM
run 100    
Setting up run at Mon Oct 26 06:31:35 2020

Memory usage per processor = 196.788 Mbytes
    Step    Atoms         KinEng            rke         Volume       centerOf       dragtota       dragtota       dragtota 
  729800   287131    0.000447213  1.7594897e-05         0.0051    0.011630832      0.1215825     0.03839248     0.56052781 
CFD Coupling established at step 729900
  729900   287131  0.00045507407  1.6606921e-05         0.0051    0.011629372      0.1215825     0.03839248     0.56052781 
Loop time of 7.8095 on 4 procs for 100 steps with 287131 atoms, finish time Mon Oct 26 06:31:44 2020


Pair  time (%) = 4.38456 (56.144)
Neigh time (%) = 0.616294 (7.89159)
Comm  time (%) = 0.287898 (3.68651)
Outpt time (%) = 0.0183527 (0.235005)
Other time (%) = 2.50239 (32.0429)

Nlocal:    71782.8 ave 90264 max 56491 min
Histogram: 2 0 0 0 0 0 0 1 0 1
Nghost:    9111.25 ave 10750 max 7415 min
Histogram: 1 1 0 0 0 0 0 0 1 1
Neighs:    1.13782e+06 ave 1.46526e+06 max 851002 min
Histogram: 1 1 0 0 0 0 0 1 0 1

Total # of neighbors = 4551277
Ave neighs/atom = 15.8509
Neighbor list builds = 3
Dangerous builds = 0
write_restart ../DEM/post/restart/liggghts.restartCFDEM
run 100    
Setting up run at Mon Oct 26 06:31:47 2020

Memory usage per processor = 196.788 Mbytes
    Step    Atoms         KinEng            rke         Volume       centerOf       dragtota       dragtota       dragtota 
  729900   287131  0.00045507407  1.6606921e-05         0.0051    0.011629372     0.12204422    0.037439497     0.56347105 
CFD Coupling established at step 730000
  730000   287131  0.00046377771  1.6510614e-05         0.0051    0.011629664     0.12204422    0.037439497     0.56347105 
Loop time of 9.56516 on 4 procs for 100 steps with 287131 atoms, finish time Mon Oct 26 06:31:57 2020


Pair  time (%) = 4.41126 (46.118)
Neigh time (%) = 0.621122 (6.49359)
Comm  time (%) = 0.290429 (3.03633)
Outpt time (%) = 1.73724 (18.1622)
Other time (%) = 2.5051 (26.1899)

Nlocal:    71782.8 ave 90144 max 56716 min
Histogram: 2 0 0 0 0 0 0 1 0 1
Nghost:    9152.5 ave 10742 max 7527 min
Histogram: 1 1 0 0 0 0 0 0 1 1
Neighs:    1.13765e+06 ave 1.46347e+06 max 856993 min
Histogram: 1 1 0 0 0 0 0 1 0 1

Total # of neighbors = 4550581
Ave neighs/atom = 15.8484
Neighbor list builds = 3
Dangerous builds = 0
write_restart ../DEM/post/restart/liggghts.restartCFDEM
