# Probe 0 (0 0 0.01)
#       Probe             0
#        Time
       2.1501       56.3752
       2.1502       93.3209
       2.1503       92.9165
       2.1504       92.2309
       2.1505       91.6359
       2.1506       91.0926
       2.1507       90.7025
       2.1508       89.9638
       2.1509        89.327
        2.151       88.8824
       2.1511       88.8085
       2.1512       89.5342
       2.1513       89.8757
       2.1514       90.0392
       2.1515       90.0302
       2.1516       89.9154
       2.1517       89.6479
       2.1518       89.5497
       2.1519       89.9043
        2.152       90.4673
       2.1521       90.9486
       2.1522       90.2825
       2.1523        89.734
       2.1524       89.3425
       2.1525       88.9045
       2.1526       88.5593
       2.1527       88.2894
       2.1528       87.9806
       2.1529       87.7241
        2.153       87.4594
       2.1531       87.2539
       2.1532       87.0825
       2.1533       86.8999
       2.1534       86.6972
       2.1535       86.5019
       2.1536       86.3021
       2.1537        86.097
       2.1538       85.8966
       2.1539       85.6808
        2.154       85.4804
       2.1541       85.3142
       2.1542       85.1504
       2.1543        84.944
       2.1544        84.732
       2.1545       84.5243
       2.1546       84.3051
       2.1547       84.1083
       2.1548       83.8986
       2.1549       83.7213
        2.155       83.5256
       2.1551       83.2953
       2.1552       83.1695
       2.1553       83.0769
       2.1554       82.9405
       2.1555       82.8564
       2.1556       82.7129
       2.1557        82.629
       2.1558       82.4686
       2.1559       82.3911
        2.156       82.2022
       2.1561       82.2097
       2.1562       82.0485
       2.1563       82.0274
       2.1564       81.8649
       2.1565       81.8314
       2.1566       81.6548
       2.1567       81.6255
       2.1568        81.445
       2.1569       81.4455
        2.157       81.2228
       2.1571       81.2747
       2.1572       81.0032
       2.1573       80.9042
       2.1574       80.6313
       2.1575       80.5046
       2.1576       80.2446
       2.1577       80.0993
       2.1578       79.8629
       2.1579       79.7453
        2.158       79.5545
       2.1581       79.3548
       2.1582       79.1977
       2.1583       79.0676
       2.1584       78.9546
       2.1585       78.8247
       2.1586       78.6792
       2.1587       78.5428
       2.1588       78.3992
       2.1589       78.2523
        2.159       78.0875
       2.1591       78.0664
       2.1592       78.0207
       2.1593       77.9837
       2.1594       77.8975
       2.1595       77.7884
       2.1596       77.6896
       2.1597       77.5693
       2.1598       77.4564
       2.1599       77.3459
         2.16       77.2332
       2.1601       77.1227
       2.1602       77.0164
       2.1603       76.9402
       2.1604       76.8599
       2.1605       76.7657
       2.1606       76.6742
       2.1607       76.5622
       2.1608       76.4739
       2.1609       76.3664
        2.161       76.2693
       2.1611       76.2921
       2.1612       76.2536
       2.1613       76.2118
       2.1614       76.1277
       2.1615       76.0664
       2.1616       75.9543
       2.1617       75.8832
       2.1618       75.7479
       2.1619       75.6563
        2.162       75.5418
       2.1621       75.4567
       2.1622       75.3413
       2.1623       75.2251
       2.1624        75.159
       2.1625       75.0462
       2.1626       74.9343
       2.1627       74.8366
       2.1628       74.7301
       2.1629       74.6187
        2.163       74.5114
       2.1631        74.345
       2.1632       74.2379
       2.1633       74.1408
       2.1634       74.0261
       2.1635       73.9098
       2.1636       73.8245
       2.1637       73.7097
       2.1638        73.595
       2.1639        73.476
        2.164       73.3707
       2.1641       73.2589
       2.1642       73.1472
       2.1643       73.0365
       2.1644       72.9202
       2.1645       72.8174
       2.1646       72.7017
       2.1647       72.6049
       2.1648       72.4867
       2.1649       72.3661
        2.165       72.2653
       2.1651       72.1115
       2.1652       71.9996
       2.1653       71.8839
       2.1654       71.7779
       2.1655       71.6606
       2.1656       71.5516
       2.1657       71.4182
       2.1658       71.3075
       2.1659       71.1777
        2.166       71.0595
       2.1661       70.9609
       2.1662        70.872
       2.1663       70.8264
       2.1664       70.7375
       2.1665       70.6473
       2.1666       70.5548
       2.1667       70.4686
       2.1668       70.3785
       2.1669       70.2917
        2.167       70.2048
       2.1671       70.1742
       2.1672       70.1258
       2.1673       70.0942
       2.1674       70.0694
       2.1675       70.0434
       2.1676       70.0187
       2.1677       69.9929
       2.1678       69.9634
       2.1679        69.934
        2.168       69.9079
       2.1681       69.8654
       2.1682       69.8892
       2.1683       69.8963
       2.1684       69.8891
       2.1685       69.8432
       2.1686       69.7904
       2.1687        69.731
       2.1688       69.6505
       2.1689       69.5725
        2.169       69.5339
       2.1691       69.4055
       2.1692       69.3281
       2.1693       69.2897
       2.1694       69.1768
       2.1695       69.0803
       2.1696       68.9727
       2.1697       68.8588
       2.1698       68.7471
       2.1699       68.6392
         2.17       68.5584
       2.1701        68.467
       2.1702       68.3927
       2.1703       68.3062
       2.1704       68.2568
       2.1705       68.1768
       2.1706       68.1107
       2.1707       68.0288
       2.1708       67.9504
       2.1709       67.8785
        2.171       67.7903
       2.1711       67.9098
       2.1712       67.9297
       2.1713       67.9359
       2.1714       67.9348
       2.1715       67.9247
       2.1716       67.9114
       2.1717       67.8901
       2.1718       67.8661
       2.1719        67.845
        2.172       67.8203
       2.1721        67.657
       2.1722        67.612
       2.1723        67.586
       2.1724        67.541
       2.1725       67.4945
       2.1726       67.4529
       2.1727       67.4125
       2.1728       67.3943
       2.1729       67.3955
        2.173        67.362
       2.1731       67.4511
       2.1732       67.4576
       2.1733       67.4558
       2.1734       67.4617
       2.1735       67.4582
       2.1736       67.4521
       2.1737       67.4489
       2.1738       67.4454
       2.1739       67.4426
        2.174         67.45
       2.1741        67.429
       2.1742       67.4373
       2.1743       67.4786
       2.1744       67.5139
       2.1745       67.5556
       2.1746       67.5437
       2.1747       67.5268
       2.1748       67.4803
       2.1749       67.4759
        2.175       67.4448
       2.1751        67.523
       2.1752         67.52
       2.1753       67.5432
       2.1754       67.5482
       2.1755       67.5793
       2.1756       67.5843
       2.1757       67.6118
       2.1758       67.6402
       2.1759       67.6733
        2.176       67.7025
       2.1761       67.8753
       2.1762       67.9806
       2.1763       68.0659
       2.1764       68.1396
       2.1765       68.2039
       2.1766       68.2504
       2.1767       68.2893
       2.1768       68.3156
       2.1769       68.3423
        2.177       68.3675
       2.1771        68.398
       2.1772        68.462
       2.1773        68.543
       2.1774       68.6438
       2.1775        68.739
       2.1776       68.8544
       2.1777        68.962
       2.1778       69.1099
       2.1779       69.2484
        2.178       69.3765
       2.1781       69.5283
       2.1782       69.5865
       2.1783       69.6311
       2.1784       69.6613
       2.1785       69.6708
       2.1786       69.6655
       2.1787       69.6463
       2.1788       69.6507
       2.1789       69.6666
        2.179         69.69
       2.1791       69.7034
       2.1792       69.7406
       2.1793       69.7793
       2.1794       69.8166
       2.1795       69.8535
       2.1796       69.8834
       2.1797       69.9195
       2.1798       69.9516
       2.1799        69.989
         2.18        70.022
       2.1801       70.1832
       2.1802       70.2909
       2.1803       70.3985
       2.1804       70.5422
       2.1805       70.6684
       2.1806       70.8315
       2.1807       70.9865
       2.1808       71.1327
       2.1809       71.2868
        2.181       71.4553
       2.1811       71.5958
       2.1812       71.8064
       2.1813       71.9868
       2.1814       72.1953
       2.1815        72.372
       2.1816       72.5679
       2.1817       72.7048
       2.1818        72.864
       2.1819       72.9793
        2.182       73.1239
       2.1821       73.3266
       2.1822       73.5651
       2.1823       73.7769
       2.1824       74.0009
       2.1825       74.2235
       2.1826       74.4465
       2.1827       74.6893
       2.1828       74.9131
       2.1829       75.1392
        2.183       75.3774
       2.1831       75.4841
       2.1832       75.6024
       2.1833       75.6973
       2.1834       75.7929
       2.1835       75.8983
       2.1836       76.0028
       2.1837       76.1094
       2.1838        76.226
       2.1839       76.3468
        2.184       76.4778
       2.1841       76.5299
       2.1842       76.6715
       2.1843       76.8252
       2.1844       76.9609
       2.1845       77.1026
       2.1846       77.2908
       2.1847       77.4138
       2.1848       77.5524
       2.1849       77.7019
        2.185       77.8457
       2.1851       78.0339
       2.1852       78.2439
       2.1853       78.4672
       2.1854       78.6849
       2.1855       78.9165
       2.1856       79.1375
       2.1857       79.3686
       2.1858       79.5879
       2.1859       79.8157
        2.186       80.0367
       2.1861        80.277
       2.1862       80.4925
       2.1863       80.7357
       2.1864       80.9429
       2.1865       81.1376
       2.1866       81.3627
       2.1867       81.5909
       2.1868       81.7829
       2.1869       81.9935
        2.187       82.1794
       2.1871       82.5022
       2.1872       82.7398
       2.1873       82.9865
       2.1874       83.2228
       2.1875       83.4552
       2.1876        83.696
       2.1877       83.9394
       2.1878       84.1564
       2.1879       84.3937
        2.188       84.6143
       2.1881       84.8422
       2.1882       85.0759
       2.1883       85.3703
       2.1884        85.659
       2.1885       85.9445
       2.1886       86.1977
       2.1887       86.4565
       2.1888       86.7068
       2.1889       86.9596
        2.189       87.1897
       2.1891       87.4767
       2.1892        87.786
       2.1893       88.1138
       2.1894       88.4263
       2.1895       88.7464
       2.1896       89.0498
       2.1897       89.3561
       2.1898       89.6343
       2.1899       89.9571
         2.19       90.2319
       2.1901       90.7657
       2.1902       91.2534
       2.1903       91.7494
       2.1904       92.2568
       2.1905        92.759
       2.1906       93.2751
       2.1907       93.8509
       2.1908       94.3345
       2.1909       95.5726
        2.191       96.2066
       2.1911       96.3908
       2.1912       96.6074
       2.1913       96.8051
       2.1914       96.9897
       2.1915       97.1981
       2.1916       97.5597
       2.1917       97.8015
       2.1918       98.0227
       2.1919       98.1975
        2.192       98.3903
       2.1921       98.6002
       2.1922       98.8973
       2.1923       99.2038
       2.1924       99.5045
       2.1925       99.8112
       2.1926       100.122
       2.1927       100.423
       2.1928       100.719
       2.1929        101.02
        2.193       101.325
       2.1931       101.469
       2.1932       101.617
       2.1933       101.794
       2.1934       102.008
       2.1935       102.169
       2.1936       102.303
       2.1937       102.419
       2.1938       102.526
       2.1939       102.627
        2.194       102.728
       2.1941       102.771
       2.1942       102.885
       2.1943       102.997
       2.1944       103.115
       2.1945       103.227
       2.1946       103.341
       2.1947       103.443
       2.1948       103.551
       2.1949       103.641
        2.195       103.735
       2.1951       104.059
       2.1952       104.291
       2.1953        104.51
       2.1954       104.697
       2.1955       104.877
       2.1956       105.051
       2.1957       105.214
       2.1958       105.389
       2.1959       105.544
        2.196        105.71
       2.1961        105.77
       2.1962       105.851
       2.1963       105.948
       2.1964       106.072
       2.1965       106.192
       2.1966       106.328
       2.1967       106.465
       2.1968       106.608
       2.1969        106.76
        2.197       106.908
       2.1971       107.017
       2.1972       107.166
       2.1973       107.313
       2.1974        107.45
       2.1975       107.583
       2.1976       107.707
       2.1977       107.829
       2.1978        107.94
       2.1979        108.05
        2.198       108.158
       2.1981       108.178
       2.1982        108.28
       2.1983       108.389
       2.1984       108.505
       2.1985       108.611
       2.1986       108.706
       2.1987       108.805
       2.1988       108.906
       2.1989       109.009
        2.199       109.115
       2.1991       109.273
       2.1992       109.436
       2.1993       109.595
       2.1994       109.753
       2.1995       109.914
       2.1996       110.072
       2.1997       110.237
       2.1998       110.402
       2.1999       110.567
          2.2       110.724
       2.2001       110.904
       2.2002       111.036
       2.2003        111.16
       2.2004       111.288
       2.2005       111.414
       2.2006       111.544
       2.2007       111.673
       2.2008       111.801
       2.2009       111.923
        2.201       112.047
       2.2011       112.132
       2.2012       112.396
       2.2013       112.694
       2.2014       113.014
       2.2015        113.35
       2.2016       113.693
       2.2017       114.004
       2.2018       114.274
       2.2019       114.521
        2.202       114.778
       2.2021       114.984
       2.2022       115.133
       2.2023       115.274
       2.2024       115.412
       2.2025       115.554
       2.2026       115.704
       2.2027       115.852
       2.2028       115.999
       2.2029       116.136
        2.203       116.268
       2.2031       116.353
       2.2032       116.448
       2.2033       116.534
       2.2034       116.616
       2.2035       116.695
       2.2036       116.818
       2.2037       116.897
       2.2038       116.975
       2.2039       117.045
        2.204       117.107
       2.2041       117.171
       2.2042       117.254
       2.2043       117.334
       2.2044       117.419
       2.2045       117.499
       2.2046       117.581
       2.2047       117.668
       2.2048       117.753
       2.2049       117.835
        2.205        117.92
       2.2051       117.921
       2.2052       117.966
       2.2053       118.008
       2.2054        118.05
       2.2055       118.087
       2.2056        118.12
       2.2057       118.145
       2.2058       118.172
       2.2059       118.207
        2.206       118.225
       2.2061       118.237
       2.2062       118.317
       2.2063       118.409
       2.2064         118.5
       2.2065       118.588
       2.2066       118.679
       2.2067       118.774
       2.2068       118.859
       2.2069       118.939
        2.207       119.019
       2.2071       119.072
       2.2072       119.126
       2.2073       119.176
       2.2074       119.217
       2.2075       119.257
       2.2076       119.297
       2.2077       119.331
       2.2078       119.372
       2.2079       119.414
        2.208       119.445
       2.2081       119.444
       2.2082       119.463
       2.2083       119.484
       2.2084       119.505
       2.2085       119.523
       2.2086        119.54
       2.2087       119.551
       2.2088       119.559
       2.2089       119.561
        2.209       119.561
       2.2091       119.625
       2.2092       119.665
       2.2093        119.69
       2.2094       119.717
       2.2095       119.743
       2.2096       119.772
       2.2097       119.795
       2.2098       119.821
       2.2099       119.837
         2.21       119.855
       2.2101       119.811
       2.2102       119.787
       2.2103       119.756
       2.2104       119.723
       2.2105       119.696
       2.2106       119.682
       2.2107       119.653
       2.2108       119.619
       2.2109       119.556
        2.211       119.507
       2.2111       119.414
       2.2112       119.382
       2.2113       119.347
       2.2114        119.32
       2.2115       119.293
       2.2116       119.274
       2.2117       119.236
       2.2118       119.198
       2.2119       119.121
        2.212       119.044
       2.2121       118.882
       2.2122       118.747
       2.2123       118.659
       2.2124       118.502
       2.2125       118.402
       2.2126       118.263
       2.2127       118.142
       2.2128       117.998
       2.2129       117.862
        2.213       117.739
       2.2131       117.585
       2.2132       117.546
       2.2133       117.481
       2.2134       117.434
       2.2135       117.362
       2.2136       117.316
       2.2137       117.253
       2.2138       117.198
       2.2139       117.134
        2.214        117.07
       2.2141       116.966
       2.2142       116.863
       2.2143       116.715
       2.2144       116.589
       2.2145       116.447
       2.2146       116.323
       2.2147       116.166
       2.2148       116.029
       2.2149       115.871
        2.215       115.728
       2.2151       115.674
       2.2152       115.644
       2.2153       115.605
       2.2154       115.577
       2.2155       115.522
       2.2156       115.487
       2.2157       115.443
       2.2158         115.4
       2.2159        115.35
        2.216       115.306
       2.2161       115.272
       2.2162       115.199
       2.2163       115.121
       2.2164       115.062
       2.2165       115.004
       2.2166       114.948
       2.2167       114.874
       2.2168        114.81
       2.2169       114.735
        2.217        114.67
       2.2171       114.598
       2.2172       114.534
       2.2173       114.445
       2.2174       114.362
       2.2175       114.273
       2.2176       114.189
       2.2177       114.099
       2.2178       114.037
       2.2179       113.945
        2.218       113.871
       2.2181       113.812
       2.2182       113.752
       2.2183       113.651
       2.2184       113.595
       2.2185       113.515
       2.2186       113.442
       2.2187        113.37
       2.2188       113.302
       2.2189       113.222
        2.219       113.144
       2.2191       113.057
       2.2192       112.967
       2.2193       112.873
       2.2194       112.776
       2.2195       112.679
       2.2196       112.578
       2.2197       112.471
       2.2198       112.365
       2.2199       112.247
         2.22       112.112
       2.2201       111.987
       2.2202       111.914
       2.2203        111.79
       2.2204       111.689
       2.2205       111.599
       2.2206       111.496
       2.2207        111.39
       2.2208       111.285
       2.2209       111.176
        2.221       111.066
       2.2211       111.123
       2.2212       111.049
       2.2213       110.992
       2.2214       110.949
       2.2215       110.885
       2.2216       110.836
       2.2217       110.784
       2.2218       110.731
       2.2219       110.656
        2.222       110.606
       2.2221       110.188
       2.2222       110.143
       2.2223       110.072
       2.2224       110.007
       2.2225       109.969
       2.2226       109.934
       2.2227       109.861
       2.2228       109.825
       2.2229       109.754
        2.223       109.715
       2.2231       109.811
       2.2232        109.75
       2.2233       109.643
       2.2234       109.568
       2.2235       109.476
       2.2236       109.411
       2.2237       109.334
       2.2238       109.275
       2.2239       109.203
        2.224       109.124
       2.2241       108.918
       2.2242       108.838
       2.2243       108.837
       2.2244       108.737
       2.2245       108.739
       2.2246       108.643
       2.2247       108.654
       2.2248       108.563
       2.2249       108.567
        2.225       108.465
       2.2251       108.444
       2.2252       108.348
       2.2253       108.324
       2.2254       108.241
       2.2255       108.205
       2.2256       108.131
       2.2257       108.093
       2.2258        108.02
       2.2259       107.969
        2.226       107.894
       2.2261       107.753
       2.2262        107.68
       2.2263       107.626
       2.2264       107.551
       2.2265       107.498
       2.2266       107.423
       2.2267       107.369
       2.2268       107.294
       2.2269       107.242
        2.227       107.166
       2.2271       107.156
       2.2272       107.098
       2.2273       107.059
       2.2274       107.002
       2.2275       106.961
       2.2276       106.885
       2.2277       106.843
       2.2278       106.778
       2.2279        106.73
        2.228       106.665
       2.2281       106.451
       2.2282       106.373
       2.2283       106.302
       2.2284       106.224
       2.2285       106.158
       2.2286       106.084
       2.2287       106.049
       2.2288       105.975
       2.2289       105.916
        2.229       105.843
       2.2291       105.767
       2.2292       105.696
       2.2293       105.639
       2.2294       105.571
       2.2295       105.514
       2.2296       105.432
       2.2297       105.383
       2.2298       105.318
       2.2299       105.265
         2.23       105.201
       2.2301       105.183
       2.2302       105.122
       2.2303       105.058
       2.2304       104.998
       2.2305       104.929
       2.2306       104.871
       2.2307       104.803
       2.2308       104.754
       2.2309       104.675
        2.231       104.588
       2.2311       104.491
       2.2312       104.444
       2.2313       104.381
       2.2314       104.336
       2.2315       104.292
       2.2316       104.233
       2.2317       104.188
       2.2318       104.126
       2.2319       104.079
        2.232       104.025
       2.2321       103.943
       2.2322       103.883
       2.2323       103.815
       2.2324       103.752
       2.2325       103.686
       2.2326       103.623
       2.2327        103.56
       2.2328       103.496
       2.2329       103.427
        2.233       103.364
       2.2331       103.317
       2.2332       103.256
       2.2333       103.192
       2.2334       103.129
       2.2335       103.079
       2.2336       103.001
       2.2337       102.944
       2.2338       102.872
       2.2339       102.815
        2.234       102.756
       2.2341        102.72
       2.2342       102.665
       2.2343       102.607
       2.2344       102.538
       2.2345       102.482
       2.2346       102.425
       2.2347       102.368
       2.2348       102.299
       2.2349       102.243
        2.235       102.186
       2.2351       102.022
       2.2352        101.94
       2.2353       101.888
       2.2354       101.848
       2.2355       101.804
       2.2356       101.758
       2.2357       101.702
       2.2358        101.66
       2.2359       101.617
        2.236       101.569
       2.2361       101.503
       2.2362       101.461
       2.2363       101.414
       2.2364       101.362
       2.2365       101.317
       2.2366       101.274
       2.2367       101.231
       2.2368       101.181
       2.2369       101.138
        2.237       101.095
       2.2371       101.067
       2.2372       100.999
       2.2373       100.928
       2.2374       100.861
       2.2375       100.795
       2.2376       100.726
       2.2377       100.646
       2.2378       100.578
       2.2379       100.509
        2.238        100.44
       2.2381       100.365
       2.2382       100.332
       2.2383       100.295
       2.2384       100.262
       2.2385       100.227
       2.2386       100.194
       2.2387        100.17
       2.2388       100.129
       2.2389       100.091
        2.239       100.054
       2.2391       100.023
       2.2392       100.005
       2.2393       99.9762
       2.2394       99.9505
       2.2395       99.9251
       2.2396       99.8998
       2.2397       99.8693
       2.2398       99.8515
       2.2399       99.8197
         2.24       99.7939
       2.2401       99.7324
       2.2402       99.6978
       2.2403       99.6578
       2.2404        99.622
       2.2405       99.5826
       2.2406       99.5456
       2.2407        99.506
       2.2408       99.4665
       2.2409       99.4265
        2.241       99.3882
       2.2411       99.4214
       2.2412       99.3984
       2.2413       99.3654
       2.2414       99.3468
       2.2415       99.3156
       2.2416       99.2832
       2.2417       99.2532
       2.2418       99.2313
       2.2419       99.2024
        2.242       99.1672
       2.2421       99.0761
       2.2422       99.0487
       2.2423       99.0197
       2.2424       98.9972
       2.2425       98.9752
       2.2426       98.9601
       2.2427       98.9346
       2.2428       98.9068
       2.2429       98.8845
        2.243       98.8596
       2.2431       98.8387
       2.2432       98.8208
       2.2433       98.7913
       2.2434       98.7535
       2.2435       98.7227
       2.2436       98.6953
       2.2437       98.6628
       2.2438       98.6213
       2.2439       98.5899
        2.244        98.562
       2.2441       98.5307
       2.2442       98.4897
       2.2443       98.4599
       2.2444       98.4347
       2.2445       98.4007
       2.2446       98.3657
       2.2447       98.3391
       2.2448         98.31
       2.2449       98.2804
        2.245        98.221
       2.2451        98.171
       2.2452       98.1389
       2.2453       98.1178
       2.2454       98.0871
       2.2455       98.0503
       2.2456       98.0232
       2.2457       97.9941
       2.2458       97.9612
       2.2459       97.9221
        2.246       97.8931
       2.2461       97.8364
       2.2462       97.8068
       2.2463       97.7733
       2.2464       97.7518
       2.2465       97.7265
       2.2466       97.7055
       2.2467       97.6776
       2.2468       97.6494
       2.2469       97.6295
        2.247       97.5939
       2.2471       97.5293
       2.2472       97.4821
       2.2473       97.4428
       2.2474       97.4023
       2.2475       97.3637
       2.2476       97.3202
       2.2477       97.2777
       2.2478       97.2455
       2.2479       97.1951
        2.248       97.1503
       2.2481       97.2162
       2.2482       97.1775
       2.2483       97.1504
       2.2484       97.1076
       2.2485       97.0646
       2.2486       97.0263
       2.2487       96.9856
       2.2488       96.9448
       2.2489       96.9128
        2.249       96.8722
       2.2491        96.829
       2.2492       96.7977
       2.2493       96.7593
       2.2494        96.727
       2.2495        96.699
       2.2496       96.6553
       2.2497       96.6258
       2.2498        96.582
       2.2499        96.551
         2.25       96.5134
       2.2501       96.4496
       2.2502       96.4142
       2.2503       96.3824
       2.2504       96.3574
       2.2505        96.319
       2.2506       96.2958
       2.2507       96.2728
       2.2508       96.2426
       2.2509       96.2043
        2.251       96.1747
       2.2511       96.2105
       2.2512       96.1779
       2.2513       96.1405
       2.2514       96.1103
       2.2515       96.0813
       2.2516       96.0489
       2.2517       96.0086
       2.2518       95.9751
       2.2519        95.943
        2.252         95.91
       2.2521       95.7704
       2.2522       95.7284
       2.2523       95.6929
       2.2524       95.6572
       2.2525       95.6159
       2.2526       95.5981
       2.2527       95.5671
       2.2528       95.5009
       2.2529       95.4814
        2.253        95.448
       2.2531       95.5013
       2.2532       95.4992
       2.2533       95.5053
       2.2534       95.4943
       2.2535       95.4823
       2.2536       95.4667
       2.2537       95.4498
       2.2538       95.4293
       2.2539       95.4073
        2.254       95.3932
       2.2541       95.3685
       2.2542       95.3158
       2.2543       95.2574
       2.2544       95.2092
       2.2545       95.1696
       2.2546       95.1217
       2.2547       95.0735
       2.2548       95.0257
       2.2549       94.9712
        2.255       94.9336
       2.2551       94.9023
       2.2552       94.8808
       2.2553        94.823
       2.2554       94.7907
       2.2555       94.7776
       2.2556       94.7547
       2.2557       94.7281
       2.2558       94.7096
       2.2559       94.7063
        2.256       94.6854
       2.2561       94.6219
       2.2562       94.5967
       2.2563       94.5738
       2.2564       94.5482
       2.2565       94.5337
       2.2566       94.5027
       2.2567       94.4723
       2.2568       94.4398
       2.2569       94.4083