# Probe 0 (0 0 0.01)
#       Probe             0
#        Time
       2.1501             (-0.176836 -0.715657 3.55424)
       2.1502             (-0.158987 -0.696135 3.59779)
       2.1503             (-0.130922 -0.666161 3.64659)
       2.1504             (-0.0931069 -0.623023 3.69613)
       2.1505             (-0.0476987 -0.56814 3.74562)
       2.1506             (0.0051069 -0.500388 3.79719)
       2.1507             (0.0648236 -0.419085 3.85141)
       2.1508             (0.132902 -0.3228 3.90882)
       2.1509             (0.2079 -0.210952 3.96841)
        2.151             (0.288899 -0.0841033 4.02905)
       2.1511             (0.35412 0.0234202 4.08387)
       2.1512             (0.412537 0.126207 4.1335)
       2.1513             (0.466516 0.227277 4.17944)
       2.1514             (0.515979 0.3261 4.22476)
       2.1515             (0.561061 0.422303 4.27046)
       2.1516             (0.602203 0.515796 4.31739)
       2.1517             (0.640495 0.605623 4.36588)
       2.1518             (0.674831 0.693673 4.41496)
       2.1519             (0.705784 0.778052 4.46178)
        2.152             (0.734182 0.858858 4.50457)
       2.1521             (0.754493 0.924611 4.53683)
       2.1522             (0.768488 0.977284 4.56044)
       2.1523             (0.77729 1.01881 4.57711)
       2.1524             (0.782455 1.05086 4.58707)
       2.1525             (0.784813 1.07573 4.59342)
       2.1526             (0.78506 1.0952 4.5967)
       2.1527             (0.783526 1.1102 4.59745)
       2.1528             (0.781048 1.12073 4.59602)
       2.1529             (0.777516 1.12795 4.5927)
        2.153             (0.772852 1.13131 4.5873)
       2.1531             (0.769119 1.13409 4.58297)
       2.1532             (0.766156 1.13691 4.57979)
       2.1533             (0.763673 1.14016 4.57757)
       2.1534             (0.761526 1.14373 4.57616)
       2.1535             (0.759668 1.14766 4.57538)
       2.1536             (0.758026 1.15184 4.57509)
       2.1537             (0.756545 1.15624 4.57512)
       2.1538             (0.75528 1.16079 4.57534)
       2.1539             (0.75425 1.16553 4.57572)
        2.154             (0.753389 1.17046 4.57618)
       2.1541             (0.752851 1.17588 4.57815)
       2.1542             (0.752623 1.18165 4.5816)
       2.1543             (0.752785 1.18776 4.58642)
       2.1544             (0.753359 1.1941 4.59256)
       2.1545             (0.754229 1.20066 4.59943)
       2.1546             (0.755213 1.2073 4.60672)
       2.1547             (0.756554 1.21407 4.61434)
       2.1548             (0.757979 1.22099 4.62223)
       2.1549             (0.759721 1.22797 4.63029)
        2.155             (0.761417 1.235 4.63853)
       2.1551             (0.763027 1.24078 4.64593)
       2.1552             (0.764173 1.2457 4.65244)
       2.1553             (0.765177 1.24988 4.65803)
       2.1554             (0.765694 1.25347 4.66286)
       2.1555             (0.766172 1.25652 4.66696)
       2.1556             (0.766144 1.25916 4.67048)
       2.1557             (0.766171 1.26141 4.6734)
       2.1558             (0.765648 1.26337 4.67587)
       2.1559             (0.765276 1.26505 4.67782)
        2.156             (0.764286 1.26674 4.67968)
       2.1561             (0.763334 1.26831 4.68171)
       2.1562             (0.761677 1.2699 4.68418)
       2.1563             (0.760523 1.27144 4.68692)
       2.1564             (0.758642 1.27311 4.69019)
       2.1565             (0.757507 1.27468 4.69361)
       2.1566             (0.75574 1.27634 4.69737)
       2.1567             (0.754772 1.27794 4.70123)
       2.1568             (0.753137 1.27961 4.70538)
       2.1569             (0.752311 1.28123 4.7096)
        2.157             (0.75082 1.28313 4.71405)
       2.1571             (0.750296 1.28495 4.71831)
       2.1572             (0.749026 1.287 4.72302)
       2.1573             (0.748496 1.28928 4.72797)
       2.1574             (0.747382 1.2919 4.73334)
       2.1575             (0.746918 1.29478 4.73878)
       2.1576             (0.74605 1.29791 4.74425)
       2.1577             (0.745729 1.30115 4.74934)
       2.1578             (0.745213 1.30433 4.75418)
       2.1579             (0.744965 1.30746 4.75876)
        2.158             (0.744502 1.31058 4.76309)
       2.1581             (0.744068 1.31229 4.76736)
       2.1582             (0.743505 1.31255 4.77126)
       2.1583             (0.742982 1.31143 4.77469)
       2.1584             (0.742336 1.30909 4.77773)
       2.1585             (0.741712 1.30561 4.78036)
       2.1586             (0.741092 1.30105 4.78267)
       2.1587             (0.740476 1.29535 4.78446)
       2.1588             (0.739812 1.28837 4.7855)
       2.1589             (0.739172 1.28054 4.78622)
        2.159             (0.738538 1.27187 4.78652)
       2.1591             (0.737734 1.26389 4.78779)
       2.1592             (0.736763 1.25656 4.7899)
       2.1593             (0.735664 1.24982 4.7928)
       2.1594             (0.734522 1.24367 4.7964)
       2.1595             (0.733494 1.23796 4.80069)
       2.1596             (0.732344 1.23284 4.80535)
       2.1597             (0.731345 1.22809 4.81042)
       2.1598             (0.730314 1.22378 4.81572)
       2.1599             (0.729386 1.21976 4.8212)
         2.16             (0.72846 1.21603 4.82678)
       2.1601             (0.727643 1.21201 4.83305)
       2.1602             (0.727414 1.20749 4.83963)
       2.1603             (0.727183 1.2033 4.84663)
       2.1604             (0.727172 1.19888 4.85392)
       2.1605             (0.727102 1.19472 4.86143)
       2.1606             (0.727252 1.19055 4.86908)
       2.1607             (0.727549 1.1866 4.87677)
       2.1608             (0.728316 1.18301 4.88426)
       2.1609             (0.729513 1.17981 4.89153)
        2.161             (0.731117 1.17697 4.89863)
       2.1611             (0.732852 1.175 4.90562)
       2.1612             (0.734649 1.17378 4.91263)
       2.1613             (0.736529 1.17323 4.91974)
       2.1614             (0.738531 1.17328 4.92692)
       2.1615             (0.740442 1.17369 4.93425)
       2.1616             (0.742025 1.17414 4.94182)
       2.1617             (0.743357 1.17456 4.94956)
       2.1618             (0.744487 1.17498 4.95739)
       2.1619             (0.745425 1.17541 4.96532)
        2.162             (0.746201 1.17584 4.97334)
       2.1621             (0.747167 1.17593 4.9822)
       2.1622             (0.748199 1.17567 4.99142)
       2.1623             (0.749318 1.17517 5.00096)
       2.1624             (0.750387 1.17442 5.01067)
       2.1625             (0.751482 1.17361 5.02052)
       2.1626             (0.752463 1.17261 5.03042)
       2.1627             (0.753401 1.17156 5.04042)
       2.1628             (0.754237 1.17038 5.05045)
       2.1629             (0.755049 1.16917 5.06052)
        2.163             (0.75585 1.16792 5.07059)
       2.1631             (0.756592 1.16678 5.08147)
       2.1632             (0.757223 1.16559 5.09289)
       2.1633             (0.757755 1.16435 5.10475)
       2.1634             (0.758239 1.16308 5.11699)
       2.1635             (0.758673 1.16174 5.12952)
       2.1636             (0.759018 1.16036 5.14224)
       2.1637             (0.759303 1.15894 5.1551)
       2.1638             (0.759502 1.15752 5.16803)
       2.1639             (0.759653 1.15605 5.18102)
        2.164             (0.759729 1.15455 5.19404)
       2.1641             (0.759647 1.15302 5.20699)
       2.1642             (0.759454 1.15146 5.21977)
       2.1643             (0.759221 1.14974 5.23245)
       2.1644             (0.758943 1.14793 5.24503)
       2.1645             (0.758684 1.14606 5.25751)
       2.1646             (0.758398 1.14425 5.26984)
       2.1647             (0.758146 1.14249 5.28204)
       2.1648             (0.757875 1.14081 5.29405)
       2.1649             (0.757643 1.13919 5.30589)
        2.165             (0.757396 1.1376 5.31756)
       2.1651             (0.756719 1.13605 5.3303)
       2.1652             (0.755382 1.13462 5.34372)
       2.1653             (0.753484 1.13331 5.35773)
       2.1654             (0.751136 1.13202 5.37206)
       2.1655             (0.748459 1.1308 5.38666)
       2.1656             (0.745522 1.12954 5.40141)
       2.1657             (0.742451 1.1282 5.41628)
       2.1658             (0.739346 1.12675 5.43105)
       2.1659             (0.736267 1.12526 5.44589)
        2.166             (0.733328 1.12373 5.46085)
       2.1661             (0.731196 1.12048 5.47727)
       2.1662             (0.729732 1.11568 5.49486)
       2.1663             (0.728864 1.10954 5.5134)
       2.1664             (0.728472 1.10224 5.5327)
       2.1665             (0.728507 1.09392 5.5524)
       2.1666             (0.728902 1.08485 5.57228)
       2.1667             (0.729678 1.07518 5.59211)
       2.1668             (0.730705 1.06516 5.61194)
       2.1669             (0.731891 1.05486 5.63114)
        2.167             (0.73309 1.04445 5.64988)
       2.1671             (0.733971 1.03612 5.66632)
       2.1672             (0.734502 1.03015 5.6809)
       2.1673             (0.734807 1.02652 5.69403)
       2.1674             (0.734957 1.02507 5.70605)
       2.1675             (0.735022 1.02565 5.71722)
       2.1676             (0.735042 1.02806 5.72774)
       2.1677             (0.735044 1.03215 5.73776)
       2.1678             (0.735044 1.03783 5.7474)
       2.1679             (0.735056 1.04513 5.75674)
        2.168             (0.735034 1.05398 5.76581)
       2.1681             (0.734866 1.06269 5.7769)
       2.1682             (0.73462 1.07052 5.78962)
       2.1683             (0.734328 1.0772 5.80368)
       2.1684             (0.734026 1.08267 5.81887)
       2.1685             (0.73371 1.08696 5.83491)
       2.1686             (0.73338 1.0902 5.85161)
       2.1687             (0.733053 1.09252 5.8688)
       2.1688             (0.73272 1.09408 5.88636)
       2.1689             (0.732352 1.09496 5.90414)
        2.169             (0.731972 1.09525 5.92209)
       2.1691             (0.731432 1.09476 5.93953)
       2.1692             (0.730649 1.09336 5.95687)
       2.1693             (0.729699 1.09141 5.97415)
       2.1694             (0.728637 1.08907 5.99128)
       2.1695             (0.727483 1.08633 6.00803)
       2.1696             (0.726255 1.08325 6.02445)
       2.1697             (0.724983 1.07992 6.04047)
       2.1698             (0.723683 1.0764 6.05604)
       2.1699             (0.722344 1.07278 6.07115)
         2.17             (0.720972 1.06913 6.08585)
       2.1701             (0.719806 1.06628 6.10086)
       2.1702             (0.718661 1.06418 6.11572)
       2.1703             (0.717554 1.06261 6.13055)
       2.1704             (0.71646 1.06168 6.14539)
       2.1705             (0.71541 1.06124 6.16033)
       2.1706             (0.714402 1.06115 6.1754)
       2.1707             (0.713432 1.06135 6.19062)
       2.1708             (0.712482 1.06177 6.20598)
       2.1709             (0.711553 1.06236 6.2215)
        2.171             (0.710615 1.0631 6.23717)
       2.1711             (0.709332 1.0638 6.25227)
       2.1712             (0.70781 1.06442 6.26712)
       2.1713             (0.706136 1.065 6.28191)
       2.1714             (0.704342 1.06557 6.29663)
       2.1715             (0.702429 1.0661 6.31106)
       2.1716             (0.700424 1.06663 6.32526)
       2.1717             (0.698394 1.06712 6.33924)
       2.1718             (0.696311 1.06756 6.35296)
       2.1719             (0.694188 1.06798 6.36641)
        2.172             (0.692029 1.06837 6.37963)
       2.1721             (0.690323 1.06875 6.39293)
       2.1722             (0.688772 1.06899 6.4061)
       2.1723             (0.687348 1.06908 6.41911)
       2.1724             (0.686028 1.06889 6.43205)
       2.1725             (0.684782 1.06851 6.44488)
       2.1726             (0.6836 1.06791 6.45759)
       2.1727             (0.682476 1.06715 6.47017)
       2.1728             (0.681391 1.06624 6.48264)
       2.1729             (0.68036 1.06542 6.49496)
        2.173             (0.679405 1.06456 6.5073)
       2.1731             (0.678165 1.06354 6.51922)
       2.1732             (0.676746 1.06223 6.53074)
       2.1733             (0.675197 1.06068 6.54195)
       2.1734             (0.673505 1.05888 6.55293)
       2.1735             (0.671735 1.05684 6.56372)
       2.1736             (0.669849 1.05459 6.57434)
       2.1737             (0.667925 1.05214 6.58477)
       2.1738             (0.665925 1.04949 6.59502)
       2.1739             (0.663888 1.04665 6.60504)
        2.174             (0.661753 1.04363 6.61481)
       2.1741             (0.659901 1.04007 6.62554)
       2.1742             (0.658138 1.03577 6.63711)
       2.1743             (0.656478 1.0308 6.64996)
       2.1744             (0.654786 1.02523 6.66428)
       2.1745             (0.653077 1.01917 6.68022)
       2.1746             (0.651326 1.0126 6.69684)
       2.1747             (0.649732 1.00597 6.71303)
       2.1748             (0.648101 0.999025 6.72876)
       2.1749             (0.646646 0.992234 6.74418)
        2.175             (0.645114 0.98547 6.7592)
       2.1751             (0.643726 0.979831 6.77205)
       2.1752             (0.642344 0.974721 6.78326)
       2.1753             (0.641074 0.970283 6.79325)
       2.1754             (0.639856 0.966345 6.80212)
       2.1755             (0.638749 0.962949 6.81012)
       2.1756             (0.637671 0.959926 6.81731)
       2.1757             (0.636641 0.957569 6.82391)
       2.1758             (0.635636 0.955797 6.82997)
       2.1759             (0.634686 0.954659 6.83571)
        2.176             (0.633772 0.954042 6.84106)
       2.1761             (0.632863 0.953557 6.84733)
       2.1762             (0.631849 0.952878 6.85442)
       2.1763             (0.630946 0.952039 6.86197)
       2.1764             (0.630054 0.950949 6.87)
       2.1765             (0.629184 0.949628 6.87838)
       2.1766             (0.628322 0.948061 6.88687)
       2.1767             (0.627549 0.946356 6.89533)
       2.1768             (0.626722 0.944467 6.90366)
       2.1769             (0.625792 0.942424 6.9118)
        2.177             (0.624837 0.940258 6.91961)
       2.1771             (0.624203 0.938589 6.92645)
       2.1772             (0.623729 0.937257 6.93258)
       2.1773             (0.623258 0.936293 6.93825)
       2.1774             (0.622761 0.935746 6.9442)
       2.1775             (0.622197 0.93567 6.95064)
       2.1776             (0.621547 0.936006 6.95765)
       2.1777             (0.620801 0.936687 6.96526)
       2.1778             (0.61996 0.937493 6.97402)
       2.1779             (0.618997 0.938398 6.98381)
        2.178             (0.617904 0.939369 6.99463)
       2.1781             (0.616694 0.941368 7.00737)
       2.1782             (0.615636 0.944603 7.02042)
       2.1783             (0.614734 0.949092 7.03362)
       2.1784             (0.614021 0.954752 7.04642)
       2.1785             (0.613537 0.961282 7.05866)
       2.1786             (0.613282 0.968443 7.07008)
       2.1787             (0.61324 0.975972 7.08061)
       2.1788             (0.61343 0.983822 7.09015)
       2.1789             (0.613824 0.991884 7.09834)
        2.179             (0.614587 1.00003 7.10551)
       2.1791             (0.614106 1.00782 7.11095)
       2.1792             (0.611913 1.01492 7.11532)
       2.1793             (0.60787 1.02131 7.11873)
       2.1794             (0.602237 1.02706 7.1214)
       2.1795             (0.595234 1.03222 7.12341)
       2.1796             (0.5872 1.03676 7.12483)
       2.1797             (0.578331 1.04074 7.12541)
       2.1798             (0.568846 1.04411 7.1249)
       2.1799             (0.558968 1.04688 7.12316)
         2.18             (0.548934 1.04913 7.12028)
       2.1801             (0.539402 1.05146 7.11496)
       2.1802             (0.531107 1.05397 7.10828)
       2.1803             (0.524185 1.05674 7.10068)
       2.1804             (0.51865 1.0598 7.09243)
       2.1805             (0.514477 1.0631 7.08381)
       2.1806             (0.511523 1.06666 7.07493)
       2.1807             (0.509668 1.07042 7.06591)
       2.1808             (0.508794 1.07436 7.05678)
       2.1809             (0.508773 1.07848 7.04753)
        2.181             (0.509532 1.08268 7.03823)
       2.1811             (0.51095 1.08806 7.02868)
       2.1812             (0.512651 1.09441 7.01912)
       2.1813             (0.514388 1.10171 7.00955)
       2.1814             (0.516088 1.10994 6.99995)
       2.1815             (0.517586 1.11905 6.99029)
       2.1816             (0.518899 1.12901 6.98054)
       2.1817             (0.520038 1.1396 6.97076)
       2.1818             (0.521025 1.15089 6.96058)
       2.1819             (0.5219 1.16269 6.95015)
        2.182             (0.522647 1.17509 6.93948)
       2.1821             (0.523613 1.1871 6.92826)
       2.1822             (0.524909 1.1983 6.91702)
       2.1823             (0.526508 1.20859 6.90604)
       2.1824             (0.528423 1.218 6.89527)
       2.1825             (0.530652 1.22653 6.88508)
       2.1826             (0.53313 1.23427 6.87508)
       2.1827             (0.535838 1.2413 6.86529)
       2.1828             (0.538747 1.24768 6.85554)
       2.1829             (0.541884 1.25349 6.84586)
        2.183             (0.545266 1.25882 6.83655)
       2.1831             (0.548275 1.26395 6.82746)
       2.1832             (0.551349 1.26896 6.81756)
       2.1833             (0.553966 1.27385 6.80734)
       2.1834             (0.556046 1.27873 6.79679)
       2.1835             (0.557612 1.28366 6.78588)
       2.1836             (0.558708 1.28867 6.77469)
       2.1837             (0.559321 1.29326 6.76356)
       2.1838             (0.559515 1.29746 6.75266)
       2.1839             (0.559382 1.30134 6.7419)
        2.184             (0.558922 1.30497 6.73137)
       2.1841             (0.557886 1.30799 6.71942)
       2.1842             (0.556628 1.31115 6.70614)
       2.1843             (0.555312 1.31443 6.69183)
       2.1844             (0.554014 1.31779 6.67641)
       2.1845             (0.552376 1.32111 6.66015)
       2.1846             (0.549155 1.32455 6.64339)
       2.1847             (0.5468 1.32815 6.62576)
       2.1848             (0.545033 1.33193 6.60748)
       2.1849             (0.543608 1.33594 6.58859)
        2.185             (0.542555 1.34003 6.56919)
       2.1851             (0.541667 1.34442 6.5483)
       2.1852             (0.54097 1.34912 6.52632)
       2.1853             (0.540315 1.3542 6.50351)
       2.1854             (0.53976 1.35957 6.48007)
       2.1855             (0.539221 1.36525 6.45612)
       2.1856             (0.538738 1.37118 6.43181)
       2.1857             (0.538227 1.3774 6.40711)
       2.1858             (0.53771 1.38382 6.38216)
       2.1859             (0.53716 1.39046 6.35705)
        2.186             (0.536613 1.3972 6.33175)
       2.1861             (0.536002 1.40344 6.30626)
       2.1862             (0.535442 1.40901 6.28151)
       2.1863             (0.534855 1.41403 6.25748)
       2.1864             (0.534283 1.41856 6.23396)
       2.1865             (0.533621 1.42283 6.21085)
       2.1866             (0.533007 1.42682 6.18807)
       2.1867             (0.532335 1.4307 6.16555)
       2.1868             (0.531761 1.4344 6.14325)
       2.1869             (0.531138 1.43808 6.12124)
        2.187             (0.530584 1.44167 6.09937)
       2.1871             (0.530255 1.44452 6.07689)
       2.1872             (0.530309 1.44669 6.05424)
       2.1873             (0.530714 1.44827 6.03145)
       2.1874             (0.531457 1.44931 6.00862)
       2.1875             (0.532504 1.44988 5.98569)
       2.1876             (0.533842 1.45008 5.96273)
       2.1877             (0.535451 1.44994 5.93964)
       2.1878             (0.537329 1.44953 5.91643)
       2.1879             (0.539422 1.44889 5.89309)
        2.188             (0.541588 1.44804 5.86957)
       2.1881             (0.542901 1.44615 5.84512)
       2.1882             (0.543503 1.44362 5.82002)
       2.1883             (0.54386 1.44061 5.79475)
       2.1884             (0.54395 1.43709 5.76964)
       2.1885             (0.543651 1.43321 5.74473)
       2.1886             (0.542868 1.42906 5.72016)
       2.1887             (0.541657 1.42497 5.69574)
       2.1888             (0.540068 1.42096 5.67159)
       2.1889             (0.538113 1.41705 5.64757)
        2.189             (0.535807 1.41318 5.62358)
       2.1891             (0.534208 1.4094 5.60094)
       2.1892             (0.533184 1.40588 5.57965)
       2.1893             (0.532591 1.40256 5.55938)
       2.1894             (0.532316 1.39941 5.53989)
       2.1895             (0.532246 1.39636 5.52093)
       2.1896             (0.532299 1.39338 5.50233)
       2.1897             (0.53242 1.39044 5.48398)
       2.1898             (0.532591 1.38747 5.46579)
       2.1899             (0.532921 1.3841 5.44787)
         2.19             (0.533203 1.38086 5.4297)
       2.1901             (0.531861 1.3762 5.41008)
       2.1902             (0.528686 1.36979 5.3899)
       2.1903             (0.523968 1.36169 5.36946)
       2.1904             (0.517897 1.35209 5.34881)
       2.1905             (0.510621 1.34133 5.32805)
       2.1906             (0.502315 1.32964 5.30714)
       2.1907             (0.493484 1.31558 5.28665)
       2.1908             (0.485048 1.30366 5.26588)
       2.1909             (0.46295 1.29355 5.24677)
        2.191             (0.438479 1.28419 5.22569)
       2.1911             (0.415634 1.2751 5.20111)
       2.1912             (0.395394 1.26607 5.17514)
       2.1913             (0.37739 1.25729 5.14818)
       2.1914             (0.361403 1.24878 5.12049)
       2.1915             (0.347116 1.24062 5.09209)
       2.1916             (0.334788 1.23288 5.06043)
       2.1917             (0.324485 1.22663 5.02874)
       2.1918             (0.315597 1.22106 4.99703)
       2.1919             (0.307351 1.21536 4.96564)
        2.192             (0.299729 1.20953 4.93445)
       2.1921             (0.292413 1.20346 4.90462)
       2.1922             (0.285398 1.19709 4.87593)
       2.1923             (0.278591 1.19033 4.84831)
       2.1924             (0.272168 1.18324 4.82163)
       2.1925             (0.265909 1.17589 4.7958)
       2.1926             (0.260151 1.16813 4.77007)
       2.1927             (0.254246 1.1601 4.74509)
       2.1928             (0.248236 1.15139 4.72109)
       2.1929             (0.241994 1.14228 4.69793)
        2.193             (0.235707 1.13295 4.67542)
       2.1931             (0.229918 1.12414 4.6532)
       2.1932             (0.224362 1.11526 4.63114)
       2.1933             (0.218885 1.10629 4.60826)
       2.1934             (0.21379 1.09761 4.58416)
       2.1935             (0.208966 1.08955 4.55952)
       2.1936             (0.204396 1.08173 4.53475)
       2.1937             (0.199789 1.0739 4.51002)
       2.1938             (0.195219 1.06583 4.48535)
       2.1939             (0.190534 1.05759 4.46078)
        2.194             (0.185896 1.04908 4.43624)
       2.1941             (0.180745 1.04018 4.41236)
       2.1942             (0.175492 1.03112 4.38898)
       2.1943             (0.170052 1.02206 4.36615)
       2.1944             (0.164631 1.0129 4.3437)
       2.1945             (0.159116 1.0037 4.32164)
       2.1946             (0.153656 0.994379 4.29983)
       2.1947             (0.14816 0.985089 4.27836)
       2.1948             (0.14285 0.975208 4.25709)
       2.1949             (0.137491 0.96549 4.23616)
        2.195             (0.132222 0.954687 4.21519)
       2.1951             (0.127006 0.944496 4.19566)
       2.1952             (0.121997 0.936812 4.17769)
       2.1953             (0.116949 0.931368 4.16103)
       2.1954             (0.112003 0.927488 4.14549)
       2.1955             (0.10702 0.924936 4.13071)
       2.1956             (0.102191 0.923085 4.11632)
       2.1957             (0.0973197 0.921799 4.10222)
       2.1958             (0.092571 0.92065 4.08823)
       2.1959             (0.0878007 0.919651 4.07435)
        2.196             (0.0832689 0.918715 4.06011)
       2.1961             (0.0790417 0.914616 4.04373)
       2.1962             (0.0751692 0.907454 4.02577)
       2.1963             (0.0714317 0.897702 4.00663)
       2.1964             (0.0679489 0.885682 3.98651)
       2.1965             (0.0646401 0.872035 3.96529)
       2.1966             (0.0615658 0.85684 3.94306)
       2.1967             (0.0586116 0.840418 3.92008)
       2.1968             (0.0558474 0.822853 3.89647)
       2.1969             (0.0531625 0.80396 3.87229)
        2.197             (0.0506277 0.784132 3.84758)
       2.1971             (0.0481823 0.766131 3.826)
       2.1972             (0.046879 0.749868 3.80774)
       2.1973             (0.0462375 0.734956 3.79178)
       2.1974             (0.0460121 0.721081 3.77751)
       2.1975             (0.0460002 0.708209 3.76445)
       2.1976             (0.0461716 0.696055 3.75215)
       2.1977             (0.0463847 0.684745 3.74046)
       2.1978             (0.0466137 0.674293 3.72927)
       2.1979             (0.0468659 0.664496 3.71842)
        2.198             (0.0471791 0.654956 3.70781)
       2.1981             (0.0478387 0.645792 3.6972)
       2.1982             (0.0486642 0.637319 3.68652)
       2.1983             (0.0495748 0.629509 3.67571)
       2.1984             (0.0505408 0.62222 3.6647)
       2.1985             (0.0515166 0.615273 3.65349)
       2.1986             (0.0525701 0.608867 3.64211)
       2.1987             (0.0536383 0.602864 3.63054)
       2.1988             (0.0547816 0.597245 3.61876)
       2.1989             (0.0559181 0.591966 3.60688)
        2.199             (0.0571354 0.586999 3.59492)
       2.1991             (0.0579728 0.582067 3.58292)
       2.1992             (0.0584638 0.576953 3.57106)
       2.1993             (0.0587694 0.571778 3.5593)
       2.1994             (0.0588789 0.566692 3.54768)
       2.1995             (0.0587934 0.561662 3.53618)
       2.1996             (0.0585291 0.556687 3.52479)
       2.1997             (0.0580892 0.551729 3.51348)
       2.1998             (0.057498 0.546799 3.50218)
       2.1999             (0.0566955 0.541928 3.49082)
          2.2             (0.0557485 0.537088 3.47948)
       2.2001             (0.0552154 0.531924 3.46843)
       2.2002             (0.055075 0.526477 3.45756)
       2.2003             (0.0550596 0.520776 3.44656)
       2.2004             (0.0552456 0.514817 3.43554)
       2.2005             (0.0557029 0.508603 3.42458)
       2.2006             (0.0564199 0.50219 3.41373)
       2.2007             (0.0573628 0.495638 3.40296)
       2.2008             (0.0584914 0.488887 3.39224)
       2.2009             (0.0597561 0.481912 3.38152)
        2.201             (0.0611297 0.474696 3.37074)
       2.2011             (0.0609894 0.462141 3.33527)
       2.2012             (0.0607864 0.446931 3.28359)
       2.2013             (0.0611562 0.430637 3.22156)
       2.2014             (0.0621874 0.414027 3.15328)
       2.2015             (0.0637488 0.397472 3.08161)
       2.2016             (0.0656274 0.381197 3.00849)
       2.2017             (0.0662996 0.364158 2.93248)
       2.2018             (0.0653021 0.346025 2.85367)
       2.2019             (0.0631378 0.32736 2.77392)
        2.202             (0.0601933 0.308689 2.69455)
       2.2021             (0.0591885 0.295725 2.64251)
       2.2022             (0.0594269 0.286601 2.60974)
       2.2023             (0.0605081 0.280156 2.5908)
       2.2024             (0.0621709 0.275615 2.58188)
       2.2025             (0.0643764 0.272747 2.58031)
       2.2026             (0.0670857 0.271255 2.58414)
       2.2027             (0.0701483 0.270714 2.59204)
       2.2028             (0.0734634 0.27085 2.60309)
       2.2029             (0.0768742 0.271225 2.61676)
        2.203             (0.0803442 0.271698 2.63265)
       2.2031             (0.0827217 0.270404 2.64186)
       2.2032             (0.0843708 0.267868 2.64613)
       2.2033             (0.0854823 0.264436 2.64674)
       2.2034             (0.0861867 0.260386 2.64466)
       2.2035             (0.0866168 0.255864 2.64055)
       2.2036             (0.086882 0.251077 2.63388)
       2.2037             (0.0870155 0.245997 2.62631)
       2.2038             (0.0870404 0.240743 2.61806)
       2.2039             (0.0869858 0.235354 2.60927)
        2.204             (0.0868895 0.229865 2.60006)
       2.2041             (0.0868131 0.224374 2.59103)
       2.2042             (0.0867253 0.218863 2.58221)
       2.2043             (0.0866191 0.213376 2.57354)
       2.2044             (0.0865256 0.207918 2.56501)
       2.2045             (0.0864369 0.202503 2.55658)
       2.2046             (0.086357 0.197131 2.54823)
       2.2047             (0.0863246 0.191823 2.53995)
       2.2048             (0.0863069 0.186595 2.53166)
       2.2049             (0.0863017 0.181412 2.52341)
        2.205             (0.0862588 0.176311 2.51514)
       2.2051             (0.0864188 0.171324 2.50803)
       2.2052             (0.0866828 0.166403 2.5017)
       2.2053             (0.0870487 0.16148 2.49599)
       2.2054             (0.0874675 0.156561 2.49067)
       2.2055             (0.0879306 0.151632 2.48569)
       2.2056             (0.0884053 0.146681 2.48089)
       2.2057             (0.0888783 0.141697 2.47636)
       2.2058             (0.0893791 0.136698 2.47187)
       2.2059             (0.0899413 0.13169 2.46736)
        2.206             (0.0904372 0.126674 2.46281)
       2.2061             (0.0910326 0.12209 2.45794)
       2.2062             (0.0916772 0.117869 2.45268)