/*--------------------------------*- C++ -*----------------------------------*\
| =========                 |                                                 |
| \\      /  F ield         | OpenFOAM: The Open Source CFD Toolbox           |
|  \\    /   O peration     | Version:  5.x                                   |
|   \\  /    A nd           | Web:      www.OpenFOAM.org                      |
|    \\/     M anipulation  |                                                 |
\*---------------------------------------------------------------------------*/
FoamFile
{
    version     2.0;
    format      ascii;
    class       volScalarField;
    location    "3.1";
    object      p;
}
// * * * * * * * * * * * * * * * * * * * * * * * * * * * * * * * * * * * * * //

dimensions      [0 2 -2 0 0 0 0];

internalField   nonuniform List<scalar> 
10571
(
221.789
282.539
230.008
209.844
211.698
262.014
198.016
201.701
197.08
237.337
275.612
246.657
205.541
195.017
179.772
206.892
195.078
208.096
202.057
209.733
232.796
201.373
229.719
240.661
128.996
103.232
124.741
180.881
118.604
127.405
161.781
161.816
121.673
107.273
129.656
131.288
168.939
148.744
130.651
98.5393
97.2284
101.284
131.107
129.766
91.7275
108.418
117.803
129.862
52.2984
50.4303
43.9982
97.0896
74.1061
71.5817
68.9898
68.0167
67.4626
68.562
79.8914
60.3554
57.9784
45.8642
56.0053
60.9569
75.8637
60.0545
58.5702
62.3428
59.2652
80.5479
77.0834
71.3057
38.7229
41.3941
38.4874
36.8744
38.6006
41.8211
36.16
36.902
39.0324
46.4569
47.5575
45.6032
43.6892
44.2722
38.0529
48.1859
56.0083
51.3427
40.3745
39.7822
46.8143
56.07
42.6666
37.8548
37.0462
37.5796
36.9541
37.4858
37.3902
37.549
36.9287
38.4273
39.5649
40.4095
41.6336
41.8536
37.7281
42.4193
40.7822
41.8673
39.7185
40.8205
36.0331
37.3457
38.7089
38.7295
34.6969
37.092
35.8757
36.1685
35.8396
36.2922
35.8532
36.9312
35.6707
35.1899
35.8109
36.2521
34.8477
38.5206
39.4475
32.5681
34.5618
35.3965
37.1573
35.4482
37.1353
31.3835
33.1437
33.7219
33.8836
31.9637
33.9707
35.1016
34.8801
34.5699
34.5884
35.0677
34.6259
33.4871
33.2556
32.3985
32.2845
32.9951
33.1288
33.1282
31.8485
33.1488
32.3282
32.0884
32.8669
33.0736
32.591
33.1469
32.8657
33.0655
33.1992
33.0516
32.718
33.1868
33.7447
34.1688
33.484
33.8186
34.2056
34.0397
32.8894
32.623
33.1387
33.1265
33.1267
33.159
32.6945
32.6779
33.1263
33.1513
33.1848
33.1002
33.1207
32.6434
33.2263
33.1442
33.2193
33.3799
33.129
33.0685
33.1539
33.3119
33.6476
33.1073
33.344
33.6279
33.596
32.8741
33.0057
33.3262
33.2752
33.1094
33.2106
32.7292
32.6041
33.0078
33.1915
33.2368
33.0288
33.1418
32.7403
33.0304
33.1279
33.1779
33.2997
33.1491
33.1948
33.2551
33.3311
33.1698
33.011
33.2123
33.3277
32.9452
33.0973
33.1508
33.1317
32.9061
32.8216
32.8031
32.9606
33.05
33.0194
33.0168
32.8963
32.9865
33.0421
33.0635
33.0147
33.1506
33.1254
33.1617
33.0571
33.0248
33.3449
33.0916
33.0106
32.9805
33.0465
33.0623
33.0311
32.9294
32.9544
32.9762
32.9675
33.0198
32.9315
32.915
32.9805
32.9941
32.9943
33.0212
33.0478
33.1363
33.0635
33.0769
32.9238
32.7467
32.9851
32.9724
32.8104
32.9776
33.0338
33.0418
32.9797
32.9586
33.03
32.9829
32.9553
32.9998
32.9633
32.9833
33.0161
33.0064
32.9656
33.0121
33.0153
33.128
33.0459
33.0512
32.7699
32.8529
32.4781
32.8244
32.5531
32.994
33.044
33.0023
32.9579
32.9427
33.0724
33.057
32.9369
32.9603
32.9543
32.9691
33.0248
33.0109
32.9344
32.9745
32.9786
33.1082
33.0578
32.9998
32.7586
32.947
32.8755
32.7334
32.6892
33.0297
33.0354
32.9565
32.9267
32.9108
33.0556
33.0758
32.9287
32.9117
32.9116
32.9273
33.016
32.9949
32.9055
32.9005
32.9258
33.077
33.071
32.9593
32.8522
32.9661
32.8561
32.8638
32.8219
32.9898
32.9717
32.8951
32.8778
32.8768
33.0041
32.9879
32.899
32.8614
32.8792
32.8805
32.9748
32.9663
32.874
32.8439
32.8766
33.0698
33.0433
32.9668
32.8752
32.9315
32.8469
32.8404
32.8254
32.9227
32.8714
32.8341
32.8235
32.8319
32.9277
32.8957
32.8475
32.8022
32.8417
32.8355
32.8881
32.8867
32.8152
32.8288
32.8388
33.0124
33.0134
32.9827
32.821
32.8578
32.8191
32.7879
32.8103
32.8177
32.7889
32.7672
32.7645
32.7732
32.8464
32.8112
32.7725
32.7516
32.7912
32.7982
32.7567
32.7853
32.7869
32.8192
32.8183
32.891
32.9333
32.9478
32.7895
32.7508
32.7416
32.734
32.77
32.709
32.7256
32.676
32.7073
32.7128
32.771
32.7237
32.686
32.7061
32.7539
32.7596
32.6032
32.6934
32.7691
32.7965
32.7946
32.7759
32.8558
32.958
32.7141
32.6557
32.6652
32.6536
32.7073
32.6257
32.6742
32.5918
32.666
32.6588
32.6981
32.6381
32.5977
32.6598
32.7313
32.7287
32.4888
32.6153
32.7314
32.7748
32.7681
32.6814
32.7552
32.7769
32.6398
32.5895
32.6058
32.5836
32.655
32.5619
32.6179
32.555
32.6236
32.6333
32.6239
32.5656
32.5137
32.6214
32.7077
32.7097
32.389
32.5581
32.6913
32.7402
32.7513
32.6111
32.6855
32.6559
32.6084
32.5339
32.5676
32.5523
32.6195
32.489
32.5318
32.5039
32.5938
32.6218
32.5464
32.4935
32.4297
32.5854
32.6824
32.693
32.3269
32.5012
32.6799
32.7343
32.7341
32.5689
32.6652
32.7304
32.5916
32.5208
32.5504
32.5345
32.5891
32.4428
32.4238
32.4495
32.5507
32.5415
32.4813
32.4225
32.3563
32.5561
32.675
32.6621
32.3137
32.4526
32.6755
32.7577
32.7293
32.5565
32.6598
32.7807
32.6131
32.5521
32.5807
32.5545
32.5863
32.4258
32.337
32.433
32.5151
32.5069
32.4595
32.3856
32.3031
32.5409
32.653
32.653
32.3631
32.4302
32.651
32.7252
32.7238
32.5771
32.6573
32.7524
32.6892
32.662
32.664
32.6233
32.628
32.5067
32.3033
32.477
32.5126
32.5947
32.5286
32.4354
32.2778
32.5595
32.6651
32.7034
32.4899
32.4701
32.6679
32.7154
32.7299
32.6391
32.6851
32.7459
32.7943
32.8529
32.8259
32.749
32.7014
32.6358
32.345
32.5712
32.543
32.7799
32.6458
32.5301
32.3255
32.6019
32.7098
32.794
32.64
32.5812
32.7228
32.7401
32.7693
32.7375
32.7404
32.7725
32.993
33.1417
33.0097
32.9032
32.786
32.867
32.4791
32.6944
32.6731
32.9867
32.8608
32.7288
32.4959
32.6723
32.772
32.8631
32.8419
32.7644
32.8041
32.7926
32.826
32.8593
32.8167
32.8316
33.1005
33.1997
33.1299
33.0715
32.8516
33.025
32.7187
32.8506
32.7456
32.9973
33.0227
32.9179
32.7329
32.7573
32.826
32.8793
33.0142
32.9414
32.8943
32.8539
32.883
32.9665
32.8956
32.9047
33.046
33.101
33.0464
33.0489
32.8692
33.0234
32.8874
33.0059
32.7625
32.9184
33.0274
32.9904
32.9274
32.8572
32.8781
32.8963
33.1072
33.0628
32.9721
32.9143
32.9422
33.0442
32.9671
32.9754
32.9706
32.9885
32.9063
32.9672
32.8936
32.9791
32.915
33.1022
32.8114
32.9195
33.0109
32.9788
33.0624
32.9419
32.9423
32.9305
33.0958
33.1004
33.0174
32.9631
32.9966
33.0841
33.019
33.0337
32.9129
32.9024
32.8035
32.8859
32.9373
32.9516
32.955
33.0838
32.8782
32.962
33.0266
32.9894
33.0785
32.9894
32.9949
32.968
33.0823
33.1059
33.0315
32.9925
33.0339
33.0951
33.047
33.0729
32.8494
32.8579
32.7339
32.7827
32.981
32.9323
33.0384
33.0306
32.9559
33.0081
33.1201
33.0429
33.1308
33.0161
33.0139
32.9856
33.078
33.1158
33.0219
32.9891
33.0365
33.092
33.0446
33.0708
32.8509
32.8874
32.8232
32.8374
33.0147
32.9137
33.082
32.9773
32.9905
33.0359
33.1197
33.0266
33.1837
33.0352
33.0037
33.0182
33.0767
33.0916
32.9815
32.9636
33.0177
33.0785
33.0119
33.0216
32.948
32.9677
32.9874
32.9768
33.0211
32.948
33.0977
32.9619
32.9937
33.0208
33.0296
32.9992
33.1223
33.0115
33.019
33.0635
33.0585
33.0639
32.9449
32.9437
33.008
33.0616
32.9687
32.9728
33.0249
33.0103
33.0551
32.9745
32.988
32.976
33.0568
32.9581
32.9715
33.0162
33.0088
32.9982
33.0658
32.955
32.9872
33.0071
33.0492
33.0516
32.9416
32.948
32.9852
33.0536
32.9399
32.9542
33.0078
33
33.0156
32.9705
32.9507
32.9771
33.0011
32.9553
32.9443
33.0057
33.0038
32.9921
33.0244
32.9294
32.9462
32.9143
33.0416
33.0407
32.9412
32.9517
32.9672
33.0536
32.9445
32.9599
32.9421
32.9748
32.9395
32.9301
32.9051
32.9561
32.9504
32.958
32.8922
32.9442
32.9966
32.9811
33.0004
32.9221
32.9626
32.8845
33.0291
33.026
32.9393
32.9779
32.9858
33.057
32.9826
33.023
32.8556
32.9358
32.8685
32.7939
32.8523
32.9263
32.9087
32.9305
32.8742
32.8971
32.9878
32.9652
32.9858
32.9582
33.0261
32.9893
33.0013
32.9904
32.9808
33.0431
33.0801
33.0226
33.0044
33.0653
32.7984
32.8996
32.8084
32.6992
32.8615
32.9069
32.8952
32.9049
32.9067
32.8643
32.983
32.9691
32.9802
32.9758
33.0305
33.0056
32.977
32.9545
32.9854
33.043
33.1092
32.9965
32.9719
33.0551
32.8195
32.8873
32.7859
32.7276
32.9492
32.9123
32.8992
32.9294
32.97
32.9239
32.9811
32.9809
32.9883
32.9923
33.0385
33.0121
32.975
32.9409
32.9849
33.0136
33.0633
32.978
32.9742
33.0205
32.9309
32.922
32.817
32.8845
33.0798
32.9371
32.9207
33.0079
33.0536
33.0056
32.9866
32.997
33.01
33.0242
33.0735
33.0292
32.9965
32.9449
32.9929
33.0184
33.0475
32.9716
33.0078
33.0187
33.0505
32.9691
32.9018
33.0647
33.148
32.9553
32.9481
33.0774
33.1187
33.0788
32.9969
32.9957
33.0209
33.0466
33.0827
33.0612
32.9919
32.9609
32.9962
33.0384
33.054
32.9758
33.0247
33.0275
33.1097
32.9853
32.9518
33.1274
33.1761
32.961
32.9615
33.0798
33.1485
33.1112
33.0062
33.0083
33.0309
33.0513
33.0638
33.089
32.9836
32.9671
32.9937
33.0463
33.0624
32.9815
33.0219
33.033
33.1118
32.9534
32.9495
33.0967
33.1464
32.9206
32.9509
33.0503
33.131
33.1102
33.0207
33.0267
33.0297
33.0387
33.0379
33.1012
32.9939
32.9711
32.9951
33.05
33.0655
33.0091
33.0297
33.0397
33.0895
32.9244
32.9408
33.0298
33.1296
32.8742
32.9212
33.0109
33.0993
33.0923
33.0396
33.0227
33.0175
33.015
33.0164
33.0926
33.0212
32.998
33.0098
33.0509
33.0622
33.038
33.037
33.0466
33.0843
32.9764
32.9532
32.9975
33.1089
32.8805
32.882
32.963
33.0669
33.0765
33.0642
33.0377
33.0085
32.9913
33.0021
33.0769
33.0546
33.0265
33.0271
33.0497
33.0571
33.0639
33.0439
33.0554
33.0843
33.0954
33.0195
32.9986
33.0882
32.9761
32.8724
32.9534
33.0529
33.1278
33.0986
33.0707
33.0226
32.9849
32.979
33.0674
33.073
33.0499
33.0426
33.046
33.0538
33.0588
33.0594
33.0712
33.1324
33.2515
33.1117
33.0496
33.0954
33.1247
32.9323
33.0054
33.0209
33.1127
33.1394
33.1355
33.0373
33.0242
32.9973
33.0663
33.1093
33.0864
33.0788
33.0551
33.0634
33.0555
33.0899
33.1023
33.1242
33.3588
33.2262
33.0714
33.1001
33.2327
33.0003
33.0434
33.0155
33.1211
33.1844
33.1932
33.0914
33.1133
33.0679
33.0744
33.195
33.1521
33.1276
33.0906
33.0935
33.1275
33.1421
33.1449
33.2316
33.3664
33.3367
33.1689
33.2251
33.2577
33.1148
33.1062
33.0365
33.099
33.2252
33.2365
33.2022
33.1953
33.158
33.1108
33.2479
33.2094
33.1761
33.1407
33.1385
33.2177
33.1894
33.1845
33.2377
33.3047
33.2878
33.2274
33.256
33.2403
33.2035
33.208
33.094
33.0979
33.2782
33.2625
33.2737
33.2835
33.2284
33.1582
33.2593
33.2469
33.2108
33.1864
33.1792
33.2872
33.2125
33.2064
33.3849
33.2289
33.1386
33.1488
33.1486
33.2057
33.2645
33.264
33.1447
33.1192
33.3307
33.2817
33.2729
33.3067
33.222
33.1877
33.2696
33.259
33.2124
33.2097
33.2042
33.3106
33.2107
33.2154
33.1997
33.2288
33.0822
33.0036
33.1086
33.2492
33.266
33.229
33.1858
33.1639
33.3701
33.3033
33.2601
33.2749
33.2072
33.2013
33.2873
33.2597
33.1825
33.2201
33.2139
33.2973
33.2007
33.2198
33.2261
33.297
33.1923
33.128
33.1733
33.3076
33.2916
33.2565
33.2339
33.2114
33.3738
33.3114
33.2454
33.2509
33.2048
33.2085
33.2977
33.244
33.1833
33.2213
33.2122
33.268
33.2085
33.2347
33.2894
33.3488
33.3005
33.2665
33.2346
33.327
33.3476
33.3032
33.2526
33.2305
33.3533
33.2928
33.2394
33.232
33.1985
33.2094
33.303
33.227
33.1973
33.2161
33.2018
33.2528
33.2301
33.2342
33.301
33.3492
33.3237
33.2949
33.2463
33.3293
33.3291
33.2773
33.2284
33.217
33.3582
33.2978
33.2404
33.2079
33.1759
33.1951
33.3156
33.2112
33.1926
33.1938
33.1816
33.2494
33.2394
33.2178
33.2968
33.3468
33.3265
33.2897
33.2314
33.3536
33.3145
33.2464
33.1794
33.1774
33.3963
33.3311
33.2343
33.1747
33.1279
33.1457
33.3342
33.2152
33.1696
33.1625
33.14
33.259
33.2395
33.1873
33.3024
33.3724
33.3421
33.2911
33.2087
33.3839
33.3251
33.2246
33.1074
33.1102
33.4194
33.3586
33.239
33.1364
33.0612
33.0731
33.3529
33.2427
33.1426
33.1116
33.0788
33.2722
33.1997
33.1445
33.3369
33.4155
33.3871
33.3106
33.1851
33.4153
33.351
33.2078
33.0177
33.0016
33.4465
33.3848
33.2577
33.1062
32.9699
32.9591
33.374
33.2619
33.1054
33.0512
32.9925
33.2788
33.1623
33.1068
33.3905
33.5307
33.4706
33.3472
33.1633
33.4775
33.3994
33.185
32.8946
32.8245
33.4932
33.4372
33.3082
33.0835
32.8382
32.7803
33.4208
33.3022
33.0666
32.9608
32.8741
33.3089
33.12
33.0445
33.4887
33.652
33.5942
33.4247
33.1537
33.5628
33.4729
33.1698
32.7003
32.5113
33.5621
33.5209
33.3896
33.068
32.634
32.4344
33.5158
33.4
33.0679
32.8517
32.6897
33.4046
33.1247
33.0081
33.6759
33.798
33.7743
33.5549
33.1593
33.6662
33.5533
33.1458
32.393
31.87
33.6464
33.6248
33.488
33.0147
32.3182
31.5918
33.6862
33.5845
33.1446
32.6958
32.3631
33.5808
33.2292
33.0666
33.9594
33.9495
34.0264
33.7278
33.2024
33.7609
33.6669
33.1011
32.016
30.2765
33.7641
33.7581
33.6183
32.9898
31.8798
29.3468
33.9275
33.8436
33.3019
32.5043
31.6629
33.8833
33.4421
33.2383
34.3579
34.0086
34.1504
33.8998
33.2897
33.8113
33.7588
33.0382
31.5441
25.4376
33.9156
33.9059
33.7536
32.9382
31.405
25.73
-19.8907
34.2489
34.1898
33.4725
32.3863
30.0681
34.3242
33.8199
33.4463
34.4839
33.7844
33.9987
33.9153
33.3439
33.7841
33.8552
33.2128
31.4672
22.1774
0.990433
34.1386
34.0754
34.1019
33.193
31.3995
24.9641
3.72985
34.7393
34.6586
33.7456
32.4092
26.7981
34.8972
34.2836
33.8231
34.6018
33.7544
33.9974
34.0036
33.4775
33.7615
33.9431
33.375
32.0438
25.6898
7.25448
34.4007
34.3246
34.4001
33.5474
31.9475
25.3739
8.62098
35.3261
34.9157
34.0502
32.9459
27.0859
8.15403
35.3778
34.7011
34.3312
34.406
34.416
34.0143
33.8683
33.8872
34.3198
34.1253
33.4426
32.9298
27.4637
8.03226
34.5905
34.5072
34.5079
33.7689
32.9506
27.2563
7.49444
35.3166
34.8305
34.1532
33.445
30.0759
35.234
34.7062
34.7111
33.8469
34.8298
33.6117
33.3797
34.1437
35.1464
34.1732
33.4167
33.6288
31.1939
34.7433
34.8628
34.5659
33.8923
33.7555
30.3628
-8.23032
35.0521
34.4707
34.0141
34.0759
34.1045
34.9931
34.431
34.6532
33.6851
34.8269
33.4078
33.3137
34.2997
35.2355
34.1698
33.5156
33.7853
33.8515
35.3721
35.1879
34.5749
34.2807
34.3175
34.1132
34.9933
34.518
34.2139
34.5631
34.8823
34.8332
34.2954
34.5183
34.2575
34.7396
33.9516
34.0446
34.7779
34.9506
34.2312
33.9678
34.1737
34.427
35.0857
34.9543
34.3982
34.2149
34.2995
34.3804
34.8621
34.4741
34.298
34.4337
34.6244
34.7688
34.4367
34.4146
34.8672
34.6387
34.4062
34.5298
34.9609
34.7122
34.2649
34.1809
34.1557
34.2767
34.8079
34.6749
34.2141
34.0956
33.9179
34.0885
34.675
34.3273
34.1683
34.1611
34.276
34.5935
34.4513
34.3465
34.807
34.566
34.4931
34.5832
34.7802
34.5572
34.2599
34.2335
34.0971
34.0958
34.6136
34.4749
34.1198
34.0283
33.6012
33.8661
34.5402
34.2647
34.108
33.8517
34.0132
34.4663
34.3747
34.2774
34.6823
34.5298
34.5222
34.5658
34.6511
34.4665
34.2779
34.2973
34.1541
34.1086
34.4695
34.3212
34.0875
34.0019
33.7845
33.8817
34.4528
34.2573
34.1317
33.9327
34.0995
34.4683
34.3775
34.2913
34.7157
34.5231
34.5636
34.6236
34.6926
34.4195
34.3234
34.4035
34.3425
34.3511
34.3484
34.2157
34.0556
34.0427
34.048
34.2405
34.3473
34.3265
34.2964
34.1517
34.4228
34.5598
34.5006
34.4705
34.8193
34.5551
34.6256
34.7154
34.8264
34.4101
34.4286
34.5212
34.5738
34.6621
34.1783
34.1105
34.0837
34.193
34.3503
34.6159
34.2926
34.3309
34.3123
34.46
34.7886
34.8053
34.7548
34.819
34.8703
34.5894
34.6719
34.7638
34.8657
34.4309
34.5041
34.598
34.6604
34.7771
34.2399
34.1619
34.1906
34.3006
34.4675
34.7505
34.3972
34.5463
34.4935
34.6395
35.021
35.0796
34.9839
35.0815
301.296
247.252
280.514
248.827
233.465
230.158
227.805
234.447
348.063
327.114
309.636
339.596
281.782
260.516
228.458
241.648
228.014
219.227
221.693
228.59
222.631
236.296
254.084
235.375
274.593
279.981
358.323
337.393
345.24
311.547
255.823
282.534
246.937
224.579
215.867
237.493
208.356
216.649
215.77
204.168
201.099
229.31
266.496
203.456
241.106
299.08
320.596
313.054
325.038
322.837
314.729
274.572
249.74
270.644
242.74
254.776
207.939
238.525
216.814
202.619
205.037
205.219
209.332
196.923
211.073
219.889
244.787
289.057
296.421
275.681
287.776
267.935
240.313
247.045
249.259
249.13
239.636
249.304
252.672
222.567
228.975
251.254
260.778
257.341
273.287
273.14
270.46
275.419
259.433
292.921
310.988
309.502
323.307
318.651
323.162
290.17
261.031
177.049
229.615
243.646
228.859
179.668
174.385
181.168
221.302
221.49
187.114
191.232
186.756
215.76
171.354
300.532
213.87
268.745
291.448
247.149
192.538
178.309
198.721
169.267
216.464
202.041
215.351
159.738
145.745
142.613
122.059
232.146
142.731
301.496
287.842
285.844
214.522
196.529
188.935
233.106
227.854
139.074
149.885
146.084
264.45
254.096
179.946
168.923
161.155
213.838
227.031
145.276
144.432
153.777
219.949
128.409
205.848
161.092
144.153
113.084
134.666
111.114
107.405
234.215
235.57
239.885
174.153
166.695
178.614
178.779
161.995
179.904
118.83
207.379
224.821
130.839
128.991
134.854
236.819
235.414
151.247
163.543
150.31
176.729
83.8535
53.1177
113.383
86.7851
111.397
60.0504
50.7656
66.524
134.606
130.206
73.5296
85.9615
83.4315
121.176
83.2
137.441
86.0282
86.8147
114.673
100.194
64.0684
54.8048
70.5607
66.442
108.994
106.766
96.9702
99.385
95.3103
91.8174
93.0066
104.715
92.9832
147.922
140.059
138.575
106.069
110.659
113.047
105.055
94.8839
90.0797
79.4724
75.2145
127.648
117.691
104.233
103.305
95.6794
98.5841
90.8578
75.4871
74.5641
70.3061
103.515
91.8839
112.072
103.003
101.944
88.0228
91.6985
96.8104
96.9302
88.4344
130.268
119.371
91.7336
69.627
99.1387
87.4795
70.4109
106.195
97.8428
104.903
105.749
96.8704
93.7139
94.3179
126.504
115.607
99.0618
102.971
98.8016
99.5298
46.9793
45.1685
47.322
43.964
47.8228
42.39
42.9338
41.1086
56.7991
57.8271
42.2114
41.6153
43.7161
61.1914
46.4712
56.5755
45.874
47.5821
51.1884
52.5529
45.1527
44.9049
44.7789
48.57
73.0019
84.7892
86.7108
47.8614
54.1956
65.0427
64.299
76.8642
56.3872
74.9222
84.4712
84.3544
53.7231
60.7466
58.5726
63.1303
62.3267
53.2769
53.8767
53.8672
76.9095
75.507
58.0541
56.1613
57.4852
60.4547
59.6203
53.4542
53.0413
52.6035
77.9957
64.0722
61.2799
82.9801
87.3195
65.5502
50.922
69.1337
74.6231
60.4358
72.1393
64.5067
43.9118
50.6793
46.9238
47.8691
51.1132
83.4251
69.7839
78.6052
78.8846
66.4761
66.3431
65.3906
74.6858
78.577
55.8542
45.3449
59.2963
44.2306
42.3195
39.3944
39.4683
40.6845
38.836
38.1765
38.7347
38.0922
37.8783
38.5615
37.9789
37.7627
37.9744
39.9431
38.3004
42.1983
39.9868
41.4812
41.6462
43.315
38.8573
38.9313
39.4943
38.7752
43.2954
38.4692
42.6846
38.0361
38.9182
36.4381
38.513
44.5827
40.7159
44.2221
47.4736
45.6256
40.6112
42.1126
41.3515
47.4572
48.1184
43.0894
43.6923
45.6596
46.2808
47.9955
43.5506
42.7723
43.462
48.15
48.2325
44.4929
45.6226
45.5436
54.0411
46.2442
48.1921
57.7937
59.2233
45.5766
47.6314
47.4516
44.019
43.6542
38.0002
39.3695
38.5217
39.2295
37.4297
37.846
44.2601
58.2982
47.9866
56.099
54.0496
47.1988
44.6926
41.6457
38.0448
43.8381
36.8804
37.4686
36.1386
37.8963
37.6688
36.6315
37.1111
37.436
37.3874
36.3542
36.4656
36.6852
37.2132
37.3696
36.3609
36.5344
36.5524
37.388
36.5644
38.2951
37.0369
37.6292
38.1453
37.4142
36.9124
36.7479
37.0551
36.5175
37.2219
37.9779
38.5676
36.6165
36.5257
37.583
37.5631
39.1935
37.4683
38.6191
39.74
39.4072
37.2838
38.3615
38.1416
41.417
44.0396
38.487
39.5441
41.7187
41.4707
41.5427
40.2821
40.398
40.6477
43.3942
42.8817
39.5651
40.781
39.6671
42.0457
40.0846
47.5365
41.25
40.1106
38.9222
45.244
38.5106
38.3851
36.4707
36.9965
36.8884
35.5555
34.9395
36.0018
36.0042
35.7782
41.6239
36.6984
34.3463
34.0694
33.0552
32.8156
33.9578
36.6274
34.5726
34.4324
35.6724
34.8817
36.1242
35.984
35.3976
35.7635
35.747
35.9721
35.2662
35.2021
35.3399
35.906
35.8812
35.3681
35.3418
35.2452
35.8625
35.2419
36.076
35.1323
35.9631
36.2047
35.6071
35.3817
35.1984
35.3309
34.6543
35.8245
36.2005
35.9986
35.178
35.1054
34.8178
34.7022
35.7342
34.1695
36.2893
37.1773
36.9516
35.2029
35.2488
34.9568
37.5909
36.689
44.1975
33.6322
33.5155
33.262
33.559
33.7517
35.7875
34.0074
33.4428
33.2942
33.3327
33.2886
38.8235
38.9388
35.587
35.0478
35.6249
40.0945
35.4058
35.7915
33.7466
33.2854
32.5646
32.8039
33.8857
34.342
33.5639
33.3163
33.29
33.1142
33.1836
37.6734
34.8817
37.4737
35.7386
33.9338
33.8141
31.9807
33.2161
32.2552
33.9093
34.9802
35.0002
33.161
33.4258
34.2864
34.2642
33.1814
33.0657
32.5625
33.0299
33.3916
32.4371
32.878
33.0389
34.804
34.4178
33.467
34.032
33.8761
34.2776
34.8166
34.3116
34.846
34.7194
34.8438
34.477
34.3275
34.4375
34.8522
34.6834
34.5077
34.4197
34.2516
34.6766
34.2806
33.8548
33.0616
34.5195
34.1525
33.7746
33.8955
33.9911
33.4258
33.2835
34.5552
33.8212
33.8036
34.2444
34.1639
33.5679
33.5283
33.4132
33.0691
33.2715
33.1082
33.1813
33.2316
33.1652
33.1754
33.6207
33.1049
32.9585
32.762
32.7604
32.81
33.0361
32.9479
33.0009
33.1042
33.1518
33.1537
33.1699
33.2336
33.075
33.1334
33.1828
33.1911
33.1743
33.1887
32.6335
32.9853
32.6392
32.6618
32.6831
32.9632
32.8077
32.8521
33.1997
33.1554
33.0185
33.0116
33.1662
33.0485
33.1076
33.1717
33.1668
33.1087
33.1408
33.3426
32.6771
32.6226
32.6352
32.3828
32.6146
32.8115
32.5668
32.2955
33.1802
33.8095
33.7436
33.1315
33.158
33.4622
33.3897
32.9699
33.3302
33.1459
33.1146
33.0957
33.1447
32.5722
32.6677
32.9962
33.0907
32.9487
33.0788
33.1403
33.5357
33.5551
33.1217
33.3151
33.3525
33.4367
33.902
33.6383
34.1789
34.0057
34.1245
33.8712
33.751
33.8373
34.0498
33.9378
33.8746
33.7737
33.717
34.0556
33.7707
32.9458
32.855
33.6337
33.1297
33.1558
33.2138
33.4092
32.9169
33.0041
33.9035
33.4848
33.4867
33.8164
33.6771
33.3361
33.4224
33.2433
33.1153
33.1959
33.1396
33.1572
33.1823
33.1753
33.2011
32.6889
32.7527
32.7611
32.6538
32.7626
32.7597
33.1159
33.0442
33.0796
33.0755
33.1337
33.081
33.1469
33.1977
33.1204
33.165
33.1846
33.2164
33.1456
33.176
32.6895
32.7347
32.7074
32.7051
32.7444
33.0903
33.0073
33.0216
33.0508
33.1291
32.9631
33.0948
33.1513
33.0832
33.1279
33.1511
33.1607
33.1483
33.1746
32.702
32.728
32.7821
32.6252
32.4148
32.6769
32.7747
32.6861
32.5764
33.2174
33.2978
33.2664
33.231
33.2252
33.2566
33.2492
33.2276
33.3607
33.2903
33.1461
33.1813
33.1747
32.8191
32.9472
33.0837
33.1395
33.122
33.0935
33.1587
33.2732
33.265
33.191
33.2803
33.2629
33.2792
33.4444
33.2801
33.6227
33.5402
33.6049
33.4409
33.3536
33.4098
33.5965
33.5501
33.4802
33.4313
33.4075
33.5771
33.422
32.8319
32.8529
33.228
32.8774
32.8131
33.1617
33.1406
32.9434
32.7893
33.4267
33.1987
33.2919
33.4254
33.2152
33.1044
33.1048
33.1546
32.9419
32.6899
32.7949
32.7861
32.7661
32.8422
32.8335
33.2069
33.1136
33.1765
33.0495
33.1875
33.14
33.1439
33.2258
33.1619
33.1953
33.1911
33.2166
33.172
33.1926
32.7263
32.7626
32.7697
32.7584
32.7935
33.1344
33.0528
33.2282
33.046
33.0753
33.0682
33.2338
33.1736
33.1727
33.1776
33.1463
33.1882
33.1913
33.1936
32.7652
32.8223
32.8065
32.7538
32.6878
32.8272
32.8778
32.834
32.7871
33.1982
33.2375
33.2342
33.1182
33.1257
33.2108
33.1996
33.0885
33.0175
33.0614
33.1075
33.1715
33.1546
33.109
33.1637
33.2692
33.252
33.1682
33.2271
33.2185
33.2153
33.2086
33.1652
33.3015
33.2545
33.2668
33.1774
33.2074
33.1959
33.266
33.2681
33.1736
33.1435
33.1662
33.284
33.1714
32.8819
32.8882
33.1382
32.9563
32.8732
33.1267
33.1552
32.9377
32.9382
33.0631
33.0192
32.9199
33.1693
32.9074
32.9425
32.8096
32.8601
32.8713
32.8434
32.8914
32.8816
32.9004
32.9406
32.9253
33.095
33.0409
32.895
33.0018
32.7369
32.7934
32.8409
32.8899
32.8693
32.8937
33.0571
33.0114
32.9367
32.6597
32.9741
32.8786
32.9284
32.9266
32.8994
32.8653
32.9431
32.9579
32.948
32.9283
33.077
33.1592
33.1477
33.0318
33.0567
33.1138
33.1054
33.0513
33.0907
33.1052
33.0918
33.1347
33.144
33.0757
33.1101
33.1695
33.1731
33.0862
33.1117
33.1309
33.1126
33.1166
33.0059
33.0663
33.1585
33.1611
32.9939
33.0253
33.006
33.0507
33.1027
32.9998
32.9804
33.0763
33.0434
32.9525
32.8786
32.8996
33.1667
32.9116
32.9432
32.8924
33.152
32.8443
32.9305
32.7853
32.9467
32.7616
32.917
32.7227
32.9906
32.7825
32.8921
32.9099
32.9464
32.9816
32.9648
32.9861
33.0076
32.9929
32.9839
32.9241
32.9538
32.9903
32.9857
32.9444
32.9439
32.998
32.9936
32.9836
32.862
32.9733
32.954
32.9578
32.9951
32.9712
32.9985
32.9767
32.9833
32.9669
33.0037
32.9783
33.0053
32.99
33.0452
33.0822
33.0784
33.0191
33.034
33.0662
33.0596
33.0308
33.1067
33.1009
33.0623
33.0956
33.1341
33.0595
33.0883
33.0721
33.0997
33.0503
33.0571
33.0811
33.0614
32.7495
32.6407
32.8521
32.7822
32.7466
32.6986
32.6043
32.6156
32.9044
33.0522
32.8171
32.8224
32.993
32.8655
32.7524
32.93
32.9436
32.7678
32.813
32.8718
32.7665
32.4967
32.8449
32.8198
32.745
33.0361
32.8209
32.6709
32.7807
32.9415
32.8461
32.9149
32.916
33.0105
33.0236
33.0086
33.0189
33.0269
33.0129
32.9835
32.9803
32.9535
32.9678
32.9704
33.0237
33.0095
33.0531
33.0445
33.0243
32.9701
33.0065
32.9828
32.975
32.9956
33.0152
33.0256
32.963
33.0185
32.996
33.022
32.963
33.0225
32.9887
33.0188
33.0467
33.0381
32.9967
32.9999
33.014
33.0132
32.9987
33.0855
33.0705
33.0644
33.0832
33.1176
33.0687
33.0795
33.0491
33.0725
33.051
33.0359
33.067
33.0289
32.7128
32.8361
32.6687
32.6695
32.6627
32.7362
32.7794
32.7501
32.7795
32.8435
32.7535
32.7101
32.5884
32.6528
32.6149
32.9582
32.9861
32.7062
32.9043
32.8777
32.9168
32.8733
32.9552
32.9529
32.7991
32.8368
32.848
32.5911
32.7916
32.8267
32.8351
32.9083
32.8897
33.0238
33.0276
33.0124
33.0314
33.0313
33.0154
32.9498
32.9571
32.9284
32.9324
32.9422
33.0479
33.0306
33.0694
33.0416
33.0328
32.9719
32.9734
32.9514
32.9613
32.9513
33.0306
33.0309
32.9694
33.0182
32.9791
33.0234
32.9753
33.0129
32.9734
32.9765
32.9724
32.983
32.9398
32.9501
32.9234
32.9519
32.9544
33.0586
33.0518
33.0672
33.0733
33.0929
33.0638
33.0728
33.0239
33.0611
33.0634
33.0253
33.0604
32.973
32.9032
32.9127
32.8076
32.8538
32.8204
32.8505
32.8736
32.8499
32.6996
32.4917
32.7936
32.7661
32.6884
32.683
32.775
33.0062
33.005
32.9276
32.9808
32.9942
32.9612
32.9228
32.9854
32.9925
32.789
32.8668
32.8281
32.7751
32.8079
32.8865
32.8349
32.872
32.8665
33.0388
33.0406
33.0198
33.0301
33.0407
33.0128
32.9145
32.923
32.8949
32.8946
32.9028
33.0361
33.0303
33.0314
33.0266
33.0173
32.9376
32.9284
32.9028
32.9117
32.9102
33.0258
33.013
32.9802
33.0114
32.979
33.0009
32.9777
33.0044
32.9868
32.921
32.8913
32.9214
32.8609
32.8938
32.8853
32.8971
32.8983
33.0457
33.0419
33.0622
33.0736
33.0732
33.0814
33.1028
33.0355
33.0644
33.0631
33.0716
33.076
32.9689
32.8984
32.881
32.8613
32.8661
32.8569
32.8587
32.8574
32.8576
32.8492
32.8364
32.8857
32.8853
32.8707
32.8345
32.8514
32.9885
32.9638
32.9076
32.9762
32.9668
32.9549
32.8933
32.955
32.9301
32.8331
32.8877
32.8463
32.8327
32.8496
32.8664
32.8481
32.8651
32.8564
33.0065
33.0127
32.9911
32.9765
32.9708
32.9603
32.8744
32.8767
32.8566
32.8536
32.8565
33.0049
32.9889
32.9681
32.9686
32.9447
32.8887
32.8944
32.8583
32.8665
32.8762
32.9886
32.9522
32.9611
32.9804
32.983
32.9374
32.9297
32.9444
32.9546
32.8708
32.8956
32.8863
32.8308
32.8512
32.9046
32.8782
32.8576
33.0371
33.0182
33.0864
33.1067
33.0593
33.073
33.0739
33.0728
33.0585
33.0233
33.0616
33.0195
32.9689
32.868
32.8537
32.8479
32.8526
32.8507
32.831
32.8419
32.8335
32.8676
32.8562
32.8449
32.8358
32.8413
32.8538
32.8534
32.9307
32.8931
32.8786
32.9226
32.8899
32.8998
32.8581
32.8805
32.852
32.8472
32.8381
32.8347
32.818
32.8333
32.8005
32.8093
32.838
32.8125
32.9433
32.9293
32.9259
32.9094
32.8918
32.8913
32.8324
32.8345
32.8041
32.8117
32.8111
32.9256
32.8923
32.8854
32.8814
32.8416
32.8454
32.8537
32.8176
32.8276
32.8279
32.8976
32.8331
32.8865
32.9002
32.91
32.829
32.8333
32.8459
32.8542
32.8352
32.9079
32.8714
32.8307
32.8274
32.9047
32.8646
32.8252
32.969
32.9048
33.0282
33.0129
32.9545
32.9643
32.9426
33.0332
32.9835
32.9829
32.9929
32.948
32.9712
32.8284
32.7906
32.8117
32.8221
32.8132
32.7926
32.7947
32.7945
32.8156
32.8363
32.8065
32.8032
32.8295
32.8467
32.8302
32.8524
32.807
32.8253
32.8306
32.8131
32.8055
32.7815
32.7803
32.768
32.8159
32.7686
32.7813
32.7947
32.7978
32.7309
32.756
32.785
32.7601
32.8743
32.8554
32.8547
32.8334
32.8189
32.8164
32.7885
32.7862
32.7418
32.7643
32.7624
32.8415
32.7943
32.8094
32.8032
32.7523
32.8085
32.807
32.778
32.7886
32.7885
32.7688
32.7115
32.7799
32.78
32.796
32.6753
32.7249
32.7072
32.7313
32.8223
32.8978
32.8546
32.8051
32.81
32.8992
32.8434
32.8097
32.8401
32.7773
32.8934
32.8716
32.8317
32.8379
32.8377
32.9392
32.9259
32.8946
32.907
32.9101
32.9545
32.7486
32.7112
32.7691
32.7624
32.7714
32.7368
32.7282
32.7394
32.7851
32.8094
32.7577
32.7525
32.7747
32.8031
32.7679
32.7575
32.7091
32.7349
32.73
32.7215
32.6989
32.6917
32.6816
32.6769
32.7748
32.6972
32.7329
32.7395
32.7479
32.657
32.7093
32.7381
32.7151
32.7853
32.7815
32.7762
32.7382
32.7441
32.7362
32.7419
32.7382
32.6815
32.7246
32.7194
32.7666
32.7153
32.7339
32.7305
32.682
32.7683
32.7711
32.7432
32.7493
32.755
32.6671
32.6238
32.6691
32.6235
32.6685
32.5443
32.6
32.5482
32.6041
32.7963
32.8795
32.8249
32.7918
32.7876
32.8094
32.7994
32.7809
32.7152
32.6535
32.7896
32.8024
32.7255
32.7411
32.7543
32.8824
32.8748
32.8051
32.8401
32.8204
32.8884
32.6752
32.6439
32.6998
32.6944
32.7021
32.6654
32.6639
32.667
32.7083
32.7318
32.6711
32.6645
32.6904
32.7299
32.6962
32.6635
32.627
32.654
32.6378
32.6356
32.6195
32.6207
32.6006
32.5979
32.7191
32.6352
32.6833
32.678
32.6913
32.6026
32.6574
32.6911
32.6672
32.6975
32.7055
32.6966
32.6572
32.6664
32.6582
32.7101
32.7027
32.6428
32.6979
32.6882
32.6962
32.6512
32.6617
32.6606
32.6201
32.7337
32.7419
32.7181
32.7227
32.7323
32.5836
32.5431
32.5328
32.4974
32.5482
32.4364
32.4631
32.475
32.4985
32.7766
32.7259
32.7665
32.7516
32.7614
32.659
32.7418
32.757
32.5982
32.5465
32.6924
32.7052
32.645
32.6545
32.6651
32.7831
32.7653
32.712
32.7344
32.7227
32.6908
32.6163
32.5923
32.6379
32.6367
32.6405
32.62
32.6133
32.6211
32.6332
32.659
32.6214
32.6155
32.6366
32.6696
32.6471
32.5895
32.5509
32.5925
32.565
32.5602
32.5587
32.5673
32.5303
32.5196
32.6661
32.5882
32.6354
32.6367
32.6456
32.5657
32.6197
32.6488
32.6368
32.614
32.6255
32.6162
32.5665
32.584
32.5724
32.6834
32.6772
32.6363
32.6812
32.6717
32.6216
32.5871
32.5845
32.5797
32.5519
32.7138
32.724
32.7043
32.7042
32.7163
32.5041
32.4699
32.3981
32.4628
32.4641
32.3519
32.3476
32.4549
32.4401
32.7569
32.6498
32.7287
32.7348
32.7523
32.6968
32.7349
32.7446
32.508
32.4817
32.6264
32.6344
32.5866
32.6084
32.6149
32.7062
32.6934
32.6715
32.6962
32.677
32.6774
32.5726
32.5634
32.6028