/*--------------------------------*- C++ -*----------------------------------*\
| =========                 |                                                 |
| \\      /  F ield         | OpenFOAM: The Open Source CFD Toolbox           |
|  \\    /   O peration     | Version:  5.x                                   |
|   \\  /    A nd           | Web:      www.OpenFOAM.org                      |
|    \\/     M anipulation  |                                                 |
\*---------------------------------------------------------------------------*/
FoamFile
{
    version     2.0;
    format      ascii;
    class       surfaceScalarField;
    location    "0.45";
    object      phi;
}
// * * * * * * * * * * * * * * * * * * * * * * * * * * * * * * * * * * * * * //

dimensions      [0 3 -1 0 0 0 0];

internalField   nonuniform List<scalar> 
29271
(
-1.55769e-05
-1.02864e-07
8.41804e-06
7.26728e-06
-2.42747e-05
2.8561e-06
3.69755e-06
1.7726e-05
-5.01715e-05
-4.21402e-06
-1.76844e-06
-2.58771e-06
7.8237e-07
5.79593e-05
-5.04416e-05
-6.77725e-07
4.04674e-06
-2.8289e-06
1.48095e-06
4.84206e-05
-5.11937e-05
-2.12394e-06
-2.985e-06
2.46504e-06
5.23429e-05
1.49473e-06
-4.99513e-05
-1.07461e-06
-4.74737e-06
1.12301e-06
-2.38012e-06
5.70304e-05
-5.21154e-05
1.05903e-06
1.06639e-06
-2.2472e-06
-1.64782e-06
5.3885e-05
-5.07412e-05
-4.39934e-06
5.00426e-07
-1.40693e-06
4.02903e-06
5.2018e-05
-5.23038e-05
-7.37101e-07
3.2573e-06
-1.95493e-06
5.66174e-08
5.16819e-05
-4.45973e-05
-1.91128e-06
-3.14214e-07
4.06404e-05
6.22219e-06
-1.55904e-05
9.14675e-07
1.0545e-05
4.09142e-06
-5.04805e-05
-2.86081e-06
1.89853e-06
1.56966e-06
-9.01276e-07
5.07744e-05
-5.07463e-05
4.23185e-07
-1.82175e-06
1.25372e-06
-9.19504e-08
5.09831e-05
-5.08906e-05
1.29574e-06
-2.02052e-06
7.4303e-07
-5.4952e-06
5.63675e-05
-5.46056e-05
-4.16097e-06
6.83421e-07
-3.41537e-06
-2.05865e-06
6.35571e-05
-5.57706e-05
-7.48814e-07
-1.52582e-05
-9.37155e-07
6.41862e-05
8.52853e-06
-5.10547e-05
-3.81383e-06
3.61803e-06
-1.91819e-06
5.28093e-05
3.59352e-07
-5.2494e-05
2.22484e-06
1.9642e-07
-5.32987e-06
-1.2297e-06
5.66323e-05
-5.00069e-05
4.52271e-06
3.18305e-06
-2.14655e-06
-1.42321e-06
4.58709e-05
-5.08373e-05
-1.94181e-06
-6.75639e-06
5.11771e-05
6.85391e-06
1.50457e-06
-2.03022e-05
3.68723e-06
3.17723e-06
1.34416e-05
-4.58202e-05
-2.81814e-07
-4.58538e-06
4.54591e-05
5.2031e-06
-5.28464e-05
4.32902e-06
-6.19976e-06
-2.76153e-06
5.70911e-05
3.87528e-07
-2.00364e-05
4.6987e-06
1.78366e-06
1.35876e-05
-3.37147e-06
1.8348e-06
-6.61327e-06
8.14905e-06
-1.59227e-05
-1.47628e-06
-4.35073e-07
1.78341e-05
7.38325e-07
1.20131e-06
-5.97835e-05
-5.18899e-07
-8.05845e-07
5.91686e-05
2.24821e-06
-4.64431e-05
6.88912e-07
-9.98182e-07
5.63096e-07
4.3941e-05
-5.54238e-05
9.01471e-07
-5.48515e-07
-1.11674e-06
5.51215e-05
1.06611e-06
4.52831e-07
3.01914e-07
-5.81277e-05
-7.96748e-07
-4.66003e-08
5.82163e-05
-8.06984e-06
-1.27482e-06
0.000219557
-5.36407e-05
-4.79981e-05
-4.73693e-05
-5.08779e-05
-1.0544e-06
-2.00121e-06
-2.63573e-06
-1.47109e-06
-2.46022e-07
-1.11729e-06
-1.56888e-06
-2.32032e-07
-1.80298e-05
-2.77223e-06
0.000238158
-5.06456e-05
-5.17384e-05
-6.4819e-05
-5.39641e-05
-1.73851e-06
-1.48464e-06
-6.06147e-07
-4.29031e-07
-3.90589e-06
-1.22841e-05
0.000210681
8.14109e-07
9.78483e-07
3.97004e-06
2.33311e-06
-2.64045e-06
-2.41743e-06
-1.76138e-06
-4.75078e-05
-6.01293e-05
-3.67775e-05
-6.93822e-05
-4.26911e-05
6.88959e-07
-1.03172e-06
3.91276e-05
-6.66521e-07
-3.10916e-08
-1.02059e-05
1.09035e-05
2.43131e-06
-4.9494e-05
2.19856e-07
3.73069e-07
-9.68262e-07
4.7438e-05
-1.51667e-05
-1.13842e-05
0.000226902
-5.16006e-05
-5.03778e-05
-5.34736e-05
-4.24347e-05
-1.65626e-06
-6.61503e-07
-1.40971e-06
-1.16102e-08
-2.20811e-05
-6.67197e-06
0.000234754
-5.54582e-05
-6.40413e-05
-4.39769e-05
-6.04637e-05
4.16662e-07
-8.92376e-07
0.000205242
-1.50368e-06
2.5359e-06
2.29391e-06
4.75734e-07
7.11837e-06
5.75835e-06
-6.84392e-05
-6.7202e-05
-6.33246e-05
-5.68438e-05
-6.10463e-05
2.62123e-06
1.48761e-05
-3.99462e-06
4.79602e-05
-5.62987e-05
2.00364e-06
-2.67399e-06
3.62235e-07
5.65017e-05
1.05212e-07
-7.04991e-06
-3.41757e-06
0.000209139
1.59041e-07
-1.77278e-06
1.41415e-06
-1.02823e-06
2.01117e-06
-3.10585e-06
1.98351e-06
-5.45326e-05
-3.98052e-05
-6.1632e-05
-5.37469e-05
-4.93122e-06
1.16049e-06
0.000184666
-2.62458e-06
-5.70337e-06
-4.58808e-06
-1.23493e-06
3.47477e-07
-3.41253e-06
-4.17639e-05
-4.9024e-05
-5.4884e-05
-3.17296e-05
-5.047e-05
-2.74712e-06
-8.72328e-07
4.82658e-05
-8.60014e-06
-1.50244e-06
1.55611e-06
8.54771e-06
-4.95721e-05
1.31081e-06
-3.70313e-06
4.85477e-05
-6.05605e-05
1.60256e-06
-3.35267e-07
-3.27206e-07
6.07809e-05
-1.17051e-05
-2.9489e-07
8.02245e-07
1.11982e-05
-1.10038e-05
-4.94868e-07
-6.6458e-07
1.21633e-05
-1.95648e-05
-1.03882e-06
8.06134e-08
2.05225e-05
-4.29551e-07
4.6232e-07
-5.72932e-05
-4.79448e-08
8.8673e-07
5.64216e-05
7.61585e-07
-4.33387e-05
3.65543e-07
-1.95571e-06
5.45451e-07
4.36218e-05
-5.47705e-05
1.73345e-06
-9.19697e-07
-2.9719e-06
5.50939e-05
1.83483e-06
2.50283e-07
-3.16234e-07
-5.70244e-05
2.25761e-07
2.54244e-07
5.66103e-05
-9.63325e-06
-2.92505e-06
0.000234437
-1.49752e-06
-1.31869e-06
-6.48055e-07
3.89569e-07
-5.10422e-07
-4.17688e-07
1.21618e-07
1.56016e-06
-1.42823e-05
-3.41344e-06
0.000247212
-1.36545e-06
-1.24453e-06
7.62617e-07
8.55258e-07
-2.78399e-06
-1.03493e-05
0.000202619
3.83028e-06
3.4031e-06
5.55271e-06
3.68861e-06
-3.69286e-06
-2.6664e-06
-3.20279e-06
-3.77374e-05
2.14953e-06
-4.66036e-06
3.74646e-05
-1.36872e-05
-4.59708e-07
-1.29706e-07
1.42766e-05
-1.95136e-07
-4.65016e-05
-7.59683e-08
5.31405e-07
-5.80281e-07
4.68215e-05
-1.69379e-05
-4.86211e-06
0.000243903
-1.15104e-06
-3.79155e-07
1.11418e-06
2.29004e-06
-1.9513e-05
-3.60997e-06
0.000237526
-1.6475e-07
5.0205e-06
0.000151237
8.763e-07
4.99067e-07
1.44492e-06
4.76993e-06
6.57804e-06
5.11853e-06
-4.46987e-05
3.11475e-06
3.31978e-06
-1.08001e-06
3.91794e-05
-5.58574e-05
1.9587e-06
-2.24578e-06
-2.2726e-07
5.59512e-05
4.20525e-07
-9.09188e-06
-2.27135e-06
0.000211678
8.69032e-07
-5.65482e-07
2.49952e-06
-4.0695e-07
1.83042e-06
-2.04058e-06
1.77587e-06
-6.11661e-06
6.55057e-07
0.000192847
-4.70785e-06
-3.66782e-06
-4.01568e-06
-2.53333e-06
1.3862e-06
-1.88273e-06
-4.9272e-05
-3.62149e-06
4.7123e-06
4.7085e-05
-1.04956e-05
-3.08988e-06
2.3928e-06
1.11927e-05
-4.7407e-05
1.39812e-06
-3.53822e-06
4.72758e-05
-5.98293e-05
9.80215e-07
2.20154e-07
-4.05737e-07
5.96898e-05
-1.18383e-05
-3.2525e-06
2.04073e-06
1.305e-05
-1.27263e-05
-1.84106e-07
-3.99977e-07
1.33104e-05
-2.08475e-05
-6.99499e-07
4.04401e-07
2.11426e-05
-3.40686e-07
3.9489e-07
-5.64221e-05
-3.0291e-07
3.16747e-07
5.6354e-05
6.91931e-07
-4.42757e-05
2.53882e-07
-1.6572e-06
4.04827e-07
4.45822e-05
-5.62987e-05
1.93151e-06
-1.49473e-06
-3.44295e-06
5.74431e-05
1.86183e-06
3.45324e-08
-2.82819e-07
-5.68976e-05
-1.74244e-07
7.24616e-08
5.72477e-05
-8.43047e-06
-3.96149e-06
0.000241586
-4.2922e-07
-3.80158e-07
8.02337e-08
1.49016e-06
2.60501e-07
5.74411e-07
8.33767e-07
2.81293e-06
-7.94822e-06
-3.93484e-06
0.000247651
-4.02544e-07
-3.25924e-07
1.79173e-06
1.95001e-06
-2.67067e-06
-9.07647e-06
0.000198786
4.01309e-06
3.33301e-06
5.3101e-06
3.55266e-06
-3.58018e-06
-2.1333e-06
-2.86323e-06
-3.69972e-05
2.46514e-06
-4.72785e-06
3.65902e-05
-1.47673e-05
-2.83188e-07
-4.17566e-07
1.54681e-05
-1.35155e-07
-4.75716e-05
-7.99424e-08
6.66541e-08
-3.30741e-07
4.80507e-05
-1.50244e-05
-1.71697e-06
0.000249922
-2.12461e-07
9.62796e-07
2.3661e-06
3.6443e-06
-1.33011e-05
-2.20238e-06
0.00023407
-7.68012e-07
4.40986e-06
0.000111727
4.62818e-08
-4.15958e-08
5.12563e-07
3.64257e-06
5.46423e-06
3.86648e-06
-3.39663e-05
2.96094e-06
2.44863e-06
-1.64633e-07
2.79534e-05
-5.68268e-05
1.81195e-06
-2.16839e-06
-7.1281e-07
5.7279e-05
6.17033e-07
-8.86892e-06
-1.68965e-06
0.000213844
1.44077e-06
-1.26283e-07
3.15045e-06
5.36624e-07
1.36211e-06
-1.29128e-06
1.60369e-06
-4.88363e-06
1.29307e-06
0.000196437
-3.94455e-06
-2.58686e-06
-3.32663e-06
-1.76599e-06
1.65013e-06
-1.09612e-06
-4.81516e-05
-3.66355e-06
5.12167e-06
4.62197e-05
-1.12881e-05
-2.21543e-06
2.42566e-06
1.10806e-05
-4.69471e-05
1.56321e-06
-3.01921e-06
4.67143e-05
-6.02294e-05
1.07189e-06
-5.99335e-07
3.54509e-07
6.06954e-05
-1.4801e-05
-4.62646e-06
2.84807e-06
1.65795e-05
-1.40403e-05
-5.82178e-08
-7.20277e-07
1.48188e-05
-2.14913e-05
-5.79102e-07
2.10333e-07
2.18573e-05
-4.83541e-07
4.22809e-07
-5.64029e-05
-1.82268e-07
1.84514e-07
5.64614e-05
5.34331e-07
-4.59843e-05
1.9916e-07
-1.80922e-06
-2.41065e-07
4.73011e-05
-5.83599e-05
1.99995e-06
-1.07167e-06
-3.28809e-06
5.89557e-05
1.76401e-06
7.41773e-08
-1.82362e-07
-5.76996e-05
-2.38354e-07
1.72525e-08
5.80289e-05
-8.94875e-06
-4.80782e-06
0.000247282
-2.75234e-08
-7.72297e-08
5.0767e-07
1.80176e-06
6.76002e-07
1.12884e-06
1.09544e-06
2.95585e-06
-6.22108e-06
-3.80025e-06
0.000245033
1.64214e-07
-1.01208e-07
1.78559e-06
1.84192e-06
-1.06006e-06
-8.55864e-06
0.000186435
3.87881e-06
3.4502e-06
5.28291e-06
4.06617e-06
-2.18044e-06
5.45168e-07
7.05316e-07
-3.70024e-05
2.55846e-06
-4.64505e-06
3.8029e-05
-1.60819e-05
2.70995e-08
-2.7569e-07
1.63305e-05
-2.88081e-07
-4.9259e-05
-7.58919e-08
-1.66902e-07
-2.88302e-07
5.00782e-05
-1.46797e-05
-1.78298e-06
0.000253858
2.56983e-07
1.45493e-06
2.38248e-06
3.62391e-06
-1.01102e-05
-4.42402e-07
0.000226143
-4.7677e-07
3.51483e-06
7.56202e-05
3.69325e-07
2.13618e-06
1.28372e-06
2.69057e-06
4.75527e-06
3.16462e-06
-2.2599e-05
2.74804e-06
1.83991e-06
1.24587e-07
1.74097e-05
-5.78123e-05
2.14269e-06
-2.30343e-06
-6.14092e-07
5.81239e-05
4.63252e-07
-7.31879e-06
-1.14766e-06
0.000213102
1.73316e-06
6.09533e-07
3.16382e-06
8.74938e-07
9.71014e-07
-1.00431e-06
1.07699e-06
-3.99811e-06
1.1995e-06
0.00020054
-3.50737e-06
-1.94845e-06
-2.98939e-06
-1.1919e-06
1.3089e-06
-7.37897e-07
-4.70532e-05
-2.711e-06
4.83938e-06
4.44416e-05
-1.12141e-05
-2.09341e-06
1.844e-06
1.14626e-05
-4.66073e-05
1.57667e-06
-2.58421e-06
4.64671e-05
-6.15672e-05
9.38801e-07
-9.35087e-07
4.77517e-07
6.22855e-05
-1.83163e-05
-4.55123e-06
3.05541e-06
1.98121e-05
-1.55135e-05
-6.73192e-08
-5.50569e-07
1.61314e-05
-2.2149e-05
-3.7363e-07
3.5585e-07
2.21668e-05
-3.99723e-07
5.05342e-07
-5.6545e-05
-8.62248e-08
1.59257e-07
5.63663e-05
6.32685e-07
-4.85356e-05
2.39685e-08
-1.3708e-06
-4.03943e-07
4.96537e-05
-6.00313e-05
1.81446e-06
-1.14465e-06
-3.30803e-06
6.0978e-05
1.69154e-06
3.61655e-08
-4.77884e-09
-5.83967e-05
-4.12927e-07
1.17522e-08
5.87665e-05
-7.99633e-06
-4.47933e-06
0.000251824
2.06499e-07
2.17013e-08
5.68434e-07
1.82174e-06
7.36177e-07
1.15749e-06
9.33298e-07
2.48818e-06
-5.21328e-06
-3.50874e-06
0.000242316
9.68315e-08
4.45503e-08
1.6273e-06
1.67428e-06
3.27916e-07
-7.35395e-06
0.000173405
3.67201e-06
3.65733e-06
4.39912e-06
2.17421e-06
-8.32529e-08
-5.04096e-08
1.0741e-06
-3.78246e-05
1.1179e-06
7.80137e-06
-1.09539e-05
4.01872e-05
-2.5644e-07
-3.11784e-08
-1.81006e-08
3.08603e-07
-1.63384e-05
2.82219e-07
-4.9619e-07
1.6552e-05
-4.91735e-07
-5.1617e-05
-1.90301e-07
-1.78099e-07
-3.38125e-07
5.28152e-05
-1.5314e-05
-1.82344e-06
0.000259518
3.22077e-07
1.37021e-06
2.21161e-06
3.09419e-06
-8.73585e-06
-2.75231e-07
0.000216331
1.72483e-06
3.09693e-06
4.04584e-05
1.47099e-06
3.24427e-06
2.09579e-06
2.21348e-06
3.7546e-06
1.47108e-06
-1.36012e-05
2.04993e-06
4.02168e-06
1.95961e-06
7.29479e-06
-1.99978e-08
-1.09266e-06
-3.95271e-09
5.37891e-08
1.05883e-06
-5.8719e-05
1.84744e-06
-2.1563e-06
-4.70117e-07
5.91365e-05
3.61427e-07
-6.50065e-06
-1.17665e-06
0.000213292
1.59711e-06
6.59618e-07
2.91112e-06
9.1587e-07
3.66087e-07
-1.12149e-06
3.35322e-07
-3.35829e-06
5.2959e-07
0.000205207
-3.21797e-06
-1.6333e-06
-2.97329e-06
-9.27579e-07
6.21029e-07
-4.82641e-07
-4.43057e-05
-1.77934e-06
4.38265e-06
4.14411e-05
-1.31759e-05
-6.36286e-07
8.40759e-07
1.297e-05
-4.61341e-05
1.38535e-06
-2.08065e-06
4.5653e-05
-6.33304e-05
1.08751e-06
-1.21736e-06
2.56222e-07
6.37336e-05
-2.11236e-05
-4.09384e-06
3.07923e-06
2.21382e-05
-1.6676e-05
1.33471e-08
-4.46704e-07
1.71093e-05
-2.19119e-05
-3.13354e-07
6.30773e-07
2.1591e-05
-2.97955e-07
6.22991e-07
-5.6303e-05
-2.74622e-08
2.10541e-07
5.57949e-05
7.33643e-07
-5.09072e-05
-1.10502e-07
-1.19546e-06
-3.23284e-07
5.18029e-05
-6.16971e-05
2.14047e-06
-1.29155e-06
-3.00308e-06
6.21526e-05
1.69863e-06
-8.26153e-09
9.47887e-08
-5.93465e-05
-4.35089e-07
-1.22702e-07
5.98178e-05
-7.16512e-06
-4.7927e-06
0.000256758
8.10018e-08
6.8496e-09
3.67031e-07
1.67958e-06
7.03307e-07
9.17777e-07
9.90543e-07
2.27802e-06
-5.65914e-06
-3.20309e-06
0.000240749
-1.23198e-08
-2.50544e-08
1.67361e-06
1.6283e-06
-1.62029e-08
-7.39452e-06
0.000157612
3.39886e-06
2.946e-06
4.46052e-06
2.91391e-06
1.17722e-06
6.78517e-07
1.96887e-06
-4.60993e-05
9.90409e-06
7.16149e-06
-4.37346e-06
3.3391e-05
-1.96616e-06
2.17635e-06
-2.67067e-06
-5.34075e-07
-7.55362e-07
3.74993e-06
-1.68768e-05
1.53765e-07
-4.28763e-07
1.71518e-05
-1.35097e-07
-5.41391e-05
-1.14769e-07
-9.89609e-08
-1.32999e-07
5.46209e-05
-1.48204e-05
-2.12906e-06
0.000265754
1.14005e-07
9.74486e-07
2.02909e-06
2.80317e-06
-9.13925e-06
-8.15662e-09
0.000207455
2.03948e-06
2.67272e-06
7.82964e-06
2.351e-06
8.18918e-07
1.69502e-06
1.4087e-06
3.4406e-06
1.66854e-06
-2.36031e-06
2.4281e-06
5.17535e-06
-4.78145e-07
-2.72552e-06
-3.22225e-06
-3.03756e-07
-5.14544e-06
2.863e-06
1.69073e-06
4.11771e-06
-5.97338e-05
1.67769e-06
-2.05036e-06
-4.91499e-07
6.03224e-05
2.75554e-07
-5.35571e-06
-1.34234e-06
0.000214733
1.24516e-06
5.96311e-07
2.52894e-06
6.52953e-07
-4.95514e-07
-1.28654e-06
-1.12932e-07
-3.31567e-06
1.55977e-07
0.000211355
-3.0035e-06
-1.48139e-06
-2.80411e-06
-8.22998e-07
1.03685e-07
-3.4429e-07
-4.05806e-05
-1.27185e-06
3.81609e-06
3.73934e-05
-1.06937e-05
-3.19072e-06
-3.91981e-07
3.83231e-06
1.04392e-05
-4.26204e-06
-2.34167e-06
1.50152e-06
5.10423e-06
-4.53111e-05
9.78931e-07
-2.00998e-06
4.49989e-05
-6.40277e-05
1.09195e-06
-1.34875e-06
6.80036e-07
6.37604e-05
-2.31392e-05
-3.79644e-06
2.98269e-06
2.39528e-05
-1.74858e-05
1.07807e-07
-1.54713e-07
1.75327e-05
-2.13358e-05
-2.76476e-07
6.69299e-07
2.09437e-05
-1.38225e-07
5.03142e-07
-5.54252e-05
1.5504e-08
-9.03464e-08
5.51352e-05
2.37944e-07
-5.31447e-05
-7.51301e-08
-1.21914e-06
-1.12437e-07
5.43134e-05
-6.26454e-05
1.86128e-06
-1.63065e-06
-2.69963e-06
6.32545e-05
1.85989e-06
-2.13267e-08
3.33042e-08
-6.03078e-05
-1.65375e-07
-2.31612e-07
6.06928e-05
-7.28272e-06
-5.30901e-06
0.000262912
1.29463e-07
-1.36648e-07
3.87048e-07
1.48148e-06
5.43417e-07
8.51089e-07
8.94732e-07
2.28675e-06
-6.1833e-06
-2.8576e-06
0.000239864
-2.12139e-07
-1.0928e-07
1.45427e-06
1.5098e-06
6.59319e-07
-4.49571e-06
0.000142299
3.04012e-06
2.38811e-06
4.13919e-06
2.44794e-06
9.52942e-07
-2.44155e-07
2.42608e-07
-3.24189e-05
1.74811e-06
2.08815e-06
-2.32789e-06
3.15699e-05
-5.55783e-06
1.13607e-07
-6.79662e-07
-1.43808e-06
1.04199e-06
6.51997e-06
-1.74397e-05
5.06945e-08
-3.73447e-07
1.77625e-05
2.55429e-07
-5.55214e-05
-1.78203e-07
-5.03692e-07
9.96303e-08
5.58482e-05
-1.34919e-05
-2.01482e-06
0.000270017
3.06917e-07
8.24188e-07
2.08528e-06
2.71884e-06
-6.66647e-06
-2.22909e-07
0.000197995
-1.2787e-06
2.27148e-06
-7.0351e-06
4.90535e-07
-2.39974e-06
-8.77021e-07
1.0693e-06
3.05148e-06
1.37521e-06
5.39972e-06
1.21359e-08
-2.14703e-06
7.98094e-08
-4.62333e-06
-5.36824e-06
-8.03214e-07
2.04997e-06
-9.3116e-07
-7.92072e-07
5.84471e-06
-6.0923e-05
1.55738e-06
-1.64188e-06
-8.33092e-07
6.14145e-05
4.26179e-07
-4.80573e-06
-1.24702e-06
0.000216609
1.03767e-06
3.17972e-07
2.38117e-06
5.27439e-07
-6.65847e-07
-1.07153e-06
-3.64392e-07
-3.08076e-06
-4.61884e-07
0.00021735
-2.85535e-06
-1.28878e-06
-2.54696e-06
-5.88826e-07
-2.2124e-07
1.97488e-08
-3.63833e-05
-1.08384e-06
3.31831e-06
3.33396e-05
-9.32792e-06
1.96935e-07
-1.79633e-07
1.27028e-06
8.04239e-06
-7.08894e-06
7.58826e-07
-1.88892e-06
1.74327e-06
6.47576e-06
-4.44389e-05
9.40128e-07
-1.55538e-06
4.38076e-05
-6.40277e-05
9.67434e-07
-1.35223e-06
2.30969e-07
6.37197e-05
-2.4688e-05
-3.66052e-06
3.11666e-06
2.52318e-05
-1.75782e-05
9.71678e-08
-3.43799e-07
1.78248e-05
-2.06155e-05
-2.41009e-07
4.23877e-07
2.04328e-05
-1.33608e-07
5.20952e-07
-5.48968e-05
-4.73049e-08
-7.16089e-08
5.46283e-05
1.71533e-08
-5.5816e-05
-1.10636e-07
-1.01742e-06
3.71547e-08
5.68898e-05
-6.38406e-05
2.13787e-06
-2.087e-06
-2.58845e-06
6.42812e-05
2.0969e-06
-2.3695e-07
9.43846e-08
-6.13529e-05
-3.58122e-07
-4.73269e-08
6.1901e-05
-7.82623e-06
-5.2174e-06
0.000269662
2.00994e-07
-2.68741e-07
5.63621e-07
1.42433e-06
5.58449e-07
7.57329e-07
8.28784e-07
2.22909e-06
-9.04842e-06
-2.99525e-06
0.000241448
-3.92851e-07
-4.6156e-08
1.33132e-06
1.74152e-06
-8.47414e-07
-3.8289e-06
0.000137249
3.20794e-06
2.79139e-06
4.4088e-06
1.73878e-06
-1.86383e-06
-3.89587e-06
-5.70958e-06
-4.10382e-05
5.23449e-06
6.75017e-07
-1.36098e-06
3.56422e-05
-9.4988e-06
1.07027e-06
-9.37883e-08
2.57952e-06
5.94281e-06
-1.80419e-05
-6.0372e-08
-2.46005e-07
1.83482e-05
1.91966e-07
-5.6463e-05
-1.39706e-07
-7.10585e-07
-5.93153e-08
5.71806e-05
-1.39608e-05
-1.88715e-06
0.000274099
4.34803e-07
7.69406e-07
2.59328e-06
2.75049e-06
-1.26898e-05
8.92855e-07
0.000192836
-5.50599e-06
2.3135e-06
-6.76505e-06
-4.17332e-06
-8.64766e-06
-6.16437e-06
1.23415e-06
2.96044e-06
1.19455e-06
1.6573e-06
2.86765e-08
-7.88642e-06
-3.86077e-07
1.08053e-06
-5.79453e-06
9.25296e-07
7.503e-06
-4.44994e-06
-3.79909e-06
5.61525e-06
-6.21226e-05
1.3072e-06
-1.51144e-06
-6.60896e-07
6.25701e-05
4.1769e-07
-4.52779e-06
-1.19956e-06
0.000218576
9.08323e-07
4.26662e-07
2.26247e-06
5.95311e-07
-7.0194e-07
-1.10252e-06
-5.15581e-07
-2.72734e-06
-6.25464e-07
0.000223605
-2.40643e-06
-1.39901e-06
-2.19542e-06
-2.47607e-07
-4.24197e-07
1.36314e-07
-3.25562e-05
-1.19278e-06
2.92565e-06
3.04095e-05
-7.46376e-06
2.75708e-07
8.52568e-07
6.34288e-06
-4.32245e-05
8.41535e-07
-1.19411e-06
4.23782e-05
-6.38829e-05
9.37755e-07
-1.73937e-06
2.26355e-07
6.38327e-05
-2.58362e-05
-3.24052e-06
2.97121e-06
2.61023e-05
-1.80082e-05
2.14455e-07
-3.2692e-07
1.81206e-05
-2.0367e-05
-2.0436e-07
6.10535e-07
1.99608e-05
-2.74872e-07
1.94423e-07
-5.48728e-05
-8.97076e-08
1.97111e-07
5.48459e-05
-5.56667e-08
-5.80348e-05
1.09468e-09
-9.74748e-07
9.01465e-08
5.8974e-05
-6.5053e-05
2.11085e-06
-1.42906e-06
-2.70064e-06
6.51341e-05
1.93777e-06
-3.94743e-07
1.31391e-07
-6.25016e-05
-5.03079e-07
5.62917e-08
6.32117e-05
-7.78297e-06
-4.32777e-06
0.000275113
6.91562e-08
-3.00708e-07
5.02049e-07
1.50199e-06
6.72907e-07
7.15714e-07
9.17431e-07
2.58109e-06
-8.8319e-06
-2.6299e-06
0.000242454
-4.46522e-07
-2.06166e-07
1.37393e-06
1.95103e-06
-4.64011e-06
-2.53086e-06
0.00013771
3.04909e-06
1.41681e-06
4.67101e-06
2.33753e-06
-6.75934e-06
-2.81851e-06
-4.01824e-06
-3.55878e-05
-1.97996e-06
-1.02571e-06
3.39536e-05
-1.86209e-05
2.78118e-11
-2.23159e-07
1.8844e-05
-3.68463e-09
-5.84925e-05
-1.39482e-07
-7.54122e-07
-4.31515e-09
5.93941e-05
-1.39682e-05
-2.07183e-06
0.000279496
5.66288e-07
6.36735e-07
2.57949e-06
2.53273e-06
-1.24921e-05
1.56211e-06
0.000187168
-8.12381e-06
2.24849e-06
-1.5161e-05
-4.04653e-06
-4.08087e-07
-1.8428e-06
1.14799e-06
3.02901e-06
1.36871e-06
-9.85528e-06
2.05078e-07
-9.67605e-06
2.5581e-06
8.64433e-06
-6.28143e-05
1.42797e-06
-1.27415e-06
-4.96064e-07
6.26492e-05
5.07365e-07
-4.48274e-06
-1.43389e-06
0.000221318
7.27201e-07
4.11156e-07
2.06384e-06
5.64664e-07
-9.0038e-07
-1.06946e-06
-6.9418e-07
-2.78645e-06
-8.02222e-07
0.000229971
-2.16664e-06
-1.16069e-06
-1.87985e-06
-1.57918e-07
-4.76026e-07
1.43322e-07
-2.99017e-05
-1.46763e-06
2.99509e-06
2.78363e-05
-4.37357e-06
-1.39564e-06
2.58271e-06
3.18837e-06
-4.13501e-05
1.10107e-06
-1.10677e-06
3.99228e-05
-6.42294e-05
8.7233e-07
-1.84611e-06
1.60091e-07
6.42409e-05
-2.64673e-05
-3.15805e-06
2.76411e-06
2.68612e-05
-1.81652e-05
1.63402e-07
-3.53119e-07
1.83554e-05
-1.93008e-05
-8.58393e-08
7.90577e-07
1.85964e-05
-3.67983e-07
1.11352e-07
-5.48848e-05
4.81897e-08
1.3971e-07
5.49535e-05
1.69668e-08
-6.03909e-05
-2.67191e-07
-6.93115e-07
2.98932e-08
6.13044e-05
-6.55277e-05
1.90466e-06
-1.13141e-06
-2.58727e-06
6.59586e-05
1.38321e-06
-2.52066e-07
3.16278e-07
-6.4051e-05
-6.12773e-07
2.93732e-08
6.45702e-05
-6.94438e-06
-3.23946e-06
0.000278467
1.33461e-07
-2.27857e-07
4.43518e-07
1.55591e-06
7.57151e-07
5.74922e-07
1.00295e-06
2.58927e-06
-5.95797e-06
-1.6878e-06
0.000240517
-4.86443e-07
-1.51794e-07
1.38397e-06
1.89281e-06
-2.00433e-06
-2.54466e-06
0.000128191
3.16723e-06
2.14649e-06
4.48635e-06
2.31802e-06
-1.96523e-06
-1.19372e-06
-8.49105e-07
-3.16272e-05
1.42978e-07
-7.60444e-07
3.02411e-05
-1.90712e-05
-9.4412e-08
-4.44511e-08
1.92102e-05
-6.71787e-08
-6.081e-05
-3.83354e-07
-7.75219e-07
3.66202e-08
6.19991e-05
-1.20011e-05
-1.59071e-06
0.000284214
4.0041e-07
3.58742e-07
2.47404e-06
2.40117e-06
-8.84035e-06
1.43114e-06
0.000180888
-4.01908e-07
2.074e-06
-2.97055e-05
-1.50227e-06
-4.21296e-07
-1.09605e-06
9.35915e-07
2.55849e-06
1.0126e-06
-9.40791e-06
6.08534e-07
3.14258e-07
9.87781e-07
7.09543e-06
-6.24245e-05
1.35533e-06
-9.51074e-07
-3.45073e-07
6.19396e-05
4.25741e-07
-4.06934e-06
-1.46488e-06
0.000224867
4.24993e-07
3.94606e-07
1.90177e-06
6.28914e-07
-1.09244e-06
-1.10323e-06
-7.60558e-07
-2.32656e-06
-9.05257e-07
0.00023509
-1.84584e-06
-6.15856e-07
-1.50842e-06
-3.91382e-08
-7.08895e-07
1.92159e-07
-2.74836e-05
-1.04436e-06
2.69771e-06
2.55777e-05
-2.88943e-06
-1.02759e-06
1.73593e-06
2.17962e-06
-3.85803e-05
1.12991e-06
-8.32091e-07
3.68173e-05
-6.4721e-05
6.91387e-07
-1.91035e-06
2.86144e-07
6.47485e-05
-2.72036e-05
-2.56955e-06
2.65414e-06
2.71212e-05
-1.86768e-05
2.06895e-07
-4.50002e-07
1.89199e-05
-1.80091e-05
-3.10251e-07
5.88687e-07
1.77294e-05
-5.60822e-07
4.04111e-08
-5.52287e-05
1.88723e-07
1.78093e-07
5.53823e-05
-2.71547e-07
-6.27732e-05
-2.92337e-07
-7.92221e-07
1.75688e-07
6.39537e-05
-6.65951e-05
1.92301e-06
-8.70257e-07
-2.55193e-06
6.68612e-05
1.23303e-06
-1.5445e-07
4.09184e-07
-6.48786e-05
-4.50733e-07
-5.27839e-09
6.50799e-05
-6.97666e-06
-3.6903e-06
0.00028265
1.70181e-07
-2.22931e-07
4.43923e-07
1.54998e-06
7.48567e-07
4.19321e-07
1.02624e-06
2.34952e-06
-4.81516e-06
-9.69521e-07
0.000237516
-7.22257e-07
-2.62411e-07
1.10588e-06
1.68853e-06
-1.29511e-06
-1.86188e-06
0.000117147
2.93804e-06
1.95447e-06
4.24652e-06
2.03995e-06
-7.40932e-07
-9.2091e-07
-1.31887e-07
-2.9416e-05
-2.44645e-08
-2.46559e-07
2.83937e-05
-1.92841e-05
-1.17361e-07
7.8207e-08
1.93234e-05
6.70546e-08
-6.33021e-05
-2.18856e-07
-6.83282e-07
2.41435e-07
6.38958e-05
-9.99e-06
-1.30001e-06
0.000286952
2.39536e-07
1.02727e-07
2.2304e-06
2.28997e-06
-7.6934e-06
8.96508e-07
0.000176725
-2.07458e-06
1.70176e-06
-3.90144e-05
-1.3847e-06
-1.23203e-06
-1.0203e-06
7.63358e-07
2.19775e-06
8.0241e-07
-3.71351e-06
-6.54136e-07
9.90149e-07
2.33424e-06
-1.03133e-06
-6.18903e-05
1.02814e-06
-7.40099e-07
-2.62703e-07
6.16817e-05
1.8331e-07
-3.18962e-06
-1.30912e-06
0.000227216
2.68859e-07
4.95292e-07
1.8674e-06
6.19138e-07
-8.64087e-07
-9.2362e-07
-6.13034e-07
-1.72912e-06
-1.0985e-06
0.000238746
-1.36662e-06
-2.21186e-07
-1.041e-06
3.34165e-08
-7.98128e-07
2.71693e-07
-2.55714e-05
-6.84517e-07
2.23342e-06
2.39951e-05
-1.79792e-06
-1.09142e-06
6.91421e-07
2.19851e-06
-3.54113e-05
8.71825e-07
-7.48676e-07
3.39783e-05
-6.48905e-05
6.31707e-07
-1.49025e-06
2.35927e-07
6.44146e-05
-2.72542e-05
-2.52793e-06
2.18972e-06
2.7594e-05
-1.89564e-05
2.83102e-07
-3.36058e-07
1.90095e-05
-1.73876e-05
-1.78779e-07
5.79673e-07
1.69879e-05
-4.18047e-07
3.1371e-09
-5.52782e-05
3.65653e-07
2.52413e-07
5.5075e-05
-1.28213e-07
-6.52689e-05
-3.00603e-07
-5.21773e-07
5.34902e-08
6.6166e-05
-6.72968e-05
1.8055e-06
-8.72335e-07
-2.66348e-06
6.77152e-05
1.3119e-06
-1.35726e-07
4.49896e-07
-6.5378e-05
-4.06603e-07
-9.80128e-08
6.55685e-05
-6.60245e-06
-4.021e-06
0.000288385
7.92305e-08
-3.52282e-07
3.27866e-07
1.41368e-06
5.55575e-07
1.2596e-07
7.98422e-07
1.93972e-06
-3.99123e-06
2.75481e-07
0.000233851
-1.0149e-06
-5.34308e-07
8.91884e-07
1.43496e-06
-9.31355e-07
-6.74621e-07
0.000104916
2.66766e-06
1.68528e-06
3.84526e-06
1.73683e-06
-8.55014e-08
-5.43924e-07
5.40108e-07
-2.75327e-05
-1.70577e-07
2.02701e-07
2.65701e-05
-1.95272e-05
-2.13385e-07
1.11418e-07
1.96292e-05
-4.6229e-08
-6.49214e-05
-3.6123e-07
-4.7564e-07
3.46539e-07
6.54579e-05
-9.49393e-06
-1.74262e-06
0.000289796
2.01996e-09
-1.69352e-08
2.22311e-06
2.16293e-06
-6.44475e-06
1.01791e-06
0.000172934
-1.60409e-06
1.62392e-06
-4.60656e-05
-1.2723e-06
-9.54812e-07
-9.856e-07
5.39439e-07
1.9826e-06
6.02713e-07
4.86519e-06
-6.33418e-07
6.60719e-07
1.74778e-06
-8.24436e-06
-6.1751e-05
6.96439e-07
-4.87541e-07
-5.13228e-07
6.18894e-05
1.65983e-07
-2.51276e-06
-9.35437e-07
0.000228549
1.93538e-08
3.70793e-07
1.6149e-06
4.54264e-07
-8.37108e-07
-6.88888e-07
-5.60649e-07
-1.40417e-06
-1.17245e-06
0.000242566
-1.06451e-06
-1.57118e-07
-7.60401e-07
1.26273e-08
-9.16524e-07
1.48236e-07
-2.40719e-05
-6.84662e-07
2.09028e-06
2.28861e-05
-2.75891e-06
-7.60175e-07
7.57223e-07
2.76234e-06
-3.2725e-05
6.07245e-07
-4.93352e-07
3.16764e-05
-6.44288e-05
4.69539e-07
-1.47353e-06
2.28178e-07
6.40322e-05
-2.79115e-05
-2.36842e-06
2.04853e-06
2.82314e-05
-1.91866e-05
3.60112e-07
-3.59855e-07
1.91863e-05
-1.68451e-05
-2.9247e-07
4.471e-07
1.669e-05
-4.46907e-07
-2.03021e-08
-5.50566e-05
3.7693e-07
2.301e-07
5.49167e-05
9.04389e-08
-6.72841e-05
-3.98931e-07
-3.179e-07
2.62943e-08
6.78842e-05
-6.8274e-05
1.58077e-06
-6.57165e-07
-2.50938e-06
6.86976e-05
1.16219e-06
-1.84426e-07
3.34873e-07
-6.57561e-05
-3.82108e-07
2.03161e-08
6.59674e-05
-5.84196e-06
-2.63059e-06
0.000292355
-1.68954e-08
-5.65348e-07
2.43675e-07
1.2893e-06
4.91721e-07
1.83322e-07
7.55462e-07
2.12145e-06
-3.63134e-06
5.90343e-07
0.000230156
-8.98009e-07
-6.12292e-07
8.93923e-07
1.51116e-06
-5.9985e-07
3.26332e-07
9.15789e-05
2.45718e-06
1.50024e-06
3.59748e-06
1.53594e-06
5.44016e-07
-4.36638e-07
7.8147e-07
-2.61258e-05
-3.38742e-07
2.39197e-07
2.56252e-05
-1.97332e-05
-1.93996e-07
-1.56549e-07
2.00837e-05
-2.56882e-07
-6.62662e-05
-1.95641e-07
-4.51958e-07
7.08803e-08
6.70998e-05
-8.16581e-06
-1.45276e-06
0.000293532
-1.37589e-07
-3.36995e-07
2.04124e-06
1.68571e-06
-5.62064e-06
6.38652e-07
0.00017034
-1.24138e-06
1.37078e-06
-5.10979e-05
-1.20117e-06
-9.13139e-07
-9.09327e-07
3.37592e-07
1.73324e-06
5.61365e-07
1.06317e-05
-8.58228e-07
-1.58423e-07
1.56228e-06
-1.24187e-05
-6.23821e-05
4.36974e-07
-4.07736e-07
-4.16267e-07
6.26947e-05
7.44049e-08
-2.4376e-06
-1.01506e-06
0.000230989
-8.01614e-08
1.22375e-07
1.48308e-06
2.65992e-07
-8.48914e-07
-8.25372e-07
-5.57358e-07
-1.37479e-06
-1.21468e-06
0.000245504
-9.06569e-07
-1.0424e-07
-5.27481e-07
1.15423e-09
-8.84762e-07
2.74398e-07
-2.32616e-05
-9.98993e-07
1.77737e-06
2.24792e-05
-2.37438e-06
-6.06833e-07
9.87539e-07
1.9939e-06
-3.08018e-05
3.85626e-07
-3.26917e-07
2.97286e-05
-6.37632e-05
3.89911e-07
-1.22947e-06
2.50758e-07
6.31373e-05
-2.84764e-05
-1.91236e-06
1.80987e-06
2.85774e-05
-1.90206e-05
2.65843e-07
-1.25328e-07
1.888e-05
-1.65046e-05
-2.91043e-07
3.76245e-07
1.64187e-05
-3.81967e-07
6.31588e-08
-5.4639e-05
3.4609e-07
4.44016e-07
5.41677e-05
-1.59358e-07
-6.87827e-05
-4.42313e-07
-2.67977e-07
4.69051e-07
6.91833e-05
-6.91458e-05
1.72959e-06
-6.91011e-07
-2.40636e-06
6.95353e-05
9.78215e-07
-2.30264e-07
2.31557e-07
-6.6465e-05
-2.35113e-07
4.19448e-09
6.66946e-05
-5.92262e-06
-2.03437e-06
0.000295481
-5.43654e-08
-5.61254e-07
3.22196e-07
1.29738e-06
5.02707e-07
6.73775e-08
1.04106e-06
2.21604e-06
-3.78922e-06
1.08464e-07
0.000227084
-9.88828e-07
-5.64577e-07
8.54637e-07
1.52841e-06
-6.09998e-07
1.94455e-06
7.76635e-05
2.2473e-06
1.23196e-06
3.38944e-06
1.30509e-06
4.46831e-07
-4.4574e-07
6.16747e-07
-2.50892e-05
-1.97169e-07
4.37369e-07
2.42389e-05
-2.05603e-05
-1.12947e-07
-3.04731e-07
2.0978e-05
-2.12514e-07
-6.83304e-05
-1.38184e-07
-1.80515e-07
1.74291e-07
6.86873e-05
-7.15872e-06
-1.79382e-06
0.000297997
-3.5731e-07
-6.37581e-07
1.84642e-06
1.6014e-06
-4.90548e-06
-2.42573e-07
0.000168438
-9.33587e-07
1.30628e-06
-5.48015e-05
-1.00459e-06
-7.44882e-07
-7.20238e-07
4.63056e-07
1.71767e-06
6.58942e-07
1.33374e-05
-1.01903e-06
-8.8636e-07
1.53569e-06
-1.39013e-05
-6.32867e-05
5.5478e-07
-5.11714e-07
-5.48725e-07
6.3635e-05
1.57352e-07
-1.73774e-06
-1.01274e-06
0.000232433
-7.10182e-08
5.91919e-08
1.48939e-06
2.93005e-07
-8.91517e-07
-7.74332e-07
-5.92172e-07
-1.16451e-06
-1.11511e-06
0.000247001
-6.03099e-07
2.43626e-07
-3.01536e-07
9.6249e-08
-8.07878e-07
1.74552e-07
-2.32105e-05
-9.40598e-07
1.32389e-06
2.2969e-05
-1.92623e-06
-8.53019e-07
1.0605e-06
1.71855e-06
-2.87872e-05
2.33647e-07
-2.33985e-07
2.77743e-05
-6.29926e-05
2.77498e-07
-1.39202e-06
1.41164e-07
6.28509e-05
-2.85017e-05
-1.36383e-06
1.5165e-06
2.8351e-05
-1.8703e-05
4.39653e-07
-7.25241e-08
1.83357e-05
-1.63083e-05
-1.61849e-07
3.66931e-07
1.61033e-05
-2.63823e-07
2.37949e-07
-5.37017e-05
-5.99566e-09
3.34085e-07
5.33994e-05
-2.79482e-07
-6.97549e-05
-2.50376e-07
-1.50173e-07
7.79864e-07
6.96551e-05
-6.99192e-05
1.72604e-06
-5.12519e-07
-2.04441e-06
6.97155e-05
1.03459e-06
-1.03701e-07
2.09784e-07
-6.69685e-05
-2.10925e-07
6.04266e-08
6.70129e-05
-6.22833e-06
-2.10109e-06
0.000299007
-3.74793e-08
-5.86879e-07
2.75355e-07
1.34575e-06
5.32858e-07
1.38763e-07
8.77603e-07
2.25679e-06
-3.4267e-06
4.59483e-08
0.000223967
-1.16926e-06
-6.57668e-07
6.60911e-07
1.43513e-06
-4.89922e-07
2.66246e-06
6.37952e-05
2.03798e-06
9.92907e-07
3.2764e-06
1.14458e-06
3.5672e-07
-1.87134e-07
6.47647e-07
-2.35139e-05
-2.73665e-07
2.17667e-07
2.30799e-05
-2.13796e-05
-2.78789e-07
-3.16701e-08
2.169e-05
-1.60331e-07
-6.93367e-05
-3.5394e-07
-2.09933e-07
3.01132e-07
6.97598e-05
-7.02818e-06
-2.15933e-06
0.000302996
-5.56043e-07
-6.44879e-07
1.69771e-06
1.59065e-06
-3.99964e-06
-6.75287e-07
0.000166131
-7.55107e-07
1.18869e-06
-5.77287e-05
-7.53118e-07
-5.04303e-07
-4.80068e-07
5.30939e-07
1.72465e-06
6.38351e-07
1.3726e-05
-1.15613e-06
-1.2506e-06
1.58364e-06
-1.3658e-05
-6.38764e-05
8.03833e-07
-6.57718e-07
-5.65631e-07
6.39733e-05
3.22632e-07
-9.60994e-07
-9.00846e-07
0.000232184
-1.00058e-07
1.02406e-07
1.45506e-06
3.3964e-07
-8.50254e-07
-5.86518e-07
-4.0788e-07