/*--------------------------------*- C++ -*----------------------------------*\
| =========                 |                                                 |
| \\      /  F ield         | OpenFOAM: The Open Source CFD Toolbox           |
|  \\    /   O peration     | Version:  5.x                                   |
|   \\  /    A nd           | Web:      www.OpenFOAM.org                      |
|    \\/     M anipulation  |                                                 |
\*---------------------------------------------------------------------------*/
FoamFile
{
    version     2.0;
    format      ascii;
    class       volScalarField;
    location    "0.45";
    object      voidfraction;
}
// * * * * * * * * * * * * * * * * * * * * * * * * * * * * * * * * * * * * * //

dimensions      [0 0 0 0 0 0 0];

internalField   nonuniform List<scalar> 
10571
(
0.928769
0.912852
0.93398
0.882797
0.857727
0.932909
0.93473
0.917527
0.87045
0.867012
0.926951
0.897659
0.916795
0.920684
0.916134
0.930645
0.893973
0.94381
0.875266
0.840056
0.849866
0.90908
0.878069
0.822934
0.994855
0.998465
0.990365
0.988902
0.99541
0.994621
0.994991
0.993437
0.993436
0.996434
1
0.992953
0.995133
0.994237
0.988727
0.992202
0.992833
0.992535
0.995738
0.994477
0.981093
0.996176
0.989769
0.997083
1
0.996785
0.996067
0.998084
0.999141
0.997087
0.997538
0.996924
0.996478
0.996734
1
0.998117
0.998271
0.996735
0.983953
0.991619
0.996297
0.996909
0.997822
0.996543
1
0.999309
0.998295
1
1
0.998322
0.997918
0.997108
0.99913
0.999361
0.99834
0.996934
0.996728
0.993132
1
0.998251
0.997479
0.996465
0.981763
0.988899
0.99658
0.9968
0.998258
0.999002
0.99797
0.995125
0.998251
0.9993
0.997472
0.995744
0.99936
1
0.998254
0.998954
0.997889
0.996712
0.994033
0.99996
1
0.997872
0.998353
0.995738
0.986173
0.988633
0.998076
0.996746
0.996796
0.998056
0.991945
0.997522
0.997887
1
1
0.993615
0.995411
0.998375
0.998248
0.997061
0.997334
0.995733
0.994922
0.996095
0.722503
0.996151
0.999019
0.998055
0.996547
0.991478
0.991963
0.524774
0.997384
0.99524
0.99787
0.998039
0.98807
0.998645
0.998943
1
1
0.993783
0.994937
0.99702
0.999127
0.999358
0.996768
0.996298
0.995553
0.998042
1
1
0.995433
0.99894
0.99601
0.986766
0.99036
1
0.998256
0.996366
0.997534
0.998061
0.995262
0.997619
0.997444
0.993628
0.999301
0.99956
0.995127
0.996085
0.998036
0.997687
0.998243
0.997992
0.99647
0.995447
0.999123
1
1
0.997192
0.998267
0.996984
0.986812
0.985291
1
0.997444
0.995868
0.998582
0.998812
0.99473
1
0.995857
0.998279
0.999581
1
0.995519
0.99406
0.999357
0.999126
1
0.998883
0.997417
0.996026
0.995678
1
0.996811
0.995771
0.998016
0.996996
0.989053
0.983802
0.999402
0.998496
0.998333
0.997566
0.998777
0.993046
0.997754
0.99707
0.99713
0.996812
0.99832
0.998043
0.997056
0.999247
0.998074
0.999004
0.996782
0.994845
0.996532
1
1
0.997648
0.996727
0.986651
0.994574
0.996542
0.99712
0.99869
0.99842
0.990104
0.995121
0.996678
1
0.996812
0.994288
0.996459
0.999223
0.999159
1
0.995792
0.996902
0.99443
0.996613
0.997911
1
0.999056
0.995771
0.987248
0.989842
0.996512
0.996812
0.998013
0.996392
0.997559
0.992876
0.998249
0.995729
0.998901
0.997872
0.996797
1
0.998829
0.997399
0.997912
0.995742
0.993056
0.991439
0.996811
0.997059
0.99813
0.997989
0.986715
0.98882
0.997204
0.997589
0.997934
0.996996
0.995665
0.997135
0.994988
0.99797
0.996701
0.987848
0.993797
0.999662
0.998618
0.998041
0.998592
0.993955
0.992057
0.989303
1
0.998986
0.998638
0.997131
0.984078
0.975786
0.998316
0.997412
0.998047
0.999332
0.99657
0.993999
0.998853
1
1
0.99608
0.994201
0.999358
0.998979
0.995069
0.998375
0.996151
0.993026
0.997209
1
0.996383
0.997634
0.996294
0.983784
0.975421
0.995911
0.997783
0.998132
0.997463
0.994469
0.994812
0.997071
0.99797
0.996592
0.996192
0.994775
0.999054
0.997777
1
0.998749
0.996646
0.989916
0.995775
1
0.998107
0.9984
0.997487
0.985287
0.976539
0.998557
0.99788
0.997008
0.995994
0.99804
0.996477
0.997252
0.993909
0.994503
0.994064
0.992415
0.996723
0.998288
1
0.997284
0.995272
0.989924
0.99434
1
0.997837
0.9991
0.996271
0.982888
0.979442
0.998256
0.997254
0.996948
0.998397
0.996359
0.991676
0.998762
1
0.996811
0.995968
0.99491
0.998953
0.998348
0.997062
0.998722
0.996097
0.990849
0.995774
1
0.997702
0.998523
0.996128
0.984047
0.991413
0.996783
0.995643
0.996519
0.999666
0.995028
0.997213
0.996829
0.997969
0.997472
0.993504
0.998787
0.99875
0.997446
0.999392
0.998344
0.995314
0.988034
0.993176
1
0.997398
0.998373
0.996705
0.984634
0.988662
0.998256
0.997238
0.99717
0.99516
0.99069
0.990091
0.998279
0.99454
0.996812
0.999944
0.998281
0.996082
0.997717
0.999021
0.998733
0.995084
0.987412
0.996279
0.996812
0.998074
0.99855
0.996887
0.982203
0.978055
0.998557
0.996604
0.998189
0.996462
0.99349
0.997407
0.999366
0.99433
1
0.994792
1
0.999966
0.999429
0.99686
0.999035
0.994596
0.987182
0.997752
0.99989
1
0.998677
0.996279
0.982032
0.99075
0.997355
0.996976
0.998148
0.997329
0.98495
0.995664
0.998249
0.99993
1
0.998376
0.999056
0.99902
0.997236
0.999797
0.998462
0.996358
0.988527
0.996627
1
0.998986
0.99895
0.995842
0.976289
0.987637
0.998256
0.996641
0.998157
0.994759
0.98467
0.998722
0.999426
0.99923
1
0.998152
0.998247
0.998412
0.996756
0.999662
0.997925
0.995706
0.990586
0.995542
1
0.996451
0.997915
0.996972
0.980683
0.990388
0.997445
0.997174
0.998213
0.99299
0.98768
0.996399
0.995653
0.99629
0.998021
0.995464
0.998382
0.99902
0.998558
0.999966
0.999222
0.994489
0.989803
0.995154
1
0.997837
0.998381
0.995493
0.974238
0.987607
0.999128
0.998389
0.998747
0.996094
0.98782
0.992799
0.994113
0.99384
0.993623
0.988857
0.997843
0.99902
0.997176
0.999358
0.998104
0.996089
0.988922
0.997791
0.996812
1
0.998642
0.995478
0.975932
0.990901
0.999128
0.998046
0.997586
0.994559
0.9874
0.997213
0.999124
0.99993
1
0.997816
0.997539
0.999054
0.998258
1
0.997036
0.992532
0.988422
0.998643
1
1
0.998273
0.995257
0.974789
0.99075
0.997505
0.998312
0.997987
0.991087
0.98621
0.99489
0.997373
0.99594
1
0.994065
0.997708
1
0.996846
0.999797
0.997364
0.992271
0.988922
0.996162
1
0.999392
0.998323
0.994448
0.966578
0.992292
0.997264
0.997864
0.997328
0.98401
0.98047
0.996167
0.997404
0.99727
1
0.991882
0.997337
1
0.999129
0.999021
0.997749
0.993326
0.989084
0.996317
1
0.998107
0.998985
0.994792
0.964879
0.987788
0.998557
0.998244
0.998088
0.989752
0.97536
0.995703
0.994686
0.99139
1
0.999888
0.997708
0.998818
0.997026
1
0.998932
0.990766
0.987388
0.998992
1
1
0.998215
0.995559
0.957689
0.987002
0.997534
0.997133
0.998241
0.993891
0.97123
0.995935
0.997615
0.9986
1
0.991937
0.998247
0.995981
0.997747
1
0.998451
0.988894
0.980817
0.998837
1
0.99875
0.999219
0.996477
0.956246
0.991083
1
0.99851
0.997243
0.993324
0.97977
0.995509
0.998581
0.99923
1
1
0.995483
1
0.998949
0.999797
0.997192
0.988471
0.975696
0.997751
0.998021
1
0.999115
0.996415
0.954102
0.987697
0.997204
0.997949
0.997069
0.994859
0.98306
0.994464
0.995622
0.99629
0.995712
0.995016
0.991303
0.999054
0.998558
0.998852
0.993407
0.986265
0.96978
0.997015
1
0.998581
0.999058
0.997232
0.944999
0.985217
0.999128
0.997036
0.998415
0.996528
0.98628
0.997832
0.994928
1
1
0.996528
0.997067
0.999358
0.999309
0.998413
0.993705
0.985121
0.964291
0.997208
1
0.99902
0.998827
0.99681
0.933942
0.977843
0.997775
0.996629
0.998452
0.998197
0.97865
0.999884
0.997554
0.99685
1
0.99888
0.998112
0.99902
0.998317
0.99892
0.981763
0.98372
0.964392
0.997751
0.995822
1
0.998923
0.997309
0.91736
0.983798
0.997685
0.996624
0.997789
0.996395
0.98936
0.999187
0.999124
1
1
0.998376
0.996797
0.997703
0.999429
0.999088
0.997116
0.984695
0.913107
0.958823
0.996811
0.99902
0.998611
0.996163
0.892154
0.950547
0.996302
0.99748
0.998035
0.998164
0.98684
0.990902
0.999426
0.99797
0.996811
0.99664
0.996696
0.997973
0.998528
1
0.997409
0.971601
0.937528
0.867087
0.997911
1
0.998231
0.988857
0.839608
0.876791
0.998557
0.996871
0.99888
0.992856
0.97683
0.995005
0.998249
0.99797
0.99978
1
0.996562
0.997771
0.994081
0.998379
0.998104
0.979929
0.97169
0.806641
0.996921
0.998243
0.998669
0.993158
0.874388
0.754255
0.999128
0.997145
0.997522
0.991955
0.949599
0.996748
0.997947
0.99923
1
1
0.998348
0.992062
0.97969
0.995914
0.997669
0.98727
0.983075
0.935288
1
0.996282
0.998496
0.992972
0.866923
0.745022
1
0.996778
0.997995
0.992756
0.863413
0.990475
0.997947
0.99594
0.9989
0.995744
0.996426
0.993007
0.959109
0.999021
0.996196
0.992044
0.987711
0.96146
1
0.99804
0.997661
0.98804
0.95991
0.836153
0.997956
0.988319
0.996713
0.975865
0.659337
0.978786
0.994021
1
1
0.993952
0.996865
0.997095
0.972005
0.997366
0.996341
0.9928
0.992981
0.978093
1
0.998716
0.996492
0.985097
0.979576
0.871006
0.994108
0.982509
0.988781
0.97236
0.610375
0.874618
0.935954
0.99671
0.997581
0.999384
0.99528
0.998987
0.959209
0.998987
0.995876
0.994589
0.995004
0.97806
1
0.998986
0.994977
0.986402
0.980966
0.863158
0.991521
0.970601
0.982499
0.98608
0.715587
0.96063
0.937343
0.989989
0.996922
0.99412
0.984898
0.996589
0.961702
0.997096
0.996894
0.996634
0.997112
0.979378
1
0.998242
0.992488
0.988721
0.984865
0.898313
0.991281
0.982828
0.970108
0.976199
0.702917
0.99307
0.964103
0.888699
0.96823
0.991041
0.96241
0.959366
0.977412
0.998413
0.995487
0.99764
0.996046
0.99124
1
0.997972
0.99465
0.988969
0.98945
0.87939
0.993085
0.989199
0.975376
0.9538
0.735817
0.982538
0.981191
0.909489
0.960315
0.995408
0.984899
0.969466
0.962063
0.998042
0.995002
0.995698
0.995388
0.983023
1
0.998073
0.995365
0.994866
0.990925
0.869989
0.993897
0.995252
0.989246
0.954734
0.814918
0.941003
0.986563
0.95569
0.972957
0.89428
0.964338
0.962474
0.97582
0.992065
0.992381
0.994539
0.994839
0.99093
1
0.997905
0.99745
0.99504
0.990228
0.864246
0.993927
0.996132
0.99149
0.950128
0.839418
0.981917
0.981879
0.973537
0.910186
0.833281
0.976136
0.980308
0.974348
0.988924
0.991057
0.992831
0.990239
0.986587
0.99934
0.99804
0.997138
0.982534
0.981274
0.813944
0.99546
0.995538
0.982827
0.955002
0.939092
0.934715
0.968863
0.990479
0.947233
0.912264
0.948766
0.971391
0.938514
0.953606
0.936832
0.952546
0.983236
0.983677
0.996372
0.996113
0.988869
0.969032
0.982977
0.858225
0.994408
0.983409
0.97177
0.98391
0.958555
0.876051
0.973578
0.98502
0.954813
0.963538
0.979604
0.949537
0.949112
0.955156
0.985071
0.984254
0.981883
0.968013
0.994721
0.995066
0.989099
0.975529
0.984225
0.911621
0.998016
0.976953
0.979952
0.991821
0.969686
0.916825
0.993719
0.99867
0.876396
0.925116
0.970024
0.971823
0.943511
0.944591
0.991977
0.979733
0.959259
0.941957
0.993293
0.991889
0.98758
0.977407
0.983783
0.956128
0.999098
0.97923
0.987743
0.998164
0.989428
0.926235
0.996527
0.99923
0.865289
0.923324
0.971407
0.959961
0.847779
0.930465
0.989752
0.987873
0.982093
0.834169
0.994172
0.991652
0.983772
0.987323
0.993122
0.978502
0.995701
0.98441
0.996358
0.997763
0.994189
0.936961
0.998943
0.99601
0.892011
0.942318
0.974145
0.979327
0.869233
0.972245
0.986551
0.990141
0.976201
0.752243
0.976136
0.981345
0.991126
0.995222
0.994411
0.976906
0.997595
0.991517
0.995743
0.994192
0.98845
0.94665
0.994201
0.993489
0.855205
0.902836
0.984427
0.992738
0.92657
0.972042
0.989504
0.993744
0.976609
0.769109
0.985484
0.989591
0.994554
0.995617
0.993791
0.970951
0.996362
0.989538
0.997841
0.995493
0.99097
0.957649
0.99846
1
0.808588
0.955819
0.983045
0.993853
0.931954
0.974001
0.990374
0.994639
0.979278
0.881356
0.981747
0.985231
0.994092
0.997216
0.996778
0.966326
0.995881
0.987604
0.99827
0.998064
0.99202
0.965079
0.997675
1
0.823541
0.970714
0.990259
0.983551
0.950644
0.973021
0.991252
0.994823
0.969594
0.852729
0.982188
0.992261
0.990161
0.994935
0.997759
0.973339
0.909841
0.986805
0.998977
0.998064
0.98782
0.952768
0.997554
0.99853
0.909506
0.962991
0.989045
0.991657
0.96245
0.972751
0.993045
0.99594
0.95812
0.79349
0.860916
0.945183
0.987142
0.9982
0.998314
0.968654
0.96531
0.992086
0.998921
0.997096
0.98537
0.963027
1
1
0.931293
0.956216
0.997034
0.993515
0.97603
0.995948
0.995349
0.997271
0.964667
0.731591
0.969764
0.98148
0.9905
0.998416
0.992903
0.934556
0.988998
0.996794
0.999224
0.999065
0.97648
0.961172
1
1
0.942396
0.969535
0.998955
1
0.988406
0.9974
0.999042
0.997912
0.979654
0.743645
0.976911
0.997972
0.996315
0.998382
0.989644
0.892811
0.987133
0.998821
0.999333
0.996795
0.845299
0.959007
0.998762
1
0.976695
0.997088
0.994877
1
0.994293
0.991356
0.999668
0.998473
0.983474
0.742651
0.991093
0.992869
0.999554
0.99854
0.991148
0.881255
0.982473
0.998756
0.998803
0.999032
0.726766
0.988116
0.993569
0.99797
1
1
0.975596
0.993616
0.983265
0.992538
0.98285
0.998058
0.974705
0.700535
1
0.98638
0.987488
0.996914
0.976287
0.806736
1
0.947707
0.976197
0.944148
0.8711
0.994813
0.916643
0.876757
1
0.99944
1
0.977606
0.992459
1
0.986696
0.94201
0.989181
0.776536
1
1
0.982545
0.957573
0.967478
0.841905
1
0.993269
0.974419
0.959843
0.975357
1
0.999698
1
1
1
1
1
0.999039
1
1
0.999889
0.999702
0.87987
1
1
0.999888
0.99959
0.999854
0.977244
1
1
1
1
1
1
1
1
1
1
1
1
0.999129
1
1
0.999666
1
0.942922
1
1
1
0.999888
1
0.998766
1
1
1
1
1
1
1
1
1
1
1
1
1
1
1
1
1
0.980473
1
1
1
1
1
1
1
1
1
1
1
1
1
1
1
1
1
1
1
1
1
1
1
0.996341
1
1
1
1
1
1
0.987312
1
1
1
1
1
1
1
1
1
1
1
1
1
1
1
1
1
1
0.997104
1
1
0.999888
1
1
1
1
1
1
1
1
1
1
1
1
1
1
1
1
1
1
1
1
1
1
1
1
1
1
1
1
1
1
1
1
1
1
1
1
1
1
1
1
1
1
1
1
1
1
1
1
1
1
1
1
1
1
1
1
1
1
1
1
1
1
1
1
1
1
1
1
1
1
1
1
1
1
1
1
1
1
1
1
1
1
1
1
1
1
1
1
1
1
1
1
1
1
1
1
1
1
1
1
1
1
1
1
1
1
1
1
1
1
1
1
1
1
1
1
1
1
1
1
1
1
1
1
1
1
1
1
1
1
1
1
1
1
1
1
1
1
1
1
1
1
1
1
1
1
1
1
1
1
1
1
1
1
1
1
1
1
1
1
1
1
1
1
1
1
1
1
1
1
1
1
1
1
1
1
1
1
1
1
1
1
1
1
1
1
1
1
1
1
1
1
1
1
1
1
1
1
1
1
1
1
1
1
1
1
1
1
1
1
1
1
1
1
1
1
1
1
1
1
1
1
1
1
1
1
1
1
1
1
1
1
1
1
1
1
1
1
1
1
1
1
1
1
1
1
1
1
1
1
1
1
1
1
1
1
1
1
1
1
1
1
1
1
1
1
1
1
1
1
1
1
1
1
1
1
1
1
1
1
1
1
0.444632
0.524551
0.476021
0.456981
0.508251
0.47253
0.470714
0.448632
0.478265
0.452954
0.468405
0.461216
0.489258
0.476334
0.482873
0.481152
0.509474
0.496551
0.468686
0.502366
0.476244
0.451952
0.43455
0.461367
0.45306
0.432136
0.465381
0.498237
0.477238
0.466629
0.509716
0.507632
0.512252
0.51849
0.511445
0.509881
0.484775
0.459411
0.448213
0.44641
0.463095
0.511597
0.496846
0.519746
0.498678
0.470757
0.49256
0.457799
0.52149
0.46915
0.470204
0.493224
0.512398
0.478941
0.504286
0.50942
0.480607
0.489081
0.46786
0.459341
0.490593
0.461907
0.501616
0.536246
0.512461
0.493531
0.455485
0.506791
0.445597
0.47252
0.448532
0.454244
0.479447
0.439898
0.450312
0.489571
0.477248
0.474242
0.488807
0.488609
0.49502
0.50445
0.561177
0.514331
0.448767
0.463565
0.457224
0.448436
0.460231
0.474912
0.482217
0.520257
0.481055
0.580636
0.496308
0.525381
0.930447
0.991578
0.942179
0.942544
0.93399
0.98356
0.988217
0.970217
0.896377
0.864611
0.981545
0.96335
0.961005
0.877849
0.976495
0.924509
0.977891
0.916467
0.927823
0.943696
0.979036
0.979588
0.971008
0.933837
0.831729
0.871834
0.826998
0.963889
0.97334
0.90349
0.969212
0.851086
0.988506
0.932371
0.939416
0.933868
0.977804
0.980696
0.963297
0.90539
0.911689
0.979219
0.988741
0.996498
0.896341
0.896279
0.965422
0.957603
0.978674
0.871459
0.887494
0.988168
0.992044
0.979568
0.886278
0.990131
0.929009
0.892443
0.91377
0.971515
0.94706
0.98282
0.988005
0.852412
0.840192
0.788333
0.92288
0.968924
0.879382
0.930992
0.991199
0.904808
0.979141
0.896483
0.916961
0.973329
0.965495
0.960351
0.86222
0.901215
0.928609
0.889739
0.951976
0.846929
0.995765
0.996461
0.993247
0.993299
0.996805
0.996959
0.997808
0.998138
0.993437
0.997496
0.99685
0.996571
0.999735
1
1
0.99676
0.997959
0.994272
0.997946
0.986133
0.998417
0.997769
0.996399
0.996495
0.998462
0.99509
0.997572
0.999157
0.99529
0.995665
0.996316
0.996225
1
0.996023
1
0.992113
0.998677
0.99685
0.999025
0.997276
0.996031
0.991237
0.992706
0.998152
0.999482
0.997864
1
0.997014
0.997806
0.996891
0.980693
0.99176
0.996849
0.98877
0.995564
1
0.991464
0.999735
0.996818
0.998198
0.999088
0.997425
0.995496
0.991721
0.996306
0.998458
0.996398
0.990945
0.999677
0.997357
0.991445
0.992711
0.995489
0.992262
0.99068
0.994766
0.995615
0.991317
0.993343
0.992287
0.994786
0.99833
1
0.992816
1
0.993956
1
0.995633
0.996047
1
0.99707
0.998825
0.998652
0.99793
0.996817
0.998854
0.998804
0.997997
1
0.997447
1
0.994776
0.99592
0.99682
0.998382
0.993092
0.998371
0.995009
0.998331
0.996266
0.995406
0.999104
0.995126
0.999674
0.996478
0.996603
0.994352
0.993409
0.998906
0.996646
1
0.997805
0.996232
0.995658
0.999343
0.998337
0.995623
1
1
1
1
0.999819
0.998881
0.997483
0.980251
0.984705
0.997033
0.988209
0.997996
1
0.998229
1
0.996329
1
0.997159
0.995179
0.999066
0.991394
0.99943
0.995354
0.994569
0.995141
0.994461
0.994927
0.992666
0.992093
0.998535
0.997368
0.993008
0.99861
0.995873
1
0.996657
1
0.998464
0.999614
0.99989
1
1
0.997282
1
0.996251
0.993864
0.996812
0.999226
0.998547
0.997369
1
1
0.997669
0.99702
1
0.995956
0.99666
0.997284
0.99453
0.996284
0.997182
0.997033
0.997366
0.99488
0.996037
0.995394
0.997801
0.999365
1
0.996512
0.997724
0.993239
0.997834
0.998811
0.997372
0.996923
0.998761
0.998143
1
0.995793
0.994582
0.996146
0.996835
0.993031
0.984902
0.998125
0.998144
1
0.99782
0.999265
0.996149
0.994336
0.984215
0.98546
0.990271
0.998676
0.995258
0.996717
0.99837
0.997945
0.996995
0.996839
0.997694
0.99407
0.99113
0.997388
1
0.996457
0.994985
0.997291
0.998133
0.994607
0.996644
0.994683
0.995627
1
0.997639
0.992812
1
1
1
0.998279
0.998993
1
0.996708
0.996515
0.996863
1
0.996053
0.993854
0.997911
0.995743
0.999122
0.996001
0.996631
0.999011
0.996636
0.991863
0.997976
1
0.995264
0.99798
0.993411
0.996038
0.99665
0.996752
0.996075
0.993773
0.997624
1
0.996226
0.997838
0.998251
0.998368
0.997603
0.99595
0.99598
0.998844
0.995588
1
0.999122
0.997368
1
0.996184
0.993775
0.995474
0.993758
0.998492
0.965717
0.998243
1
0.993622
0.996546
0.999264
0.984065
0.987674
0.991079
0.963624
0.987014
1
1
0.998088
0.998313
0.998335
0.997083
0.996536
0.998987
0.996579
0.99122
0.999878
0.998924
0.998754
0.995121
0.999603
0.99508
0.990974
0.996152
0.997971
0.991454
1
0.995508
0.99435
1
0.999108
0.990563
0.998822
0.99775
0.996817
0.995933
0.997979
0.98808
0.995712
0.998878
0.999122
1
0.99671
0.99894
0.99609
0.990776
0.99989
0.997696
1
0.997277
1
0.99798
1
0.993977
0.996752
0.996223
0.997255
0.994995
0.994218
0.998111
0.999441
0.998228
0.993869
0.99997
0.998954
0.995109
0.993692
0.993711
0.998252
0.997794
1
0.995881
0.998877
1
0.997698
0.9768
0.993904
0.874835
0.996299
0.997584
0.99672
0.996224
0.47926
0.542441
0.396671
0.999662
0.974975
0.994704
0.92374
0.994607
0.999613
0.996811
0.99297
1
0.871766
0.987977
0.984354
0.991065
0.99794
0.989631
0.996651
0.384542
0.733934
0.473996
0.993454
0.910775
0.999435
0.967637
0.995954
0.997977
0.996173
0.998369
0.993945
0.997383
0.999043
0.997075
0.996367
0.992978
0.999816
0.998372
0.99707
0.992923
0.998225
1
0.997273
0.997971
1
0.996224
1
0.995779
0.995044
0.986391
0.998874
1
0.998369
1
0.997037
0.998669
0.990171
0.990729
1
0.996555
0.997486
1
0.997445
0.997971
0.999273
0.998877
0.996812
0.997485
0.997754
1
1
1
0.998607
0.995355
0.996692
0.999055
0.994455
0.996733
0.99535
0.996416
0.994753
0.998989
0.996244
0.998257
0.999246
0.996866
0.997021
0.99637
1
1
1
1
1
1
1
0.998723
0.996811
0.998788
0.997716
1
0.997365
0.999177
0.997957
1
0.998902
0.999
0.998006
1
1
1
1
1
0.999148
1
1
0.996303
0.999535
1
0.998242
0.998877
1
0.983465
1
0.98671
0.998838
0.979707
0.997041
1
1
1
1
1
1
0.999149
1
1
0.993994
1
0.99667
0.997955
0.997459
1
0.99567
0.994833
0.997377
0.995274
0.996095
0.992413
0.998205
0.995944
1
0.991231
0.998627
1
1
1
0.991744
0.995802
0.993082
0.994732
0.995276
0.988066
0.999342
0.997749
0.997257
0.997403
0.99775
0.998793
0.998394
0.993865
0.998048
1
0.999961
0.998516
0.996811
0.995355
0.997668
0.998091
0.996632
0.990436
0.999636
1
0.996662
0.999304
0.997144
0.99791
0.994246
0.997616
0.997166
0.991878
0.993347
0.997407
0.999381
0.996015
0.997272
0.996556
0.998556
0.994277
0.997846
0.998377
0.999007
1
0.999144
1
1
1
1
1
0.995587
0.993622
0.999121
0.997871
1
0.998213
0.999791
0.995046
0.999016
0.997605
1
0.994851
1
1
1
1
1
1
1
0.999097
0.997394
0.998916
1
1
0.998877
0.999968
0.97976
0.995662
0.986472
0.998702
0.978212
0.998386
1
1
0.999148
1
0.999097
1
1
0.995814
0.999302
0.998086
0.997244
0.994429
0.997955
0.997129
0.989087
0.996821
0.995081
0.996472
0.999892
0.995074
0.989721
0.994791
0.998428
0.999951
0.99434
1
1
1
1
0.996222
0.996362
0.99151
0.997476
0.998684
0.997009
0.993745
0.999612
0.996818
0.995651
1
0.993526
1
0.997978
0.989265
0.998901
0.998877
0.997365
0.994722
0.997484
0.99473
0.998424
1
0.995932
0.99497
0.998877
1
0.999233
0.996099
0.998885
0.999131
0.996036
0.99873
0.997648
0.997423
0.993652
0.994594
0.99786
1
0.998795
0.998734
0.99248
0.997565
0.998916
0.997928
0.992504
0.99849
0.997911
0.997183
0.998374
0.9989
0.999303
0.998685
0.996445
0.998924
0.997142
0.999675
0.997416
0.998038
1
1
1
1
1
1
1
0.999091
1
1
1
0.998877
0.996163
0.984459
0.999574
0.992193
0.995749
0.99145
0.995253
1
1
1
0.999692
1
1
1
0.994768
1
0.997195
0.998369
0.996488
0.99997
0.998317
0.998369
0.997941
0.993938
0.997648
0.998401
0.99838
0.994758
0.99942
0.997817
0.987537
0.997971
0.993913
0.994441
0.995061
0.994231
0.994864
0.993635
0.996974
0.996488
0.999366
0.999961
0.998903
0.997338
0.995957
0.994633
1
0.998878
0.997365
0.9989
0.998916
0.997547
0.998061
1
0.996812
0.999121
0.998877
0.998535
0.998187
0.996656
0.996656
0.994846
0.997407
0.996451
0.988631
0.993888
0.994457
0.996972
0.996185
0.998705
0.998513
0.996752
1
0.999074
0.999059
0.994852
0.998
0.995316
1
0.996577
0.993691
0.996811
0.996032
0.997223
1
0.9977
0.997329
0.997535
0.998273
0.999961
0.9989
1
0.997018
0.994604
0.991697
0.994936
0.995585
0.982003
1
0.997977
0.997096
0.994769
0.996125
0.994828
0.996173
0.996569
0.997548
0.995322
0.995579
0.998365
0.997322
0.997277
0.999117
0.995652
0.993922
0.997971
0.997271
0.993958
0.993634
0.995664
0.996164
0.991878
0.996898
0.993635
0.997192
0.998333
0.994294
0.99993
0.996794
0.998536
0.997911
0.997485
0.995185
1
0.997523
0.993157
0.999818
1
0.997801
0.999152
1
1
0.997978
0.994358
1
0.994218
0.995441
0.995606
0.993224
0.994578
0.995948
0.999642
0.996742
0.999967
0.997398
0.997387
0.99781
0.998089
0.996796
0.996516
0.999442
0.997755
0.996811
0.998425
0.998142
1
0.998243
0.994264
0.996839
0.996474
0.993405
1
0.998243
0.998877
1
0.999121
0.995508
0.992702
0.993155
0.987548
0.991108
0.985216
1
1
0.997163
0.998369
0.998335
0.996332
0.998087
1
0.996307
0.995576
0.997263
0.995821
0.995261
0.995306
0.996656
0.993788
0.990362
1
0.994053
0.993022
0.991549
0.988966
0.993114
0.993634
0.997598
1
0.99689
0.997753
0.996927
0.99349
0.994076
0.987873
0.996811
0.993886
0.996488
0.997911
0.998607
0.999122
0.996668
0.998878
0.99956
0.999061
0.99671
1
0.998954
0.99596
1
0.994638
0.997408
0.999089
0.99748
0.995896
0.995144
0.999382
0.996742
0.997826
0.999667
0.997507
0.997303
0.999868
0.996492
0.998044
0.989862
0.995162
0.996811
0.997002
0.997291
0.996811
0.996305
0.995221
0.99065
0.991165
0.995977
1
1
0.998877
0.996811
0.999939
0.998877
0.996044
0.986576
0.986943
0.987251
0.989358
1
1
0.997329
1
0.99667
0.996753
0.999802
1
0.997003
0.996708
0.995562
1
0.996462
0.995365
0.997659
0.996723
0.995662
0.994333
1
0.994805
0.996378
0.995857
0.994533
1
0.99663
0.994184
0.996769
0.999613
0.996817
1
0.995191
0.993309
0.995822
0.997098
0.995034
1
0.997717
0.994762
0.999091
0.999536
0.996702
0.994215
1
0.999582
1
0.997214
0.995612
0.994788
0.996306
1
0.997872
0.995657
0.996425
0.997657
0.994549
0.998583
0.998548
0.998918
0.996347
0.997133
0.996248
0.995943
0.991186
0.998645
0.996921
0.994912
0.999187
0.996701
0.998243
0.997307
0.996809
0.99279
0.993948
0.993509
0.998758
0.997096
0.993623
0.999121
0.998141
0.982854
0.989006
0.974937
0.978457
0.984436
1
0.995954
0.999044
0.995163
0.997518
0.997414
0.999176
0.996457
0.997155
0.995516
0.996169
0.998361
0.997096
0.996461
0.999027
0.995818
0.990548
0.997272
0.996642
0.997191
0.996817
0.997832
0.99556
0.996817
0.998877
1
0.994987
0.996592
0.998134
0.996009
0.996794
0.99547
1
0.994544
0.998698
1
0.996711
0.996185
0.999394
0.997755
0.997361
0.999152
1
0.995956
1
0.992756
0.997353
0.993949
0.996604
0.995054
0.993224
0.991673
0.995203
0.998113
0.999213
0.998418
0.997126
0.999129
0.99837
0.996837
0.997065
0.995313
0.997971
0.998878
1
0.997002
0.998878
0.996811
0.993004
0.995854
0.996809
0.994146
0.992737
0.99747
0.997637
0.997367
1
0.995335
0.996592
0.989119
0.987378
0.976357
0.98868
0.986178
0.991211
0.997977
0.997197
0.996175
0.998214
0.997444
0.998054
0.994488
0.993492
0.996583
0.996777
0.997796
0.99803
0.99338
0.998632
0.999435
0.995939
0.995942
0.995243
0.994715
1
0.993264
0.99707
0.996817
0.998915
1
0.993991
0.998102
0.996817
0.99804
0.992613
0.999861
0.996811
0.997562
0.995912
1
0.99288
0.991613
0.999
0.998839
1
1
0.998916
0.997978
1
0.99791
0.99394
0.991643
0.996067
0.998601
0.994064
0.993979
0.995382
0.998243
0.997078
0.998352
0.995431
0.999309
0.994155
0.996046
0.99525
0.995243
0.998671
0.995124
1
1
0.999265
1
0.997365
0.995037
0.993509
0.987401
0.995673
0.993619
0.996486
0.998877
1
0.997364
0.997793
0.991538
0.991211
0.985518
0.995934
0.986643
0.997977
0.997977
0.997164
0.994094
0.996913
0.997655
0.997164
0.995275
0.998154
0.994021
0.99626
1
0.99813
0.997316
0.998267
1
0.995799
0.9993
0.997831
0.995047
1
0.996593
0.995651
0.996817
0.998877
1
0.997554
0.996592
0.996817
0.996569
0.9977
0.995958
0.996152
0.995279
0.998547
0.997471
1
0.998274
0.997123
0.999961
0.994283
0.998062
1
1
0.999303
0.99798
0.999303
0.993051
0.995978
0.996974
0.994008
0.997095
0.998838
0.997364
0.995111
0.997759
0.997701
0.995674
0.998314
0.998286
0.994917
0.997971
0.996642
0.999265
0.993623
0.99997
0.997755
1
0.996336
0.989167
0.990429
0.996434
0.991012
0.99681
0.999121
0.997754
1
0.997516
0.999652
0.979778
0.985017
0.982314
0.995604
0.98854
0.99993
0.996512
0.997428
0.999831
0.996761
0.998527
0.999011
0.998313
0.995974
0.996248
0.99547
0.99627
0.997529
0.994051
0.999057
0.998361
0.993209
0.997901
0.995243
0.992903
1
0.990941
0.998097
1
0.997831
1
0.994867
0.997211
0.999671
0.99797
0.997979
1
1
0.997988
0.99997
0.995712
0.996634
0.997608
0.998849
0.998916
0.997252
0.996002
1
0.998536
0.998815
0.990597
0.995681
0.994939
1
0.996877
0.998376
0.996824
0.998123
0.997755
0.99837
0.998748
0.997761
0.996906
1
0.999374
0.996097
0.993633
0.995104
0.997755
0.996811
0.999304
0.995549
0.993623
0.997365
0.994401
0.996809
0.993682
0.993404
0.99571
0.999273
0.998916
1
0.998243
0.998877
0.989779
0.987763
0.980229
0.988461
0.983432
0.998814
0.996652
0.99423
0.99955
0.994643
0.999068
0.994525
0.993813
0.991736
0.993959
0.997233
0.998361
0.998397
0.995211
0.999666
0.998361
0.99755
0.993633
0.995593
0.997101
1
0.99609
0.994715
1
0.993686
0.999451
1
0.999768
0.996818
1
1
0.997979
0.990435
0.996634
0.995913
0.996921
0.996633
0.995912
0.99682
0.999613
0.99989
0.99379
0.999264
1
0.997978
0.995542
1
0.998263
0.998689
0.998438
0.995576
0.997214
0.998898
0.997787
1
0.999044
0.998366
0.995554
0.993651
0.996573
0.996158
0.99972
0.998671
0.998839
0.996812
0.996488
0.997755
1
0.999697
0.995037
1
0.995465
0.998427
0.990429
0.997365
0.998683
1
0.99894
0.997328
0.994285
0.991095
0.98156
0.995714
0.982965
0.995745
0.99993
0.998055
0.995276
0.997306
0.999128
0.99812
0.992744
0.996186
0.994815
0.997294
0.996723
0.996995
0.993928
0.99404
0.998361
0.988236
0.99993
0.996012
0.995108
1
0.99454
0.99411
1
0.998877
1
0.998218
0.999961
0.996927
0.992577
0.999582
0.995469
1
0.997795
0.999364
1
0.992492
0.997274
0.994731
1
0.996811
0.997607
0.998877
1
0.997908
0.99596
1
0.992184
0.999136
0.998536
0.996752
0.994608
0.99711
0.99847
0.996741
1
0.999002
0.995433
0.999944
0.993573
0.999183
0.997062
0.994472
0.997794
1
0.998547
0.995742
1
0.999697
0.992315
0.99043
0.993254
0.996156
0.996809
0.999303
0.998142
1
0.998303
0.995547
0.991759
0.986645
0.982099
0.993735
0.986214
1
1
0.997198
0.999606
0.992252
0.997113
0.999044
0.996738
0.99667
0.993076
0.999118
0.996723
0.992821
0.992433
0.99632
0.998417
0.990897
0.995593
0.995032
0.994444
1
0.998141
0.994986
0.993523
0.997909
0.999012
0.999124
0.997017
0.996817
0.997689
0.998258
0.999303
1
0.997369
0.998547
1
0.996904
0.998395
1
1
1
0.998364
0.999264
0.997979
1
0.99805
0.99798
0.994968
0.996336
0.998146
1
0.993619
0.994488
0.99834
0.997191
0.995915
0.998276
0.999129
0.996347
0.998088
0.995249
0.997272
0.998041
0.997639
1
1
0.99849
1
1
0.994403
0.99791
0.998837
0.994582
1
0.999
0.998955
0.996921
1
0.998916
0.995715
0.982696
0.987995
0.987359
0.981568
1
1
0.997758
0.997919
0.992918
0.997083
0.996867
0.998031
0.99673
0.993595
0.996686
0.997288
0.998631
0.992372
0.998236
0.997852
0.991877
0.998041
0.992303
0.996497
0.99078
0.996399
1
1
0.996631
0.999781
0.997946
1
0.996817
0.997969
0.994356
0.997979
1
0.996634
0.998244
1
0.996981
0.997941
0.996457
0.997329
1
0.999091
0.997755
0.99993
0.998257
1
0.998677
0.998083
0.996545
0.999057
0.998824
0.997034
0.99407
0.998666
1
0.999374
1
0.998107
0.998258
0.997726
0.996581
0.997971
1
0.99822
1
0.999061
0.998878
1
0.998273
0.998154
0.99681
0.995697
0.997246
0.9989
0.995911
0.997754
1
0.997637
0.999225
0.987254
0.98618
0.991745
0.988348
0.986834
1
0.996722
0.996802
0.995388
0.997549
0.998256
0.994327
1
0.998002
0.987708
0.996504
0.996666
0.991318
0.984165
0.994982
0.994574
0.990827
1
0.997271
0.993115
1
0.994812
0.996194
1
0.997289
1
0.997494
0.997405
1
0.996149
0.998258
0.995958
0.996812
0.995512
0.995065
0.994721
0.99702
0.997941
0.995911
0.996671
1
0.998819
0.999923
0.995608
0.997978
0.997284
1
0.993171
0.998332
0.996356
0.998096
0.997094
0.997586
0.998178
0.999888
0.999374
0.999123
0.996815
0.998595
0.999044
0.995794
0.997971
0.997271
0.997678
1
0.998092
0.998877
1
0.998092
0.995613
0.99461
0.999612
0.995582
1
0.999818
0.997754
1
0.997546
0.998877
0.991649
0.974954
0.991866
0.997802
0.975449
0.995257
0.999581
0.996143
1
0.997034
0.998466
0.998054
0.995669
0.993885
0.990789
0.995136
0.988021
0.995492
0.986392
0.995317
0.995026
0.989146
0.996572
0.991745
0.993205
0.993634
0.991831
0.996829
0.996817
0.995547
0.999781
0.997403
0.998877
0.993525
0.996009
0.997979
0.995958
0.992634
0.999226
0.99561
1
0.997523
0.997668
0.998758
1
0.996811
0.999122
0.998877
0.997978
0.997978
1
1
0.995208
0.998093
0.998081
0.994848
0.997633
0.996842
0.996258
0.99837
0.996178
0.999123
0.997056
0.996741
0.996441
0.996006