/*--------------------------------*- C++ -*----------------------------------*\
| =========                 |                                                 |
| \\      /  F ield         | OpenFOAM: The Open Source CFD Toolbox           |
|  \\    /   O peration     | Version:  5.x                                   |
|   \\  /    A nd           | Web:      www.OpenFOAM.org                      |
|    \\/     M anipulation  |                                                 |
\*---------------------------------------------------------------------------*/
FoamFile
{
    version     2.0;
    format      ascii;
    class       volScalarField;
    location    "3";
    object      p;
}
// * * * * * * * * * * * * * * * * * * * * * * * * * * * * * * * * * * * * * //

dimensions      [0 2 -2 0 0 0 0];

internalField   nonuniform List<scalar> 
10571
(
165.45
188.56
194.731
194.149
196.206
190.547
202.476
205.414
205.492
187.38
187.54
202.503
212.155
212.319
210.859
192.603
209.255
210.6
208.123
203.428
184.554
178.878
170.521
171.451
60.3827
64.8373
62.7815
49.1127
68.9638
65.4798
25.0242
19.5256
11.5045
58.6931
66.766
59.9362
17.0107
9.5482
12.3236
59.8645
73.1673
15.1246
13.0952
58.7915
60.1804
32.5024
7.92896
30.9237
2.56039
1.79087
2.09155
2.51953
2.13108
2.50521
1.3469
1.32806
1.31939
2.00369
2.0261
3.31642
1.23808
1.18193
1.50108
2.01943
2.04351
1.81809
1.93218
2.04666
1.95079
2.79611
5.18447
2.19423
2.38543
2.23701
2.27218
2.34352
2.22688
2.37313
2.48089
2.50497
2.45841
2.28433
2.28985
2.39467
2.52839
2.53709
2.45581
2.29037
2.18147
2.44187
2.35814
2.25782
2.24122
2.28894
1.96853
2.31048
2.21694
2.26248
2.24676
2.20535
2.25833
2.23227
2.24276
2.2443
2.27795
2.26865
2.2445
2.18026
2.19683
2.19513
2.23711
2.26019
2.18355
2.2104
2.23081
2.23845
2.25894
2.25121
2.27391
2.26825
2.21147
2.25679
2.2207
2.20858
2.24765
2.2397
2.2157
2.21676
2.27409
2.25685
2.25623
2.22791
2.26886
2.22597
2.23308
2.25512
2.25876
2.2517
2.21661
2.21507
2.2216
2.21884
2.24192
2.21924
2.24401
2.24068
2.22715
2.24277
2.22122
2.21228
2.2401
2.24805
2.23064
2.22954
2.26462
2.24828
2.25213
2.24098
2.26989
2.22985
2.24664
2.25052
2.24564
2.24935
2.22732
2.21159
2.22738
2.20115
2.22739
2.24562
2.18927
2.24481
2.21443
2.2427
2.23056
2.23873
2.22648
2.24233
2.23261
2.24081
2.22931
2.2359
2.2423
2.24612
2.23953
2.24826
2.22645
2.24899
2.24252
2.23864
2.24716
2.22392
2.20566
2.22716
2.20479
2.22641
2.2422
2.166
2.22963
2.20152
2.24556
2.22828
2.24901
2.24907
2.24644
2.21792
2.24144
2.22863
2.23213
2.24088
2.24993
2.2366
2.23683
2.22496
2.24755
2.25017
2.24242
2.25597
2.21911
2.20367
2.2257
2.21749
2.23703
2.15202
2.2194
2.20021
2.25289
2.233
2.24646
2.25254
2.24832
2.22499
2.23277
2.23405
2.2337
2.23754
2.23956
2.23771
2.23013
2.24959
2.25872
2.24992
2.22796
2.2065
2.22377
2.24389
2.25032
2.17967
2.23614
2.22666
2.26324
2.23742
2.23629
2.25082
2.24615
2.23744
2.23015
2.23136
2.2368
2.24645
2.24657
2.24437
2.24125
2.25775
2.25623
2.25024
2.24444
2.24185
2.26182
2.27061
2.26233
2.27146
2.32172
2.32214
2.24967
2.2388
2.2243
2.23425
2.24061
2.24225
2.22671
2.22877
2.24707
2.25322
2.25143
2.24825
2.24978
2.25722
2.25366
2.25744
2.25238
2.26545
2.28019
2.28003
2.26772
2.36362
2.30058
2.33275
2.24028
2.24406
2.22326
2.22307
2.2446
2.24468
2.22888
2.23296
2.25885
2.25754
2.2577
2.25114
2.25222
2.25847
2.25401
2.26228
2.2527
2.27356
2.28018
2.27334
2.26727
2.36998
2.25968
2.29829
2.24555
2.25927
2.23876
2.23053
2.25338
2.25253
2.24586
2.24443
2.26859
2.26259
2.27273
2.26239
2.26077
2.26168
2.262
2.26793
2.26152
2.2706
2.26788
2.26819
2.26789
2.31394
2.26368
2.28551
2.26347
2.27905
2.26192
2.25366
2.26418
2.27565
2.26855
2.25845
2.27658
2.27131
2.29358
2.28282
2.27798
2.26983
2.27575
2.27647
2.27913
2.27344
2.26074
2.27066
2.2747
2.29084
2.29551
2.28376
2.28617
2.29735
2.28365
2.27962
2.27749
2.3068
2.28998
2.28044
2.2878
2.28473
2.31446
2.30483
2.29107
2.29106
2.28974
2.28826
2.2968
2.29362
2.27926
2.27803
2.28549
2.2875
2.29346
2.28814
2.30599
2.31154
2.30262
2.30012
2.29133
2.32523
2.30939
2.30339
2.30181
2.29978
2.32913
2.32581
2.30283
2.31546
2.30101
2.3002
2.31193
2.30676
2.30166
2.29225
2.2974
2.30041
2.30225
2.29819
2.32334
2.31791
2.31655
2.3169
2.3047
2.33239
2.32318
2.31719
2.31375
2.31288
2.33629
2.33673
2.31688
2.32749
2.30982
2.31165
2.32577
2.31101
2.31406
2.30477
2.30882
2.31352
2.31192
2.30901
2.33704
2.32021
2.31779
2.32913
2.31663
2.33394
2.33082
2.32527
2.32376
2.32242
2.33707
2.33543
2.32617
2.33189
2.32078
2.32127
2.33753
2.31449
2.32021
2.31345
2.31906
2.32045
2.31886
2.31631
2.34738
2.32559
2.32139
2.33798
2.32721
2.33375
2.33238
2.32765
2.32839
2.32829
2.33776
2.33629
2.32844
2.33128
2.32873
2.32801
2.33416
2.31408
2.32519
2.31967
2.32656
2.32261
2.32428
2.322
2.35994
2.33448
2.32422
2.34888
2.33884
2.33454
2.32959
2.32268
2.32836
2.32973
2.33726
2.33313
2.32976
2.32699
2.33228
2.33087
2.32963
2.31487
2.32772
2.32434
2.33079
2.32369
2.32838
2.32668
2.36407
2.34436
2.34232
2.37046
2.35022
2.33731
2.33783
2.32644
2.32817
2.32961
2.33566
2.33125
2.33098
2.32264
2.33395
2.33238
2.32798
2.32083
2.32794
2.32899
2.33509
2.32761
2.33255
2.3315
2.35629
2.34965
2.35774
2.3698
2.34614
2.33934
2.34465
2.33626
2.3282
2.33112
2.32866
2.33358
2.33455
2.32598
2.33796
2.33562
2.32927
2.32631
2.331
2.33612
2.34152
2.33387
2.33732
2.33838
2.35253
2.34909
2.3553
2.35704
2.34333
2.33807
2.34236
2.33668
2.32934
2.33515
2.3276
2.33519
2.33458
2.3355
2.34318
2.33939
2.33234
2.32941
2.33847
2.34354
2.34858
2.33907
2.34205
2.34611
2.34998
2.34712
2.34913
2.34912
2.34329
2.33759
2.33723
2.33457
2.33054
2.34177
2.33726
2.33154
2.3315
2.3426
2.34551
2.34412
2.33533
2.33023
2.34406
2.34745
2.35383
2.34358
2.34532
2.35168
2.347
2.34612
2.34378
2.3445
2.34164
2.34168
2.33147
2.33391
2.33285
2.34957
2.34049
2.33892
2.32817
2.34491
2.347
2.35141
2.33873
2.33176
2.34644
2.34762
2.3559
2.34566
2.34821
2.35353
2.34542
2.34616
2.34209
2.34309
2.34173
2.34575
2.32893
2.33211
2.33911
2.35508
2.3562
2.34424
2.32792
2.34296
2.348
2.35835
2.34244
2.33593
2.34781
2.34874
2.35705
2.34793
2.35084
2.35299
2.34643
2.3468
2.34483
2.34484
2.34783
2.34769
2.33021
2.33737
2.35618
2.35798
2.35779
2.34487
2.33152
2.34177
2.35045
2.35993
2.34565
2.34163
2.34783
2.34982
2.35632
2.34895
2.35185
2.35206
2.34947
2.34901
2.3487
2.34897
2.35483
2.34958
2.34053
2.34721
2.37193
2.36026
2.35072
2.34462
2.33405
2.34267
2.35273
2.35924
2.34841
2.34643
2.34736
2.35107
2.35581
2.35021
2.35103
2.35145
2.35352
2.35362
2.35373
2.35326
2.35868
2.35349
2.35353
2.3559
2.37679
2.36391
2.35206
2.34648
2.33882
2.34799
2.36339
2.35959
2.35221
2.35008
2.35129
2.35464
2.35674
2.35313
2.35311
2.35533
2.35803
2.35887
2.35915
2.35721
2.36018
2.35796
2.36269
2.36024
2.36755
2.36607
2.35691
2.35163
2.34846
2.35522
2.37067
2.35997
2.35773
2.35588
2.35951
2.36461
2.36142
2.35796
2.3592
2.36385
2.36283
2.36353
2.36392
2.36231
2.36142
2.36243
2.36797
2.36269
2.36028
2.36784
2.36265
2.35807
2.3596
2.36338
2.36914
2.36772
2.36422
2.3633
2.3661
2.36792
2.36674
2.36424
2.36546
2.36973
2.36721
2.36811
2.36903
2.36728
2.36428
2.36697
2.371
2.36529
2.36016
2.3687
2.36803
2.36434
2.36896
2.36829
2.36624
2.37376
2.37055
2.3705
2.3713
2.3697
2.38157
2.37081
2.37045
2.37206
2.37086
2.3729
2.37298
2.37013
2.36744
2.37146
2.37299
2.36783
2.36164
2.36866
2.37375
2.37102
2.37603
2.3703
2.36259
2.3717
2.37669
2.37808
2.3761
2.36951
2.37906
2.3774
2.37445
2.37093
2.37454
2.3778
2.37602
2.37265
2.37066
2.37601
2.37469
2.37135
2.36409
2.36966
2.37989
2.37804
2.38145
2.37444
2.36158
2.36727
2.3826
2.38389
2.37701
2.36738
2.3704
2.38223
2.37841
2.37054
2.37869
2.38272
2.37986
2.37733
2.37478
2.38183
2.37747
2.37754
2.36906
2.37299
2.385
2.38339
2.38458
2.3801
2.36731
2.36794
2.38672
2.38892
2.37885
2.36789
2.36993
2.38876
2.38302
2.37588
2.38341
2.38772
2.38465
2.38246
2.37978
2.38952
2.382
2.38367
2.37455
2.37827
2.38959
2.38782
2.38747
2.38483
2.37651
2.37436
2.38953
2.39235
2.38188
2.37493
2.37548
2.39094
2.38736
2.38231
2.38823
2.39182
2.38944
2.3877
2.38521
2.39812
2.38707
2.3894
2.38108
2.38445
2.39431
2.39425
2.38963
2.38933
2.38565
2.38328
2.39292
2.39355
2.38501
2.38278
2.38368
2.39237
2.39046
2.38726
2.39274
2.39399
2.39368
2.39224
2.39087
2.39986
2.39197
2.39326
2.388
2.39054
2.39801
2.39846
2.39283
2.39343
2.39291
2.39161
2.39662
2.39593
2.39066
2.39115
2.39206
2.39483
2.39411
2.39221
2.397
2.39693
2.39748
2.39567
2.39647
2.4001
2.39605
2.39446
2.39476
2.39597
2.40125
2.40145
2.39556
2.39836
2.4
2.39919
2.40049
2.40006
2.39946
2.39915
2.40017
2.39851
2.39861
2.39815
2.40138
2.40072
2.40148
2.39925
2.40202
2.40205
2.39968
2.39494
2.40132
2.40097
2.40461
2.40415
2.3985
2.40232
2.40847
2.40592
2.40335
2.4043
2.40897
2.40616
2.40785
2.40323
2.40406
2.40517
2.40634
2.40552
2.40592
2.40382
2.40798
2.40556
2.40347
2.39943
2.40886
2.40656
2.40885
2.40827
2.40365
2.40675
2.41475
2.41163
2.40836
2.40911
2.41554
2.41352
2.41457
2.40872
2.40994
2.41232
2.41209
2.41119
2.41149
2.40968
2.41405
2.40979
2.40848
2.40758
2.41538
2.41289
2.41448
2.41322
2.41401
2.413
2.41903
2.41706
2.41366
2.41452
2.42024
2.41908
2.41942
2.41405
2.41545
2.41817
2.41812
2.41734
2.41775
2.41639
2.42008
2.41507
2.41491
2.41643
2.42051
2.4193
2.42088
2.41985
2.42347
2.42222
2.42361
2.42218
2.41913
2.41859
2.42427
2.42265
2.42325
2.41905
2.41998
2.42215
2.4237
2.4235
2.42371
2.42279
2.42459
2.4207
2.4209
2.42326
2.42509
2.42474
2.42465
2.42476
2.4285
2.43086
2.42833
2.42677
2.42353
2.42197
2.42773
2.42553
2.42678
2.42387
2.42444
2.42508
2.4288
2.42911
2.42918
2.42863
2.42721
2.42633
2.42549
2.42772
2.42778
2.42831
2.42847
2.42879
2.43237
2.4348
2.4318
2.43034
2.42813
2.42639
2.43059
2.42909
2.43007
2.42835
2.42839
2.42989
2.43341
2.43355
2.43363
2.43317
2.43011
2.43157
2.42951
2.43136
2.42986
2.43083
2.43254
2.43282
2.43467
2.43731
2.43394
2.4332
2.43259
2.43167
2.43365
2.43217
2.43304
2.43223
2.4326
2.43283
2.43698
2.43652
2.43636
2.43665
2.43361
2.43574
2.43285
2.43487
2.43234
2.43324
2.43601
2.43596
2.43556
2.43912
2.43572
2.43579
2.43618
2.43507
2.43629
2.43497
2.43597
2.43524
2.43572
2.43572
2.43986
2.43894
2.43878
2.43905
2.43646
2.43862
2.43434
2.43801
2.43557
2.43584
2.43869
2.43801
2.43644
2.44071
2.43755
2.43806
2.43856
2.43744
2.43836
2.43764
2.43885
2.4376
2.43803
2.43819
2.44315
2.4423
2.44191
2.44173
2.43902
2.44152
2.43472
2.43865
2.43929
2.43869
2.44073
2.43949
2.43818
2.44186
2.43979
2.44003
2.44021
2.43966
2.44043
2.44049
2.44155
2.4399
2.44028
2.4406
2.44692
2.44623
2.44779
2.44593
2.4424
2.44469
2.43805
2.43886
2.44179
2.44113
2.44273
2.44146
2.44029
2.44211
2.44224
2.4417
2.44181
2.44184
2.44201
2.44331
2.44388
2.44241
2.44275
2.44287
2.45059
2.4499
2.45387
2.45039
2.44742
2.44794
2.44385
2.44061
2.44573
2.44272
2.4453
2.44415
2.44348
2.44248
2.44342
2.44293
2.44421
2.44511
2.44374
2.44605
2.44551
2.44554
2.44547
2.4452
2.45473
2.45361
2.45511
2.45611
2.45286
2.4512
2.45068
2.44534
2.44892
2.44557
2.4488
2.44808
2.44836
2.44338
2.44578
2.4444
2.44823
2.44928
2.44593
2.448
2.44696
2.44982
2.4487
2.44781
2.45873
2.45779
2.45909
2.46044
2.45568
2.45542
2.45666
2.45177
2.4483
2.44602
2.45286
2.45284
2.45392
2.44803
2.44641
2.44568
2.45307
2.45405
2.44888
2.44929
2.44816
2.45459
2.45187
2.4502
2.46139
2.46187
2.46249
2.46059
2.45647
2.46028
2.46228
2.45625
2.44803
2.44571
2.45705
2.45722
2.45828
2.45263
2.44667
2.44619
2.45756
2.45792
2.45168
2.45036
2.44891
2.45908
2.45467
2.45215
2.46261
2.46559
2.46536
2.46123
2.45647
2.46492
2.46647
2.46003
2.44946
2.44559
2.46104
2.4601
2.46182
2.45486
2.4468
2.44589
2.46082
2.46036
2.45405
2.45101
2.44912
2.46239
2.45691
2.45341
2.46459
2.46928
2.4684
2.4632
2.45674
2.4688
2.46801
2.46291
2.4484
2.44677
2.4653
2.46293
2.46565
2.45516
2.44546
2.44385
2.46292
2.4622
2.45548
2.45033
2.44748
2.46488
2.45804
2.45345
2.4679
2.47355
2.47242
2.46648
2.4573
2.47313
2.47119
2.46512
2.44481
2.44402
2.47055
2.46796
2.46841
2.45512
2.44006
2.43745
2.46597
2.46369
2.4559
2.44792
2.44236
2.4661
2.45858
2.45213
2.47279
2.47881
2.47761
2.4708
2.45854
2.47857
2.47575
2.46619
2.43857
2.43768
2.47707
2.47445
2.47023
2.45441
2.42969
2.42312
2.47137
2.46571
2.45558
2.44184
2.43144
2.46768
2.45895
2.44941
2.47966
2.4857
2.48433
2.47629
2.46062
2.48507
2.48117
2.46645
2.42437
2.41506
2.48416
2.48173
2.47263
2.45212
2.4107
2.38666
2.47878
2.46838
2.45467
2.43225
2.40928
2.47042
2.45945
2.44538
2.48953
2.49454
2.49361
2.48352
2.46395
2.49231
2.48668
2.46472
2.40017
2.36426
2.49111
2.4887
2.47634
2.44813
2.378
2.3021
2.48709
2.47334
2.45336
2.4167
2.36613
2.4748
2.46067
2.44124
2.50262
2.50408
2.50416
2.4929
2.46965
2.49936
2.49104
2.45838
2.36834
2.23248
2.49781
2.49558
2.48134
2.44108
2.33437
2.10512
2.49504
2.47953
2.45342
2.4
2.28472
2.48206
2.46424
2.43893
2.51498
2.51238
2.51501
2.50402
2.47535
2.50535
2.49494
2.44824
2.33574
1.89241
2.50434
2.50225
2.4847
2.4333
2.29179
1.82818
-2.019
2.50332
2.48743
2.4569
2.38053
2.10456
2.49075
2.47074
2.44212
2.52273
2.51859
2.52116
2.51179
2.47686
2.50978
2.4996
2.45251
2.32938
1.63912
0.045516
2.5108
2.50823
2.49023
2.44222
2.29298
1.80832
-0.00551287
2.51119
2.49823
2.46635
2.38953
1.93568
2.5003
2.48194
2.45768
2.52658
2.52265
2.5231
2.51755
2.48659
2.51452
2.50576
2.4634
2.35596
1.83724
0.423785
2.51852
2.51555
2.50394
2.45114
2.3554
1.86024
0.421782
2.52018
2.51571
2.48339
2.44143
2.17308
0.743092
2.51091
2.49647
2.48739
2.52832
2.52771
2.52462
2.51951
2.49774
2.52012
2.51142
2.47329
2.40184
1.95794
0.463824
2.52625
2.52281
2.5068
2.46594
2.42106
2.00307
0.377539
2.52838
2.52449
2.50765
2.4705
2.31858
2.52196
2.51314
2.51678
2.53306
2.5352
2.53039
2.52684
2.51812
2.52559
2.52196
2.49361
2.4613
2.18907
2.53393
2.52915
2.51037
2.48781
2.48692
2.18751
-0.734646
2.53285
2.52206
2.52878
2.52033
2.5283
2.52827
2.52857
2.54096
2.53857
2.54175
2.53628
2.53489
2.53194
2.53358
2.52566
2.51332
2.50431
2.46985
2.5402
2.5334
2.51557
2.5179
2.54559
2.51564
2.53549
2.52138
2.54109
2.5491
2.57017
2.52653
2.54192
2.55816
2.53905
2.54212
2.53892
2.53772
2.53488
2.53662
2.53293
2.52952
2.53087
2.5259
2.54129
2.53614
2.5282
2.5425
2.55403
2.56079
2.53837
2.53395
2.5547
2.56942
2.58192
2.53004
2.55725
2.56984
2.54031
2.5416
2.54037
2.53975
2.54002
2.53652
2.53546
2.53755
2.54176
2.5418
2.54088
2.53773
2.5393
2.54785
2.55648
2.56037
2.54212
2.54988
2.56827
2.57505
2.57666
2.55214
2.57029
2.57657
2.54219
2.54139
2.54122
2.54185
2.54282
2.53715
2.53816
2.54211
2.54458
2.54633
2.53854
2.53764
2.54233
2.55023
2.55335
2.55585
2.54348
2.55043
2.56329
2.56871
2.56647
2.55861
2.56952
2.57286
2.54404
2.54249
2.54273
2.54353
2.54457
2.53903
2.54059
2.54449
2.54674
2.54812
2.5369
2.53773
2.54422
2.54942
2.55152
2.55265
2.54384
2.55117
2.55788
2.56099
2.55986
2.55555
2.56204
2.56488
2.54544
2.54469
2.54457
2.54506
2.54586
2.54212
2.54296
2.54607
2.54751
2.54895
2.53826
2.53912
2.54522
2.54895
2.54984
2.55161
2.54456
2.55071
2.55437
2.55637
2.55619
2.5533
2.55715
2.55885
2.54621
2.54683
2.54617
2.5459
2.54674
2.54519
2.54494
2.54616
2.54759
2.54948
2.54223
2.54239
2.54491
2.54751
2.5491
2.55138
2.54612
2.54917
2.55185
2.55369
2.5546
2.5528
2.55508
2.55601
2.54738
2.54854
2.54748
2.54683
2.54752
2.54662
2.54658
2.54753
2.54867
2.55015
2.54496
2.54445
2.54611
2.54829
2.54988
2.55159
2.54734
2.5495
2.55174
2.55363
2.55457
2.5533
2.55523
2.55607
247.68
234.633
250.724
247.741
231.7
244.441
245.46
243.06
242.39
249.943
258.966
258.273
255.666
254.109
249.41
249.022
245.162
246.875
248.897
242.794
243.752
249.116
237.262
248.047
246.313
238.568
249.013
243.355
252.996
254.405
250.866
255.26
251.451
243.015
239.378
243.805
239.291
238.332
238.55
239.456
240.274
241.716
247.446
243.751
251.478
244.737
252.854
238.836
250.019
259.874
261.641
259.717
255.569
266.187
262.951
247.46
245.827
254.484
251.816
247.066
248.907
253.453
256.046
252.165
257.499
258.297
259.98
254.052
239.472
249.048
259.821
268.747
270.022
259.092
265.844
262.869
258.703
264.194
260.993
257.837
260.633
258.896
255.63
259.308
252.1
248.407
238.236
241.037
251.732
250.022
243.958
229.203
238.326
232.779
227.122
230.6
183.789
115.226
161.814
180.519
181.004
88.2088
110.773
99.7003
184.574
190.753
77.1632
103.462
122.069
191.588
127.969
176.238
106.823
193.398
188.429
196.68
119.566
122.437
118.108
117.676
193.142
199.358
194.733
131.55
129.848
133.132
131.776
186.726
124.406
173.781
176.32
183.927
101.508
94.9717
94.1902
192.001
178.325
120.112
122.795
113.824
199.316
204.416
111.712
118.022
133.557
177.87
186.809
122.456
113.375
119.968
205.155
135.618
210.653
203.4
200.783
138.379
139.595
133.044
131.457
192.687
185.365
182.956
127.639
123.656
113.193
116.189
120.565
188.871
118.451
175.593
161.107
102.834
88.7953
75.6991
167.292
157.195
82.3002
80.9709
74.1773
96.6709
65.0939
17.281
61.5659
66.1236
62.4028
35.5071
22.5913
28.7337
60.5628
64.2216
43.2604
26.2263
16.3948
66.1399
12.8628
67.105
25.6398
66.8764
67.7069
64.9374
15.9371
16.7297
20.8993
23.8773
68.5395
65.9467
67.9628
14.0662
12.1407
17.2571
12.1946
64.1059
10.8671
67.7438
64.5678
64.8119
35.0527
36.7502
38.993
59.7807
56.1159
11.1641
10.7737
13.9163
67.6417
71.9406
27.8023
25.8628
17.9418
57.246
60.9621
10.2259
14.3499
12.1162
72.3621
12.949
72.6472
68.9658
66.7423
13.8016
12.7092
9.80219
11.4855
60.1357
49.235
51.5569
9.33808
7.33363
9.26751
5.37296
9.80955
54.1032
10.8035
9.37855
7.7459
7.2675
4.54805
5.50102
8.34537
7.28915
5.72688
5.60475
6.40049
7.36215
1.77739
2.03163
2.44233
1.9737
2.18028
1.79269
1.97611
1.87483
2.2214
2.02954
1.69728
1.76479
1.95382
2.06374
2.08471
2.06868
1.95151
1.84734
1.98102
2.26589
2.05214
2.07323
1.99943
1.85236
2.1374
2.3047
2.17497
2.07414
2.13194
1.84878
2.09376
2.09874
2.19022
2.3825
2.52309
2.52565
1.87701
1.76247
1.73105
2.08005
2.08486
2.14799
2.13261
2.09187
2.02675
1.99647
1.85743
1.89797
2.03928
2.04987
2.08055
2.16445
2.10907
2.16835
1.95956
2.14581
2.01296
1.96334
2.05758
2.12362
2.11307
2.19978
2.21375
1.75418
1.72321
1.53647
2.18617
2.27094
2.13924
2.23468
2.26423
2.13186
2.18496
5.20233
5.42201
1.83883
2.48234
3.30616
4.6892
5.84953
2.10302
1.84248
3.20461
1.98887
2.25119
2.08991
2.36783
2.28059
2.31689
2.1226
2.09513
2.08715
2.30279
2.18101
2.19388
2.16471
2.11077
2.20857
2.13237
2.29298
2.09865
2.21622
2.23472
2.27994
2.08155
2.07421
2.06018
2.04863
2.26265
2.21387
2.25132
2.1382
2.18259
2.04652
2.15325
2.27964
2.17512
2.40014
2.40103
2.42094
2.11667
2.1288
2.15689
2.29188
2.34145
2.23019
2.21741
2.26715
2.27862
2.18036
2.10275
2.10694
2.10894
2.33647
2.26938
2.24749
2.27023
2.25602
2.18118
2.14264
2.22184
2.21929
2.25687
2.15661
2.16103
2.19562
2.22665
2.21612
2.27167
2.24467
2.24715
2.22316
2.25746
2.25566
2.24496
2.26239
2.25239
1.88059
1.76369
2.27752
2.36199
2.26655
2.26742
1.75833
2.3016
2.37852
2.27414
2.2854
2.25784
2.16047
2.24146
2.25886
2.25053
2.1935
2.17088
2.18447
2.21793
2.21585
2.21251
2.20741
2.17952
2.24353
2.19175
2.27948
2.17701
2.27028
2.29029
2.26572
2.15796
2.15562
2.16113
2.17988
2.25541
2.20909
2.25619
2.19484
2.21041
2.23587
2.21202
2.25517
2.23126
2.2789
2.27268
2.24394
2.20239
2.23774
2.23158
2.27619
2.27687
2.24004
2.25298
2.18685
2.21481
2.19716
2.21006
2.20034
2.17723
2.25744
2.26438
2.25714
2.17747
2.26051
2.19645
2.18066
2.18705
2.20417
2.22634
2.17125
2.17805
2.20013
2.20048
2.23694
2.25173
2.25242
2.23114
2.23609
2.25269
2.25232
2.24782
2.25176
2.21482
2.35058
2.35831
2.22004
2.27584
2.27695
2.32179
2.29664
2.24696
2.28438
2.24332
2.25558
2.2453
2.21104
2.21415
2.23101
2.21859
2.22239
2.21438
2.22299
2.21052
2.21684
2.21775
2.21614
2.21775
2.23601
2.21938
2.25924
2.22782
2.25605
2.26661
2.25205
2.21063
2.20694
2.22127
2.23834
2.249
2.2557
2.2651
2.2152
2.22965
2.235
2.24001
2.25622
2.23396
2.24143
2.24445
2.2371
2.23774
2.24839
2.24199
2.26003
2.26373
2.27534
2.24972
2.25835
2.24578
2.24726
2.25771
2.25388
2.25596
2.25533
2.25629
2.25539
2.25391
2.22021
2.21697
2.23818
2.23314
2.22333
2.27919
2.25482
2.26311
2.24837
2.25204
2.25077
2.26052
2.25536
2.25394
2.25747
2.25424
2.25358
2.25223
2.25544
2.22156
2.21297
2.20335
2.22035
2.22616
2.20756
2.20418
2.20688
2.20359
2.23213
2.24305
2.24858
2.20585
2.22546
2.22732
2.23022
2.23212
2.22344
2.19662
2.24746
2.24303
2.1988
2.22668
2.22974
2.25509
2.23175
2.24422
2.22972
2.2303
2.22507
2.23491
2.23624
2.22915
2.22771
2.23045
2.23563
2.23497
2.23752
2.22567
2.22968
2.23537
2.23577
2.23827
2.23658
2.23785
2.24153
2.23279
2.24047
2.24702
2.24632
2.23037
2.23276
2.23527
2.24494
2.24545
2.22398
2.25575
2.23508
2.24018
2.23396
2.24947
2.24167
2.25136
2.23626
2.24759
2.25192
2.25694
2.24834
2.25614
2.23498
2.24603
2.2414
2.22947
2.24155
2.23819
2.25496
2.24267
2.25194
2.24352
2.24566
2.23691
2.25104
2.25423
2.25078
2.25238
2.24331
2.25103
2.2467
2.25145
2.23759
2.23155
2.241
2.23866
2.23495
2.25433
2.2467
2.26028
2.2411
2.25092
2.2411
2.25499
2.25131
2.24962
2.25352
2.2467
2.25178
2.2451
2.25145
2.23042
2.22684
2.20789
2.21377
2.19921
2.22339
2.20377
2.20292
2.17865
2.22411
2.21415
2.22211
2.20036
2.2265
2.19725
2.21424
2.24934
2.22471
2.24861
2.25293
2.2428
2.2523
2.18875
2.17334
2.21264
2.22068
2.17791
2.20338
2.21157
2.2165
2.23145
2.23944
2.2104
2.2297
2.20616
2.239
2.24039
2.2398
2.24117
2.24172
2.24279
2.24626
2.24348
2.24408
2.24488
2.24524
2.2483
2.24802
2.24401
2.24654
2.22598
2.21913
2.23666
2.22823
2.2381
2.22864
2.23679
2.22118
2.2325
2.24646
2.24751
2.25567
2.24426
2.24562
2.25676
2.25391
2.2404
2.24702
2.23851
2.24767
2.24811
2.25539
2.24967
2.25683
2.2237
2.23762
2.23494
2.21797
2.23424
2.232
2.24586
2.23573
2.25033
2.2406
2.24669
2.23311
2.25028
2.25286
2.24671
2.25229
2.24813
2.2553
2.24921
2.25415
2.23726
2.23643
2.23765
2.23476
2.23573
2.24919
2.23815
2.25217
2.23869
2.24959
2.23735
2.2513
2.25287
2.24354
2.25112
2.25018
2.25669
2.24638
2.25321
2.22657
2.22076
2.1994
2.19922
2.16413
2.21934
2.19461
2.19372
2.1542
2.23095
2.18525
2.20959
2.21125
2.23617
2.18112
2.20948
2.24628
2.23119
2.24733
2.25194
2.24527
2.25471
2.16449
2.15503
2.19948
2.20379
2.15607
2.19613
2.19917
2.21048
2.2243
2.22252
2.21138
2.22292
2.19942
2.2404
2.24084
2.2453
2.24867
2.2456
2.24758
2.24845
2.24968
2.24922
2.24839
2.24657
2.24816
2.24827
2.24785
2.2485
2.21629
2.22105
2.23643
2.21654
2.22737
2.23017
2.23658
2.21848
2.2265
2.24717
2.25794
2.25318
2.24767
2.24767
2.25582
2.25209
2.24577
2.24271
2.21669
2.23296
2.23027
2.22173
2.23344
2.23073
2.25167
2.23528
2.25601
2.23688
2.24897
2.23705
2.25281
2.25827
2.25524
2.25668
2.25963
2.25941
2.26587
2.25888
2.23335
2.23349
2.23709
2.23323
2.23182
2.25685
2.2414
2.25532
2.24393
2.25663
2.24142
2.25501
2.25891
2.24561
2.25565
2.27
2.26388
2.2549
2.25578
2.22132
2.2235
2.19395
2.19352
2.1518
2.22157
2.19866
2.19767
2.15661
2.23832
2.18366
2.21473
2.2313
2.24464
2.19728
2.2239
2.2444
2.15161
2.15697
2.19539
2.19839
2.15615
2.20317
2.20502
2.21516
2.22325
2.22077
2.21985
2.22879
2.20904
2.24253
2.24393
2.25472
2.24915
2.25411
2.26378
2.25054
2.25868
2.25052
2.25007
2.26099
2.25571
2.2519
2.24874
2.24872
2.22834
2.23572
2.23824
2.22475
2.22834
2.23554
2.23872
2.23105
2.23108
2.24799
2.25206
2.25017
2.24795
2.24699
2.24713
2.2453
2.24673
2.24632
2.23043
2.23688
2.23475
2.2381
2.24197
2.23983
2.24175
2.2654
2.24204
2.24241
2.21976
2.23564
2.23318
2.24293
2.23989
2.23619
2.2772
2.24413
2.24648
2.22485
2.24836
2.22899
2.23546
2.20844
2.20762
2.17355
2.23583
2.22193
2.22244
2.20236
2.25154
2.22257
2.23891
2.26054
2.25982
2.2589
2.25705
2.25706
2.17863
2.21858
2.21504
2.22069
2.22442
2.24439
2.25208
2.23327
2.24548
2.28726
2.28687
2.2825
2.2696
2.24356
2.24103
2.26467
2.24956
2.25922
2.25717
2.24551
2.25388
2.25741
2.25209
2.25745
2.25349
2.24932
2.24737
2.24448
2.24083
2.24323
2.23757
2.23563
2.23211
2.23819
2.23439
2.23818
2.23169
2.24672
2.24323
2.2435
2.24248
2.24545
2.23851
2.24165
2.24705
2.24611
2.24348
2.24656
2.24387
2.24665
2.24877
2.24586
2.24975
2.24959
2.24963
2.25348
2.25333
2.24428
2.23983
2.24945
2.24698
2.24368
2.25115
2.25258
2.25445
2.2557
2.25587
2.24233
2.24759
2.23649
2.24011
2.23473
2.25035
2.2466
2.25587
2.26499
2.26634
2.29051
2.27333
2.27924
2.27019
2.30756
2.28262
2.2658
2.26631
2.30857
2.27412
2.28204
2.31502
2.28186
2.29485
2.3337
2.31705
2.32426
2.35707
2.32452
2.34614
2.23808
2.23734
2.24876
2.24053
2.24666
2.24205
2.23581
2.24019
2.24706
2.24532
2.24345
2.24168
2.24267
2.24237
2.24203
2.24399
2.24581
2.23088
2.23914
2.23048
2.24049
2.2293
2.24055
2.23069
2.24443
2.23532
2.24106
2.24122
2.24396
2.23385
2.24141
2.24663
2.24678
2.24858
2.24919
2.24652
2.25044
2.25043
2.24832
2.25656
2.25658
2.25493
2.2592
2.25898
2.2484
2.24767
2.25366
2.25057
2.25186
2.25853
2.25791
2.25988
2.26078
2.25947
2.2508
2.25318
2.2515
2.26704
2.2821
2.25196
2.25081
2.26789
2.28202
2.27098
2.30666
2.2852
2.27691
2.26973
2.29858
2.28327
2.26786
2.32379
2.31922
2.2782
2.28771
2.39158
2.30956
2.28838
2.34204
2.3016
2.27859
2.31916
2.25836
2.31315
2.23992
2.24628
2.23911
2.23381
2.23599
2.24027
2.235
2.23532
2.23898
2.24193
2.24091
2.23972
2.24317
2.24479
2.24927
2.24904
2.25444
2.2325
2.24372
2.23279
2.25025
2.24017
2.25004
2.23781
2.24574
2.23558
2.24383
2.24865
2.24851
2.24007
2.24709
2.24881
2.25129
2.25314
2.25414
2.25312
2.2576
2.26005
2.2604
2.26175
2.26186
2.25983
2.26421
2.26412
2.25445
2.2573
2.26417
2.26091
2.26407
2.26327
2.26101
2.26498
2.26562
2.26321
2.25652
2.26177
2.24852
2.26539
2.27407
2.25564
2.24835
2.26405
2.26401
2.26801
2.29088
2.28021
2.27016
2.26681
2.2848
2.27725
2.26709
2.30846
2.29371
2.33782
2.29175
2.33837
2.32477
2.2769
2.30217
2.22753
2.25062
2.28996
2.23113
2.28972
2.25637
2.26819
2.24602
2.24156
2.23873
2.25511
2.25153
2.24717
2.24433
2.24658
2.25347
2.25255
2.25304
2.25446
2.26051
2.26253
2.27361
2.2515
2.26027
2.24677
2.26932
2.26384
2.27244
2.2602
2.25221
2.24735
2.25151
2.25838
2.25688
2.25576
2.25686
2.25574
2.26077
2.26366
2.26785
2.26883
2.27119
2.27679
2.27767
2.26691
2.26722
2.26583
2.27036
2.27053
2.26985
2.27222
2.28285
2.28055
2.28165
2.26863
2.26658
2.27157
2.27235
2.27066
2.26926
2.27859
2.25083
2.26584
2.25927
2.2696
2.25758
2.27084
2.26068
2.2665
2.2807
2.27602
2.26846
2.26798
2.27836
2.27601
2.27027
2.28179
2.27787
2.30451
2.31525
2.30001
2.3157
2.36371
2.28354
2.28199
2.28939
2.28466
2.31891
2.28436
2.28158
2.29371
2.26584
2.26372
2.25926
2.27822
2.27615
2.27196
2.26276
2.26232
2.27489
2.27411
2.2733
2.26747
2.27543
2.28577
2.29631
2.27643
2.28352
2.27719
2.28843
2.28865
2.29265
2.29522
2.26323
2.26356
2.26398
2.27054
2.26971
2.27068
2.27104
2.26698
2.27336
2.2808
2.28673
2.28656
2.29362
2.29719
2.29551
2.27486
2.2753
2.27682
2.28002
2.28017
2.29176
2.29185
2.30421
2.30264
2.3018
2.2772
2.27579
2.28223
2.28258
2.28125
2.2891
2.29966
2.26748
2.27848
2.26842
2.28823
2.27889
2.28621
2.2775
2.2734
2.27708
2.27752
2.27364
2.27901
2.27743
2.28049
2.2797
2.27903
2.2834
2.3195
2.37061
2.2843
2.3042
2.33177
2.28627
2.32057
2.29201
2.28678
2.30565
2.28462
2.30268
2.30824
2.29073
2.28804
2.28395
2.303
2.29881
2.29502
2.2853
2.28484
2.29665
2.29529
2.2961
2.28413
2.29286
2.30543
2.3136
2.30003
2.30049
2.31021
2.30521
2.30879
2.30716
2.32148
2.27674
2.27747
2.27882
2.28456
2.28347
2.28359
2.28615
2.2808
2.28809
2.30691
2.30737
2.30393
2.31819
2.31804
2.31389
2.28687
2.28681
2.29191
2.29348
2.29273
2.31284
2.31089
2.32292
2.32098
2.31981
2.28855
2.28754
2.2939
2.29414
2.29359
2.30941
2.31648
2.2886
2.29379
2.28737
2.30484
2.29499
2.30107
2.29571
2.2852
2.28099
2.2851
2.28478
2.2908
2.28552
2.29013
2.29135
2.29102
2.29818
2.2993
2.31498
2.29185
2.29966
2.31089
2.29155
2.30112
2.29635
2.29568
2.30142
2.29232
2.31158
2.31348
2.31455
2.3088
2.30527
2.32575
2.31725
2.31474
2.30373
2.30618
2.31477
2.31163
2.31424
2.30075
2.30789
2.32024
2.32501
2.31364
2.31403
2.32966
2.31597
2.31413
2.31971
2.3341
2.29058
2.28958
2.29348
2.29804
2.29766
2.29564
2.30051
2.29562
2.30285
2.32663
2.32802
2.32444
2.33215
2.33561
2.3325
2.30076
2.29965
2.30649
2.30696
2.30551
2.32673
2.32626
2.33345
2.33148
2.33132
2.30029
2.29993
2.30599
2.30588
2.30535
2.32213
2.32774
2.30118
2.30894
2.30333
2.31833
2.30891
2.31624
2.31146
2.29609
2.29235
2.29613
2.29888
2.30122
2.29898
2.30167
2.30321
2.30562
2.3128
2.30642
2.31207
2.30738
2.31125
2.31221
2.30246
2.30578
2.30733
2.30835
2.30963
2.30383
2.31482
2.31525
2.33487
2.32283
2.32342
2.34035
2.32582
2.33132
2.31972
2.32098
2.33108
2.32742
2.32824
2.31419
2.3208
2.32712
2.32818
2.31066
2.32314
2.33345
2.31916
2.30655
2.32512
2.32858
2.30541
2.30158
2.30714
2.31084
2.31293
2.30625
2.31346
2.30963
2.31577
2.3361
2.33814
2.33648
2.3368
2.33846
2.33759
2.31294
2.31125
2.31803
2.31789
2.31613
2.33522
2.33491
2.33719
2.33653
2.33786
2.31158
2.31064
2.31666
2.31662
2.31541
2.33412
2.33864
2.31723
2.32231
2.31649
2.33319
2.32901
2.32662
2.32136
2.30612
2.30551
2.30725
2.30947
2.31123
2.31121
2.31224
2.31415
2.31933
2.3253
2.31672
2.31469
2.31704
2.32018
2.31771
2.31393
2.31339
2.31564
2.31812
2.31665
2.31306
2.31623
2.31969
2.34385
2.32793
2.33839
2.34593
2.33098
2.34346
2.33385
2.3363
2.34198
2.33906
2.3451
2.3273
2.33316
2.32832
2.32903
2.30426
2.32624
2.3214
2.3223
2.30936
2.32774
2.31642
2.31995
2.31026
2.31903
2.32215
2.32581
2.3156
2.3242
2.3212
2.32586
2.33513
2.3377
2.33672
2.33387
2.33724
2.33566
2.32222
2.32049
2.32578
2.32521
2.32363
2.33648
2.34241
2.33732
2.33749
2.3459
2.32142
2.31981
2.32506
2.32533
2.32358
2.34733
2.34869
2.33384
2.3287
2.3241
2.33729
2.33377
2.32887
2.32541
2.31614
2.31592
2.31676
2.31677
2.32044
2.31947
2.32074
2.32325
2.32652
2.32556
2.32251
2.31993
2.32191
2.32409
2.32185
2.3214
2.31964
2.32177
2.32365
2.32219
2.31914
2.32554
2.33375
2.34732
2.33577
2.34653
2.34837
2.33979
2.34762
2.34432
2.35527
2.35295
2.34925
2.3632
2.33857
2.34438
2.33108
2.33399
2.3177
2.32972
2.31751
2.32974
2.32604
2.3322
2.32395
2.33085
2.32044
2.32827
2.33259
2.33606
2.32431
2.33217
2.32974
2.33263
2.33402
2.33876
2.3363
2.33547
2.34107
2.33922
2.32716
2.32596
2.32965
2.32848
2.32757
2.33739
2.34911
2.33739
2.33584
2.34869
2.3284
2.32676
2.32986
2.33043
2.32926
2.34211
2.33619
2.33239
2.3279
2.3254
2.33139
2.33063
2.32676
2.32487
2.32381
2.32241
2.32384
2.32242
2.32656
2.3246
2.32658
2.32899
2.32544
2.32476
2.32489
2.32331
2.32318
2.32562
2.32464
2.32521
2.3245
2.32637
2.32658
2.32647
2.32446
2.34214