/*--------------------------------*- C++ -*----------------------------------*\
| =========                 |                                                 |
| \\      /  F ield         | OpenFOAM: The Open Source CFD Toolbox           |
|  \\    /   O peration     | Version:  5.x                                   |
|   \\  /    A nd           | Web:      www.OpenFOAM.org                      |
|    \\/     M anipulation  |                                                 |
\*---------------------------------------------------------------------------*/
FoamFile
{
    version     2.0;
    format      ascii;
    class       surfaceScalarField;
    location    "3";
    object      phi;
}
// * * * * * * * * * * * * * * * * * * * * * * * * * * * * * * * * * * * * * //

dimensions      [0 3 -1 0 0 0 0];

internalField   nonuniform List<scalar> 
29271
(
-2.97573e-06
1.77604e-07
-1.2328e-06
4.00142e-06
-4.14136e-06
6.82319e-08
3.5499e-07
3.70325e-06
-1.05245e-05
4.72038e-08
-3.75368e-07
2.86867e-07
2.34459e-07
1.03313e-05
-1.10924e-05
1.42746e-07
3.42234e-07
-9.93332e-07
9.06565e-08
1.15101e-05
-9.99126e-06
9.69698e-08
-3.70803e-07
1.70796e-07
9.34713e-06
7.47159e-07
-1.08197e-05
-3.3196e-07
5.96207e-08
4.10985e-08
-1.27297e-07
1.11782e-05
-1.12523e-05
4.37096e-07
3.50402e-07
-3.05692e-07
-6.96607e-07
1.14671e-05
-1.09038e-05
1.07366e-06
4.09886e-07
-5.56734e-07
-8.34223e-07
1.08112e-05
-1.13499e-05
3.69667e-07
7.52378e-07
-5.11931e-07
-4.3878e-07
1.11786e-05
-8.62431e-06
-1.22919e-07
-8.5041e-08
8.68778e-06
1.39775e-07
-2.54528e-06
3.3906e-07
-4.60625e-07
2.6467e-06
-1.09403e-05
-2.89952e-07
7.17386e-07
-1.21659e-07
-1.14954e-06
1.17841e-05
-1.09519e-05
7.31031e-07
4.73214e-07
-2.57181e-07
-6.27297e-07
1.06321e-05
-9.46293e-06
4.85456e-07
2.24278e-07
-2.24936e-07
-1.50187e-07
9.12832e-06
-9.80581e-06
2.1961e-07
2.12878e-07
-2.02281e-07
-4.66694e-08
9.62228e-06
-1.03639e-05
2.14741e-08
7.60097e-07
1.43851e-07
9.56098e-06
-1.22524e-07
-1.00013e-05
-7.22316e-08
4.55254e-07
-7.64112e-08
9.07135e-06
6.23347e-07
-9.79283e-06
-3.48191e-07
1.29853e-07
1.89028e-07
1.35989e-07
9.68615e-06
-1.01403e-05
-2.64865e-07
-1.73234e-07
-1.20754e-07
6.044e-07
1.00947e-05
-1.00615e-05
-1.68534e-07
6.13932e-07
9.61505e-06
-2.30339e-07
2.31392e-07
-3.8384e-06
3.56242e-08
-5.85663e-08
3.83601e-06
-8.55921e-06
-8.17151e-07
8.26383e-07
9.05159e-06
-5.66471e-07
-1.22938e-05
-3.30146e-07
-2.0438e-07
5.10291e-07
1.32194e-05
-9.01388e-07
-3.96355e-06
-7.68707e-07
4.6826e-07
4.2097e-06
-7.53826e-06
-5.65322e-07
1.57584e-07
7.91447e-06
-3.449e-06
-7.61174e-08
-1.53003e-07
3.51945e-06
-6.67152e-07
-6.01003e-07
-1.0445e-05
1.30595e-06
2.05615e-06
8.35106e-06
-1.27124e-06
-1.09006e-05
-2.04842e-07
-1.12037e-06
2.6604e-06
1.08366e-05
-8.54795e-06
3.82981e-08
-6.46464e-08
4.7554e-07
7.54598e-06
5.52786e-07
-6.20005e-07
-9.38278e-07
-1.19487e-05
1.60634e-06
1.43419e-06
1.04664e-05
8.96641e-07
8.86143e-07
5.03646e-05
-1.03127e-05
-1.00372e-05
-9.68711e-06
-1.03157e-05
-9.64352e-07
-2.24884e-07
-1.286e-06
-2.13312e-06
-2.19054e-06
-1.14723e-06
-1.97735e-06
-1.87115e-06
-3.29739e-07
1.07145e-06
4.66519e-05
-1.01653e-05
-1.07983e-05
-1.01754e-05
-1.03697e-05
-2.52573e-07
-7.32224e-07
-2.69837e-06
-1.3051e-06
-1.20862e-06
5.04501e-08
4.73629e-05
-1.58836e-06
-1.09768e-06
-8.05009e-07
-5.68466e-07
-1.07667e-06
-7.03171e-07
-6.43386e-07
-1.07497e-05
-9.54213e-06
-1.02375e-05
-9.52252e-06
-9.16192e-06
-4.42735e-07
-2.5885e-07
8.67084e-06
-2.5208e-06
2.44197e-07
-1.64266e-07
2.36458e-06
-1.08346e-06
-1.34705e-05
3.66243e-07
5.38362e-07
-1.56388e-06
1.52132e-05
1.00547e-06
-2.80455e-07
4.49292e-05
-9.86359e-06
-9.66516e-06
-9.68767e-06
-9.49895e-06
-1.56235e-06
-1.60731e-06
-1.84484e-06
-1.03818e-06
-1.22742e-06
-6.8083e-07
4.1369e-05
-9.33478e-06
-9.18155e-06
-9.36942e-06
-9.49809e-06
-1.12279e-06
-1.15944e-06
4.24004e-05
-1.32666e-06
-6.11199e-07
-6.58357e-07
-8.19926e-07
-4.28671e-07
-3.06313e-07
-9.1902e-06
-9.05931e-06
-9.67177e-06
-9.22276e-06
-8.78237e-06
1.95922e-08
1.90841e-07
1.19063e-07
7.33008e-06
-8.07429e-06
-6.66421e-08
4.45167e-07
1.73605e-07
7.18265e-06
3.39506e-07
2.99516e-07
4.10096e-07
3.05923e-05
-1.51805e-06
-1.22175e-06
-5.68177e-07
-5.30214e-07
8.9418e-07
3.96785e-07
8.08043e-06
-9.64407e-06
-8.95427e-06
-9.12645e-06
-9.39078e-06
-1.35257e-06
9.33881e-07
2.41732e-05
-1.11663e-06
-4.19844e-07
-4.22272e-07
1.24252e-06
6.72081e-06
8.52902e-06
-9.9354e-06
-9.39905e-06
-9.64651e-06
-9.68845e-06
-9.09051e-06
-4.46642e-07
4.12522e-07
6.61262e-06
-3.6952e-06
1.18593e-07
1.66031e-07
3.42026e-06
-9.32669e-06
-1.2922e-06
2.2358e-06
8.7515e-06
-1.47215e-05
-3.29013e-07
-4.63686e-07
1.98052e-07
1.625e-05
-4.3742e-06
-1.59918e-06
1.6661e-06
4.2396e-06
-4.62966e-06
3.5082e-08
3.90993e-07
4.20706e-06
-3.8803e-06
-3.26288e-08
-1.79234e-07
4.0818e-06
2.49294e-08
1.44575e-07
-7.4651e-06
-1.6968e-07
-4.33914e-08
7.50866e-06
1.02754e-07
-9.8329e-06
-2.79278e-08
1.45171e-07
-3.44385e-07
9.95729e-06
-7.48331e-06
-4.89201e-08
-7.05335e-08
1.33571e-07
7.37908e-06
9.01099e-08
2.61746e-07
-8.47662e-08
-9.32391e-06
1.53599e-07
-2.72265e-07
9.2656e-06
1.77568e-06
1.62093e-06
5.52445e-05
-3.16858e-07
-7.31801e-07
-3.17688e-06
-1.9209e-06
-1.74395e-07
-4.48971e-07
-2.15364e-06
6.46915e-07
-4.0806e-06
1.87154e-06
5.7998e-05
-1.54133e-06
-7.84633e-07
-1.92424e-06
-3.11116e-06
-5.66514e-07
7.02106e-07
6.52588e-05
-4.47527e-07
-4.10206e-07
-4.60773e-06
-4.47571e-06
-6.38979e-07
-5.96276e-06
-5.56916e-06
-7.97983e-06
-1.02387e-07
-1.00936e-07
7.62346e-06
-2.43673e-06
-1.01373e-07
9.11601e-08
2.45457e-06
7.37227e-08
-1.41818e-05
-1.21234e-07
3.98277e-07
3.21697e-07
1.35093e-05
1.54842e-06
-4.68563e-06
5.27699e-05
-5.24394e-07
-4.7167e-07
8.10837e-08
-2.16762e-06
-4.67502e-06
-6.1983e-06
5.56623e-05
-4.99882e-07
-3.86608e-07
5.28045e-05
-3.54734e-07
-4.27877e-06
-4.87911e-06
-8.62601e-08
-1.78822e-06
-2.10341e-06
-7.85931e-06
3.30817e-09
-2.6542e-07
4.51123e-08
7.57643e-06
-7.06661e-06
-5.29566e-08
1.92061e-07
4.13459e-08
6.89566e-06
-9.49931e-09
-3.74607e-07
-7.00403e-07
3.35399e-05
-9.86321e-08
1.02381e-07
-2.25211e-07
-2.80094e-07
-3.73933e-07
-2.70614e-06
-2.97662e-06
2.02677e-08
-1.18168e-06
2.48417e-05
5.43433e-07
-1.15119e-06
-6.58777e-07
-3.52637e-07
-3.22328e-06
-1.23754e-06
-5.71067e-06
5.06727e-09
-1.47042e-07
5.48631e-06
-3.29671e-06
-9.90824e-08
3.99531e-07
2.99761e-06
-4.7736e-06
4.21633e-07
-2.88304e-06
6.54461e-06
-2.24008e-05
1.08836e-06
2.59487e-07
9.18091e-07
1.89532e-05
-2.35701e-06
6.76294e-07
-1.63076e-06
3.32153e-06
-5.222e-06
-5.60402e-07
1.21364e-06
4.56877e-06
-1.74958e-06
6.24167e-07
-1.18189e-07
1.24361e-06
-6.55691e-07
-9.63644e-07
-4.62824e-06
1.17369e-06
1.21015e-06
3.86374e-06
-1.74432e-06
-1.37427e-05
-4.09775e-07
-3.02271e-07
1.80772e-06
1.43913e-05
-1.15214e-06
-6.60998e-07
4.6578e-07
1.50149e-06
-2.87396e-07
1.33257e-07
-6.35488e-07
-8.0239e-07
-9.07205e-06
1.12507e-06
1.32416e-06
8.0607e-06
4.18632e-06
4.17691e-06
5.89309e-05
-2.25488e-06
-2.18074e-06
-7.35399e-07
-8.50919e-07
-2.18514e-06
-1.3302e-06
-1.06178e-06
-1.4506e-06
-2.23643e-06
5.44791e-06
6.566e-05
-2.37565e-06
-2.52225e-06
-1.13135e-06
-6.57849e-07
-1.18384e-06
1.51419e-06
5.63891e-05
-1.02429e-06
1.03721e-07
1.02936e-06
2.58851e-06
-4.16619e-07
2.28995e-06
1.73229e-06
-3.06061e-06
-7.28744e-07
2.38895e-07
2.36662e-06
-1.42889e-06
-5.17594e-07
1.00476e-06
9.41724e-07
-1.13269e-06
-2.17629e-05
-8.17895e-08
2.49249e-07
-1.72009e-06
2.44482e-05
1.27026e-06
1.96284e-06
5.28087e-05
-4.53959e-08
-1.66849e-07
7.83409e-08
1.03888e-06
1.52376e-06
7.68811e-06
5.31686e-05
3.98972e-07
7.26811e-07
4.66103e-05
-5.82421e-07
2.0288e-06
2.13156e-06
6.85083e-07
2.03778e-06
1.80554e-06
-2.59498e-06
-3.25002e-07
-4.57949e-07
1.02165e-06
2.75526e-06
-2.61688e-06
-6.92616e-07
2.9905e-07
-3.65772e-07
1.7312e-06
1.64502e-06
1.63069e-06
-8.38078e-07
3.65232e-05
-4.47914e-07
-7.50508e-07
-5.7495e-07
-1.05933e-06
1.8297e-08
6.85548e-07
3.1584e-07
-5.32555e-07
6.10358e-07
3.2088e-05
-9.96687e-08
-6.83276e-07
-2.82147e-07
9.14999e-07
9.56082e-07
1.18872e-06
-3.94517e-06
-6.20167e-07
1.39679e-07
4.61991e-06
-8.46694e-07
-8.48483e-07
1.02661e-06
6.6857e-07
-7.51572e-06
1.65183e-07
-4.19127e-07
6.93159e-06
-1.62545e-05
3.60688e-07
-1.16074e-06
1.24779e-07
1.75401e-05
-5.83157e-06
1.0926e-06
-7.30258e-07
5.46923e-06
-3.89873e-06
-9.44094e-08
1.41637e-08
3.97898e-06
-9.87607e-07
6.39413e-07
-1.62663e-07
5.10857e-07
-1.92054e-07
-1.14766e-06
-4.06759e-06
8.20569e-07
8.5441e-07
3.73232e-06
-8.2868e-07
-1.34974e-05
-3.35649e-07
2.47088e-07
1.39061e-06
1.3024e-05
-9.52827e-07
2.67157e-07
-3.12698e-07
1.82055e-07
3.48085e-07
4.68228e-07
-1.31812e-07
1.23933e-08
-7.43893e-06
7.15727e-07
-4.55389e-08
6.88816e-06
6.67233e-06
7.37938e-06
6.29417e-05
-1.78424e-06
-1.8536e-06
-1.56373e-06
-1.90384e-06
-2.33454e-06
-3.04985e-06
-2.26581e-06
-3.3068e-06
-1.33877e-06
8.75568e-06
7.20477e-05
-2.25727e-06
-1.64709e-06
-2.07626e-06
-1.15167e-06
1.33885e-06
3.57151e-06
4.81127e-05
-3.21699e-07
-7.42989e-07
-8.93825e-08
2.98507e-07
6.72163e-07
1.10432e-06
1.10638e-06
-3.31209e-06
-9.55004e-07
1.65281e-06
3.95314e-06
-2.10869e-06
-3.97854e-07
3.08006e-07
2.19854e-06
2.70375e-08
-2.33517e-05
-5.75828e-07
8.99285e-07
1.05274e-06
2.19485e-05
3.817e-06
2.92673e-06
5.94342e-05
-1.59716e-06
-8.10006e-07
-2.11536e-06
-1.4673e-06
3.02633e-07
5.94284e-06
5.94958e-05
4.8016e-07
1.11758e-06
4.31325e-05
4.46352e-07
1.16583e-06
3.9736e-07
1.36871e-06
1.0507e-06
1.3253e-06
-4.34638e-06
-9.30574e-07
3.01887e-07
9.55037e-07
4.50019e-06
-1.42988e-06
-1.25882e-06
1.95174e-06
1.47237e-06
8.00962e-08
-8.1551e-07
1.72595e-06
5.66618e-07
4.29643e-05
-2.44837e-06
-1.59661e-06
-7.03163e-07
-2.97583e-07
-6.10397e-07
8.13159e-07
-9.63956e-07
-1.90108e-06
6.03743e-08
4.54248e-05
-1.78492e-06
-1.50047e-06
-2.32003e-06
7.53519e-07
7.95847e-08
9.45019e-07
-6.10339e-06
-1.72014e-06
5.7355e-07
6.46648e-06
-1.90042e-06
-1.55957e-06
1.48834e-06
1.97164e-06
-7.26426e-06
-1.41389e-06
1.9268e-06
7.31797e-06
-2.00138e-05
-2.8414e-08
-1.85455e-06
-1.46638e-07
2.21037e-05
-4.65388e-06
-1.1137e-06
1.45896e-06
4.30862e-06
-3.86104e-06
4.43051e-08
1.21948e-07
3.69478e-06
-8.59756e-07
3.8569e-07
-1.06546e-07
5.80613e-07
1.21011e-08
-2.43152e-07
-3.555e-06
4.84584e-08
1.20517e-08
3.72554e-06
-3.22331e-07
-1.20878e-05
7.67343e-08
-3.41859e-07
1.22909e-06
1.14462e-05
-7.57645e-07
-2.87002e-07
-5.02176e-07
6.48431e-07
4.74036e-07
4.24357e-07
4.31223e-07
2.05722e-07
-5.94742e-06
3.57113e-07
-9.77034e-07
5.9304e-06
5.39389e-06
1.00457e-05
6.29182e-05
-9.97164e-07
-2.92561e-06
-6.28632e-07
-2.50743e-06
-1.72619e-06
-3.17222e-06
-1.4077e-06
-2.05123e-06
-2.35658e-06
9.90117e-06
7.69454e-05
-2.72419e-06
-1.75803e-06
-1.74312e-06
-8.23019e-07
5.10792e-07
5.58698e-06
4.25844e-05
-8.86262e-07
-3.74957e-07
-6.30267e-07
-3.69407e-07
6.75415e-08
-5.20351e-07
-2.12386e-07
-3.85826e-06
-4.5622e-07
7.4983e-07
1.25594e-06
2.8195e-06
3.18809e-07
-4.15395e-07
2.96058e-07
-1.99472e-07
-2.24719e-06
-4.02809e-07
2.45286e-07
2.40471e-06
2.79995e-07
-1.90087e-05
-2.81091e-07
1.67628e-06
1.99987e-06
1.53337e-05
4.71002e-06
9.03122e-06
6.31706e-05
-2.70049e-06
-1.69659e-06
-1.9528e-06
-1.08202e-06
-6.36835e-07
9.63301e-06
6.51108e-05
5.77778e-08
1.18292e-06
4.23494e-05
7.22223e-08
-1.23005e-07
-1.39806e-07
1.56816e-06
1.90927e-06
1.20568e-06
-4.3061e-06
-9.98756e-07
1.14017e-06
1.40431e-06
2.81817e-06
-1.08968e-07
-1.37506e-06
-3.46276e-07
-5.02213e-07
2.33251e-06
-9.06301e-07
-5.94313e-07
4.16189e-07
1.76151e-06
1.27407e-06
-1.95116e-06
3.33116e-06
2.02475e-06
4.91982e-05
-8.73769e-07
-1.22746e-06
-7.54218e-07
-1.29063e-06
-3.81065e-07
2.26238e-06
-2.93922e-07
-6.7989e-07
3.87427e-07
5.80775e-05
-1.8983e-06
-3.70107e-08
-1.1114e-06
1.556e-06
4.96536e-07
1.59809e-06
-7.1055e-06
-9.86576e-07
8.17993e-07
7.77712e-06
-2.12362e-06
-1.04558e-06
1.40815e-06
1.76105e-06
-6.81486e-06
-1.00015e-06
2.07358e-06
7.76618e-06
-2.45755e-05
-8.95625e-08
-2.15797e-06
4.42075e-07
2.67684e-05
-4.21207e-06
-2.11788e-06
2.00336e-06
4.32659e-06
-3.45047e-06
5.9786e-08
1.21375e-07
3.26931e-06
-3.83251e-07
-2.21481e-07
7.17977e-07
-1.13244e-07
1.34798e-07
2.15268e-07
-3.93186e-06
-2.85269e-07
-2.73432e-07
4.14049e-06
3.73168e-07
-1.06409e-05
7.57489e-08
4.52276e-07
3.13435e-07
9.42632e-06
-1.1315e-06
-6.95583e-08
-5.94378e-07
4.28603e-07
1.78699e-06
-4.20158e-07
-3.38263e-07
2.56207e-07
-5.93458e-06
2.32017e-07
-3.0578e-07
6.0904e-06
4.8376e-06
1.18853e-05
5.71216e-05
-7.25413e-07
-2.56526e-06
-1.16199e-06
-1.44062e-06
-1.18235e-06
-1.64442e-06
-9.90125e-07
-1.21615e-06
-2.67299e-06
1.08001e-05
7.80192e-05
-2.20392e-06
-6.82319e-07
-1.48547e-06
8.34463e-09
-8.57853e-07
7.20486e-06
3.73739e-05
-9.44915e-07
-5.93589e-07
-7.20262e-07
-4.66824e-07
-2.74803e-07
-7.2338e-07
-8.57395e-08
-2.07978e-06
1.32789e-07
-1.1541e-06
4.85336e-07
1.7579e-06
4.53815e-07
-6.01163e-07
1.43937e-06
-1.35127e-06
2.31025e-07
-1.71778e-07
-2.56261e-06
-2.82485e-07
1.74654e-07
2.67044e-06
-1.73032e-08
-1.20346e-05
-3.89533e-07
9.09658e-07
1.79009e-06
9.74172e-06
4.7456e-06
1.08961e-05
6.34024e-05
-1.52756e-06
-8.90325e-07
-9.58387e-07
-6.11956e-07
-1.97365e-07
1.20946e-05
6.87594e-05
2.85743e-07
2.05649e-06
4.10399e-05
2.85601e-07
5.61875e-07
5.8287e-07
1.19767e-06
2.47362e-06
8.73137e-07
-3.23309e-06
7.03594e-09
4.46714e-07
-6.99277e-07
3.76436e-06
-2.93855e-06
4.76974e-08
-6.38751e-07
4.02077e-07
-3.17685e-07
3.44521e-06
-1.65034e-06
-4.88177e-07
6.1498e-07
1.63493e-06
1.64683e-06
-1.75823e-06
4.72941e-06
2.54183e-06
5.41915e-05
-9.09765e-07
-9.98377e-07
-7.71148e-07
-5.66389e-07
-2.82521e-07
2.44786e-06
-2.88021e-07
4.67485e-07
7.0464e-07
6.73312e-05
-7.13014e-08
8.36389e-07
4.13269e-07
1.97443e-06
1.03403e-06
2.21131e-06
-8.56671e-06
2.53704e-07
1.68285e-06
9.15413e-06
-1.06256e-06
3.18248e-07
-1.12782e-07
1.39924e-07
7.17167e-07
4.70122e-07
8.80339e-08
-2.28527e-07
-3.29629e-07
-8.87487e-06
-2.31516e-07
1.16222e-06
1.0486e-05
-2.85344e-05
3.08623e-07
-1.73723e-06
8.71258e-07
2.97964e-05
-4.91911e-06
-1.974e-06
9.57999e-07
5.93511e-06
-3.2507e-06
1.45404e-07
-2.62623e-07
3.36792e-06
5.10393e-07
-3.8805e-07
6.48173e-07
-7.70517e-07
-2.56169e-07
4.12789e-07
-3.96232e-06
-3.00463e-07
7.22564e-07
3.3836e-06
6.38389e-07
-8.19815e-06
-1.30184e-09
6.01448e-07
-5.86002e-07
7.54562e-06
-2.6368e-06
1.55216e-07
-2.54995e-07
4.79298e-08
3.28251e-06
-5.93866e-07
-5.35775e-07
3.09587e-07
-6.30482e-06
-1.4171e-07
1.36428e-07
6.53629e-06
3.83364e-06
1.26477e-05
4.91316e-05
-1.64798e-06
-1.46792e-06
-1.84448e-06
-1.22552e-06
-4.93865e-07
-9.56847e-07
-3.35906e-07
-5.18816e-07
-2.45362e-06
1.14439e-05
7.56771e-05
-1.53291e-06
-4.73918e-07
-4.84621e-07
-3.23128e-07
-8.95366e-07
5.49569e-06
3.4052e-05
-9.02725e-07
-5.07858e-07
-6.41173e-07
-4.35246e-07
-1.33878e-07
-9.56942e-07
-1.5423e-07
-1.78494e-06
2.95429e-07
-7.53795e-07
-2.52098e-07
1.60003e-06
8.02515e-08
7.8433e-07
4.53482e-07
-2.72705e-07
-7.57051e-07
-2.88307e-07
-2.72455e-06
-5.94571e-08
3.16541e-08
2.75235e-06
-2.59498e-07
-8.35533e-06
-5.829e-08
5.48002e-07
3.98176e-07
7.72694e-06
3.91049e-06
1.07754e-05
6.31317e-05
-7.31054e-07
-4.95572e-07
-3.40206e-07
-2.00589e-07
9.24445e-07
1.17839e-05
7.14054e-05
1.00147e-06
1.70662e-06
4.0593e-05
8.69525e-07
1.0473e-06
6.16014e-07
1.86134e-07
1.57701e-06
-1.37017e-07
-4.17117e-06
8.24734e-07
1.03017e-06
-1.28247e-06
4.60022e-06
-3.77181e-06
4.83534e-07
-1.07172e-06
4.72048e-07
-3.57507e-08
3.92369e-06
-1.51838e-06
-1.88946e-07
1.26187e-08
5.09892e-07
1.60131e-06
-4.16498e-07
4.16894e-06
2.2371e-06
5.75038e-05
-3.05808e-07
4.65663e-08
-3.01625e-08
4.05085e-07
-5.21202e-07
1.98087e-06
-5.18327e-07
7.42614e-07
1.07642e-06
7.30144e-05
9.39366e-07
1.01074e-06
1.15795e-06
2.07121e-06
1.32084e-06
1.95049e-06
-9.95698e-06
7.49077e-07
1.82132e-06
9.83582e-06
-6.12389e-07
8.9108e-07
-1.29281e-06
3.26021e-07
6.88098e-07
5.39466e-07
-9.68228e-08
-4.25308e-08
5.24735e-08
-4.52586e-07
-1.22585e-05
5.62544e-07
-2.44971e-07
1.41781e-05
-3.07459e-05
6.36366e-07
-9.47553e-07
1.04723e-06
3.10863e-05
-7.18251e-06
-9.91893e-07
-1.1879e-07
8.29319e-06
-3.55156e-06
1.07087e-07
-1.8277e-07
3.62724e-06
8.2017e-07
4.60795e-07
-4.96569e-07
-7.84396e-07
-8.1797e-07
9.30572e-08
-2.66297e-06
-1.54466e-07
1.47568e-06
2.06667e-06
-3.36522e-08
-7.48554e-06
-9.17026e-08
3.63116e-07
-1.98286e-07
7.44607e-06
-3.55126e-06
-1.00209e-07
3.72872e-07
-1.80402e-07
3.76515e-06
-3.06152e-07
3.14868e-07
6.14925e-09
-6.57357e-06
-6.04827e-08
-2.50104e-07
6.56314e-06
2.10474e-06
1.08826e-05
4.43401e-05
-1.86964e-06
-1.69468e-06
-1.85844e-06
-1.83619e-06
-1.24057e-07
-2.94026e-07
-3.72963e-07
-1.45794e-07
-2.24016e-06
1.05331e-05
7.28656e-05
-9.62626e-07
-8.42957e-07
-9.04887e-07
-6.66198e-07
-1.05903e-06
1.1437e-06
3.53722e-05
-4.49537e-07
-2.96232e-07
-3.28764e-07
-3.90731e-07
-1.50928e-07
-1.49474e-06
-5.34107e-07
-1.7928e-06
1.27437e-06
-1.27719e-06
-9.09249e-07
1.64583e-06
1.28439e-06
5.36619e-07
2.10516e-07
-1.27503e-06
-7.56495e-07
-2.77583e-06
1.6465e-07
-1.54074e-07
2.76526e-06
-2.51723e-07
-7.5724e-06
4.72629e-07
2.39009e-07
-6.04961e-07
7.71745e-06
2.67797e-06
8.24187e-06
6.25914e-05
-2.01328e-07
9.00703e-08
1.01165e-07
5.13167e-07
1.9444e-06
9.8605e-06
7.28115e-05
1.14847e-06
-6.27352e-07
4.48137e-05
8.73835e-07
7.34005e-07
1.04453e-07
-8.73188e-07
-1.34049e-06
-1.15237e-06
-4.90917e-06
1.18614e-06
8.79517e-07
-1.17812e-06
5.17011e-06
-3.56925e-06
7.37454e-07
-1.00043e-06
1.18513e-06
3.89844e-07
2.25725e-06
-1.71905e-06
2.67514e-07
-7.13123e-07
-6.27102e-07
2.04521e-06
7.46552e-07
1.55345e-06
1.48034e-06
5.92329e-05
6.167e-07
1.00042e-06
8.55691e-07
1.22619e-06
-8.88137e-07
1.16504e-06
-4.9692e-07
4.8171e-07
9.87398e-07
7.58633e-05
1.07647e-06
7.08885e-07
1.11542e-06
1.51709e-06
1.123e-06
1.55512e-06
-1.01488e-05
9.13872e-07
-1.6859e-07
9.25784e-06
-5.80285e-07
8.47336e-07
-1.41494e-06
1.14789e-06
-1.60119e-05
1.4176e-06
-1.50861e-06
1.75833e-05
-3.13287e-05
1.02834e-06
-5.68293e-07
8.80804e-07
3.09753e-05
-9.24076e-06
2.23318e-07
-7.81609e-07
9.79905e-06
-3.45741e-06
-8.77608e-08
6.03897e-07
2.94127e-06
7.34637e-07
1.28019e-06
-1.30449e-06
-7.1034e-07
-8.18564e-07
-7.76606e-07
-1.87319e-06
2.64417e-08
1.35662e-06
2.08529e-06
-8.43276e-07
-7.36358e-06
5.41033e-08
2.59915e-07
8.81253e-07
7.01159e-06
-3.91273e-06
-5.84394e-07
6.67923e-07
2.01425e-09
4.19579e-06
-3.68606e-07
1.42015e-06
-8.61181e-07
-6.5314e-06
8.75733e-07
-1.36274e-06
6.45943e-06
1.56072e-06
8.29934e-06
4.43673e-05
-1.65953e-06
-2.29221e-06
-1.60852e-06
-2.34241e-06
-5.16837e-07
-3.62068e-07
-7.46733e-07
-3.58997e-07
-1.82036e-06
7.80582e-06
7.25834e-05
-1.37562e-06
-7.93559e-07
-1.43795e-06
-5.35414e-07
-1.58019e-06
-2.47887e-06
4.08554e-05
-5.32935e-08
-5.12976e-08
3.39458e-08
-1.20224e-07
-1.26476e-06
-9.79594e-07
-8.09236e-07
-1.9123e-06
1.07434e-06
-1.87506e-06
1.13282e-06
-2.66127e-06
4.43322e-07
-2.56023e-07
2.47397e-06
-2.1176e-07
-7.8423e-06
1.10037e-06
-1.67301e-09
-1.1073e-06
8.06267e-06
2.43836e-06
2.10783e-06
6.44181e-05
6.49169e-08
5.98e-07
3.66169e-07
8.97373e-07
2.19494e-06
4.21556e-06
7.66452e-05
7.87638e-08
-2.67297e-06
5.21826e-05
-1.74941e-07
4.70523e-07
-2.43931e-08
-1.50135e-06
-2.44774e-06
-1.38066e-06
-6.88844e-06
1.10597e-06
-3.94626e-07
-6.5054e-07
6.9064e-06
-2.38668e-06
4.55737e-07
-1.19531e-06
-1.33332e-06
2.98936e-06
1.47021e-06
-2.81818e-06
-7.92867e-08
6.13563e-05
1.3262e-06
1.75354e-06
1.49733e-06
1.80049e-06
-1.25901e-06
-8.49987e-07
-1.38668e-06
7.2718e-08
6.31869e-08
7.62874e-05
5.59485e-07
4.11819e-07
5.0674e-07
4.32298e-07
-3.20738e-07
-7.52251e-07
-9.13765e-06
9.60042e-07
-2.62218e-06
8.19954e-06
-1.55901e-06
9.28109e-07
-9.07809e-07
1.53871e-06
-1.88652e-05
2.5285e-06
-2.72929e-06
1.89867e-05
-3.04006e-05
1.3283e-06
2.76709e-07
7.56219e-07
2.81026e-05
-1.01246e-05
1.72289e-06
-1.52017e-06
9.92185e-06
-2.13874e-06
6.43319e-08
7.31597e-07
1.34281e-06
7.87759e-07
1.64804e-06
-1.51476e-06
-9.21041e-07
-3.57644e-07
-1.36152e-06
-2.53189e-06
3.06702e-07
9.53347e-07
2.99101e-06
-1.71519e-06
-6.45517e-06
2.36078e-07
8.81152e-08
2.0626e-06
5.78356e-06
-4.52275e-06
-6.69599e-07
4.59863e-07
4.84156e-08
4.98902e-06
-3.04949e-07
1.54762e-06
-1.18608e-06
-6.30336e-06
1.29696e-06
-1.47114e-06
6.11599e-06
1.26489e-06
4.76239e-06
4.87621e-05
-1.51283e-06
-2.54168e-06
-1.57152e-06
-2.30151e-06
-6.84712e-07
-6.23014e-07
-7.01335e-07
-4.85453e-07
-1.13146e-06
4.43816e-06
7.50148e-05
-1.80059e-06
-7.23366e-07
-1.50894e-06
-4.40306e-07
-5.77142e-07
-4.6673e-06
4.55933e-05
2.33038e-07
2.526e-07
4.87842e-07
3.013e-07
-6.78672e-07
-5.33614e-07
-6.87437e-07
-8.62764e-07
7.94177e-07
-1.44636e-06
9.37808e-07
-2.19453e-06
5.09194e-07
-1.6915e-07
1.85448e-06
-1.83408e-07
-8.36978e-06
1.13914e-06
-1.66121e-07
-1.21754e-06
8.7977e-06
2.43019e-06
-5.03372e-06
6.91514e-05
1.88179e-07
7.93255e-07
5.1985e-07
1.13133e-06
3.02543e-06
-1.71658e-06
8.22047e-05
5.83559e-07
-2.82632e-06
5.6996e-05
3.26265e-08
5.57251e-07
8.39784e-08
-1.41327e-06
-2.19468e-06
-1.27851e-06
-6.68275e-06
9.59228e-07
4.69914e-07
-7.44858e-07
6.58202e-06
-3.63886e-06
4.11195e-07
-1.40767e-06
-1.5335e-06
4.43899e-06
1.72984e-06
-5.57224e-06
-1.97618e-06
6.27819e-05
1.70518e-06
1.95994e-06
1.92539e-06
1.84048e-06
-2.19664e-06
-2.2655e-06
-1.87972e-06
1.12436e-08
-1.16629e-06
7.41692e-05
1.56757e-07
3.1352e-07
6.24975e-08
-2.0867e-06
-7.62382e-07
-1.69927e-06
-8.26077e-06
1.00481e-06
-3.11392e-06
7.55481e-06
-1.65008e-06
6.154e-07
-6.86838e-07
1.72152e-06
-1.8601e-05
3.12964e-06
-4.03843e-06
1.75336e-05
-2.45043e-05
3.03974e-06
-6.66024e-07
1.06386e-06
1.99004e-05
-9.13777e-06
2.91239e-06
-1.32915e-06
7.55453e-06
-7.6354e-07
-2.14277e-07
5.7856e-07
3.99257e-07
1.08236e-06
1.47897e-06
-1.34915e-06
-1.21219e-06
1.79329e-07
-1.21317e-06
-3.25588e-06
2.19171e-07
6.38145e-07
3.4324e-06
-1.69604e-06
-5.17209e-06
4.7064e-07
-4.52138e-07
2.04629e-06
4.80333e-06
-5.38264e-06
-1.73869e-07
1.04103e-08
-4.89931e-07
5.67884e-06
3.57192e-07
1.36695e-06
-1.01284e-06
-5.75101e-06
1.17064e-06
-1.05542e-06
5.28168e-06
3.3986e-08
2.71908e-07
5.61181e-05
-1.28368e-06
-2.10258e-06
-1.1425e-06
-1.62945e-06
-4.57301e-07
-5.25289e-07
-4.20293e-07
-1.00831e-07
-1.51879e-06
4.2827e-07
7.84969e-05
-1.34102e-06
-4.40798e-07
-5.97654e-07
2.18551e-08
-2.38079e-07
-5.65048e-06
4.79028e-05
7.82395e-07
7.21168e-07
1.23534e-06
7.72675e-07
-6.05121e-07
-2.46795e-07
-5.99351e-07
-1.0116e-06
4.62087e-07
-8.5442e-07
1.16586e-06
-1.53983e-06
4.29215e-07
-2.00677e-07
1.31129e-06
2.02038e-08
-9.33961e-06
8.72702e-07
-3.5837e-07
-1.13298e-06
9.93806e-06
1.20827e-06
-1.03132e-05
7.47699e-05
4.41296e-07
1.04085e-06
8.82604e-07
1.39357e-06
3.0627e-06
-5.72177e-06
8.65003e-05
4.65704e-07
-2.18586e-06
5.92565e-05
9.64098e-08
4.27718e-07
1.07751e-07
-1.10183e-06
-1.7125e-06
-9.4562e-07
-6.51237e-06
6.81359e-07
4.21201e-07
-5.3455e-07
6.41006e-06
-5.20377e-06
2.57679e-07
-1.41483e-06
-9.74167e-07
5.85758e-06
1.4775e-06
-6.12458e-06
-2.88534e-06
6.10178e-05
1.83686e-06
1.75785e-06
2.08674e-06
1.41881e-06
-1.97894e-06
-2.74313e-06
-1.91735e-06
-4.94348e-08
-8.05317e-07
6.71246e-05
-1.19771e-07
1.57318e-07
-1.65414e-07
-1.48382e-06
-1.00262e-06
-1.33268e-06
-7.32512e-06
7.65823e-07
-2.09442e-06
6.41843e-06
-1.72828e-06
4.36353e-07
-3.83966e-07
1.67589e-06
-1.60583e-05
2.4427e-06
-2.75147e-06
1.34818e-05
-1.64076e-05
2.08888e-06
-1.26683e-06
1.2555e-06
1.35247e-05
-5.81253e-06
1.92038e-06
-4.51707e-07
4.34386e-06
-1.85771e-07
-3.98272e-07
4.96986e-07
8.70566e-08
1.25163e-06
9.66866e-07
-1.02997e-06
-1.18853e-06
6.21434e-07
-7.47301e-07
-3.58091e-06
-2.92316e-07
4.89277e-08
3.95017e-06
-1.07359e-06
-4.81884e-06
1.11687e-06
-1.32698e-06
9.05542e-07
5.197e-06
-5.76841e-06
1.87756e-07
-1.30421e-07
-1.10532e-06
5.73196e-06
1.08444e-06
1.27984e-06
-8.63724e-07
-4.71681e-06
9.33717e-07
-1.02453e-06
4.3915e-06
-2.02816e-06
-3.6809e-06
6.258e-05
-3.68524e-07
-7.90216e-07
-1.67626e-07
-1.35166e-07
-6.93482e-08
5.24414e-08
1.68612e-07
5.5704e-07
-3.01973e-06
-2.88939e-06
8.07186e-05
-9.83052e-08
2.11584e-07
6.55028e-07
8.90965e-07
-7.94335e-08
-5.40764e-06
4.66902e-05
1.30707e-06
9.84107e-07
1.67629e-06
9.16e-07
-5.50819e-07
-1.06626e-07
-5.46131e-07
-1.23288e-06
1.39633e-07
-3.2809e-07
1.3419e-06
-1.18252e-06
3.86694e-07
-3.67938e-07
1.16376e-06
5.4505e-07
-1.05005e-05
7.02137e-07
-8.463e-07
-8.03537e-07
1.09032e-05
-7.82725e-07
-1.16981e-05
7.85941e-05
7.84281e-07
1.16377e-06
1.409e-06
1.61863e-06
1.96393e-06
-7.4372e-06
8.83015e-05
3.68033e-07
-1.62757e-06
5.86801e-05
1.92461e-07
3.59343e-07
2.05857e-07
-6.29578e-07
-1.19834e-06
-5.375e-07
-6.34005e-06
3.39855e-07
2.56405e-07
-1.29318e-07
6.24115e-06
-6.37996e-06
1.62422e-07
-1.27344e-06
-7.90529e-08
6.77868e-06
7.91353e-07
-5.74681e-06
-2.25415e-06
5.92072e-05
1.72884e-06
1.25731e-06
1.93769e-06
1.06798e-06
-2.85942e-06
-1.60316e-06
-3.41589e-06
-2.63181e-07
-1.72799e-06
6.15469e-05
-2.38823e-07
-9.41197e-08
-2.15065e-07
-1.46262e-06
-2.10301e-06
-1.50149e-06
-6.05498e-06
2.61815e-07
-1.51058e-06
5.41299e-06
-1.57692e-06
1.01521e-07
-4.17153e-08
1.51711e-06
-1.03216e-05
1.36916e-06
-8.57475e-07
7.5558e-06
-1.10376e-05
-7.88033e-07
8.98546e-07
5.23884e-07
8.67526e-06
-3.32179e-06
1.3796e-06
-7.24404e-07
2.6666e-06
-8.58554e-08
-5.07789e-07
4.23247e-07
1.70398e-07
1.01831e-06
5.97787e-07
-8.32284e-07
-7.83815e-07
1.1363e-06
-5.04166e-07
-4.47628e-06
-6.74255e-07
-7.23999e-07
5.24239e-06
-2.03242e-07
-5.72976e-06
1.58437e-06
-1.74834e-06
-3.01592e-07
6.39856e-06
-5.64525e-06
6.63955e-08
3.59288e-08
-1.39803e-06
5.68495e-06
1.256e-06
1.15487e-06
-4.16567e-07
-4.32359e-06
2.22956e-07
-1.22836e-06
4.59068e-06
-2.9504e-06
-4.39959e-06
6.45497e-05
4.67541e-07
4.52318e-07
5.81173e-07
1.00185e-06
6.88414e-07
4.31572e-07
9.28313e-07
8.29055e-07
-3.51943e-06
-4.2076e-06
8.01545e-05
8.83645e-07
1.09e-06
1.54374e-06
1.82333e-06
5.41291e-09
-3.74553e-06
4.26809e-05
1.64783e-06
9.30164e-07
1.956e-06
7.13672e-07
-4.87806e-07
-3.71442e-08
-4.92645e-07
-1.40929e-06
-1.62162e-07
2.92037e-08
1.54766e-06
-1.24492e-06
3.13862e-07
-4.89711e-07
1.42077e-06
9.53993e-07
-1.11537e-05
7.20575e-07
-1.30496e-06
-3.75873e-07
1.116e-05
-1.38345e-06
-1.00282e-05
8.02826e-05
1.08062e-06
1.15452e-06
1.60691e-06
1.48162e-06
1.04695e-06
-6.41987e-06
8.80833e-05
3.13956e-07
-9.21827e-07
5.62984e-05
3.16753e-07
3.4221e-07
2.92689e-07
-7.69996e-08
-5.45406e-07
-3.83134e-08
-6.15347e-06
1.18072e-07
1.84231e-07
1.08457e-07
6.05667e-06
-7.21344e-06
1.69903e-07
-1.17999e-06
4.57167e-07
7.67415e-06
9.22112e-08
-5.4577e-06
-1.00614e-06
5.64957e-05
1.52663e-06
1.03413e-06
1.85332e-06
9.42593e-07
-3.12282e-06
-7.15261e-07
-2.37152e-06
-4.43726e-07
-2.10681e-06
5.72202e-05
-2.22246e-07
-2.23077e-07
-1.50402e-07
-1.37062e-06
-1.76179e-06
-1.27214e-06
-5.38898e-06
-7.39514e-08
-1.17908e-06
5.27646e-06
-1.49795e-06
-1.69617e-07
1.20525e-07
1.54704e-06
-5.83433e-06
1.99581e-07
-4.25029e-07
5.05364e-06
-6.70939e-06
-1.00426e-06
2.22402e-06
-2.32247e-06
5.70529e-06
-2.32492e-06
1.27492e-06
-1.11949e-06
2.16949e-06
-3.29509e-07
-5.91671e-07
3.79629e-07
5.41551e-07
5.1436e-07
3.96234e-07
-6.6022e-07
-2.50374e-07
1.54393e-06
-4.94794e-07
-6.04854e-06
-5.97968e-07
-1.31591e-06
6.91328e-06
4.82096e-07
-7.08652e-06
1.53777e-06
-1.54306e-06
-1.13667e-06
7.74638e-06
-5.86177e-06
-2.36089e-07
4.51111e-07
-1.35246e-06
6.17651e-06
8.22697e-07
1.00829e-06
5.19658e-07
-4.9104e-06
-5.44709e-07
-1.1918e-06
5.11895e-06
-3.34973e-06
-3.36394e-06
6.30292e-05
8.94373e-07
1.01587e-06
1.01946e-06
1.39192e-06
1.04019e-06
6.79963e-07
1.00944e-06
1.18297e-06
-2.39867e-06
-3.8679e-06
7.58827e-05
1.335e-06
1.69684e-06
1.85719e-06
2.29967e-06
1.73108e-07
-3.1502e-06
3.87658e-05
1.81843e-06
6.72764e-07
2.06094e-06
4.32476e-07
-2.99254e-07
1.24861e-07
-3.16783e-07
-1.6416e-06
-4.49275e-07
3.90446e-07
1.87354e-06
-1.65438e-06
2.14811e-07
-4.61367e-07
1.90094e-06
1.05689e-06
-1.10195e-05
8.22199e-07
-1.40379e-06
-2.26678e-07
1.07708e-05
-2.10481e-06
-5.69187e-06
7.93546e-05
1.17094e-06
9.52304e-07
1.69448e-06
1.54303e-06
1.13244e-06
-3.8644e-06
8.48426e-05
3.80606e-07
-5.32227e-07
5.31075e-05
4.31349e-07
3.93389e-07
3.80207e-07
1.95002e-07
-2.36726e-07
1.61566e-07
-6.02932e-06
-8.30595e-09
2.19159e-07
9.44663e-08
6.10461e-06
-8.27034e-06
1.96141e-07
-1.3687e-06
7.21146e-07
8.92706e-06
-2.05304e-07
-4.7257e-06
-2.82828e-08
5.13504e-05
1.65328e-06
9.71287e-07
2.10466e-06
7.67067e-07
-9.82965e-07
8.47048e-08
-3.90608e-07
-2.24193e-07
-1.10466e-06
5.18924e-05
9.90016e-08
7.82149e-08
1.59499e-07
-7.45113e-07
-8.91435e-07
-6.33666e-07
-5.68653e-06
-7.84778e-08
-9.6038e-07
5.96897e-06
-1.6308e-06
-2.44926e-07
1.22224e-07
1.7535e-06
-4.53636e-06
-7.50073e-07
7.97792e-07
4.46036e-06
-5.39364e-06
-1.16429e-06
2.06013e-06
-1.90377e-06
5.29691e-06
-2.09755e-06
1.09688e-06
-1.12967e-06
2.13034e-06
-7.97161e-07
-6.91759e-07
4.2524e-07
1.06368e-06
-2.10739e-08
2.72131e-07
-5.42566e-07
2.91508e-07
1.7382e-06
-5.52947e-07
-7.72669e-06
-2.92208e-07
-1.66873e-06
8.50238e-06
8.19297e-07
-8.3841e-06
1.31744e-06
-1.1906e-06
-1.50587e-06
8.94383e-06
-6.59556e-06
-4.96668e-07
8.96987e-07
-1.22036e-06
7.10481e-06
3.10795e-07
6.50386e-07
1.16226e-06
-5.17682e-06
-9.32728e-07
-7.69144e-07
5.06604e-06
-3.5167e-06
-4.11204e-06
6.13237e-05
1.41075e-06
1.30286e-06
1.68794e-06
1.74061e-06
6.66103e-07
1.0031e-06
3.11567e-07
1.21135e-06
-1.1008e-06
-3.13555e-06
6.85939e-05
1.53962e-06
2.02399e-06
1.97237e-06
2.47249e-06
3.15784e-07
-3.62315e-06
3.65373e-05
1.90318e-06
2.92166e-07
2.19296e-06
7.01056e-08
-1.19263e-07
2.3722e-07
-1.41279e-07
-2.01662e-06
-6.94652e-07
7.21032e-07
2.30603e-06
-2.13981e-06
-1.82137e-08
-2.05062e-07
2.36308e-06
9.17099e-07
-1.0624e-05
8.40207e-07
-1.46365e-06
-2.98512e-07
1.06289e-05
-3.5868e-06
-2.60188e-06
7.46948e-05
1.45374e-06
1.35798e-06
2.01449e-06
1.91026e-06
1.46855e-06
-1.24176e-06
7.78934e-05
4.7938e-07
-5.58949e-07
4.98914e-05
5.07666e-07
4.49581e-07
4.47084e-07
5.54891e-08
-2.90148e-07
-2.86533e-08
-6.27826e-06
-1.36928e-07
2.54248e-07
3.14056e-08
6.60892e-06
-9.70718e-06
-4.30408e-09
-1.45214e-06
1.11561e-06
1.03848e-05
-3.36801e-07
-1.35959e-06
7.21664e-07
4.455e-05
1.57335e-06
1.74623e-07
1.71647e-06
-1.01507e-07
3.61683e-07
7.44026e-07
3.6784e-07