/*--------------------------------*- C++ -*----------------------------------*\
| =========                 |                                                 |
| \\      /  F ield         | OpenFOAM: The Open Source CFD Toolbox           |
|  \\    /   O peration     | Version:  5.x                                   |
|   \\  /    A nd           | Web:      www.OpenFOAM.org                      |
|    \\/     M anipulation  |                                                 |
\*---------------------------------------------------------------------------*/
FoamFile
{
    version     2.0;
    format      ascii;
    class       volVectorField;
    location    "3";
    object      U;
}
// * * * * * * * * * * * * * * * * * * * * * * * * * * * * * * * * * * * * * //

dimensions      [0 1 -1 0 0 0 0];

internalField   nonuniform List<vector> 
10571
(
(-0.0593317 0.0719596 1.09257)
(-0.00511215 0.0247595 0.671103)
(-0.0103162 -0.0931477 0.954317)
(-0.080611 -0.0979929 1.12241)
(-0.0315829 -0.046534 0.831829)
(-0.116038 -0.0487788 1.0068)
(-0.122831 -0.158403 1.11881)
(-0.0451613 -0.217427 1.07238)
(0.00849581 -0.134698 1.082)
(0.0072007 -0.0369957 0.95203)
(0.110533 -0.0864045 0.892949)
(-0.0767317 -0.120469 1.12709)
(-0.119492 -0.0829516 1.06476)
(-0.0176825 -0.0293192 0.91132)
(0.0486939 0.00398715 1.02643)
(0.114721 -0.00735783 0.900622)
(-0.0186257 -0.00076152 0.823237)
(-0.0209348 0.0842314 0.961485)
(0.0265852 0.153102 0.977733)
(0.0567386 0.148209 0.845655)
(-0.00226223 0.00470156 0.840006)
(0.0874865 0.0687186 1.02934)
(0.00638087 0.175371 1.06596)
(-0.0617019 0.0450818 0.858297)
(0.118828 -0.0151157 3.06395)
(-0.0220988 -0.028577 0.654439)
(0.122325 0.153358 1.12374)
(-0.0908129 0.238938 0.961098)
(-0.0315738 0.0102537 0.757164)
(0.10369 0.116938 1.31489)
(0.0871475 0.0347609 0.572125)
(0.0245186 0.0449199 0.589936)
(-0.072783 0.0810538 0.560905)
(-0.223417 0.018624 1.00579)
(-0.0118866 -0.0497316 0.956943)
(0.0496496 -0.158844 1.3758)
(0.111444 0.0191198 0.533184)
(0.00426581 0.0123616 0.538768)
(-0.0949515 -0.0605074 0.558397)
(-0.13262 -0.00493079 0.785475)
(0.0182797 0.00848907 0.737386)
(0.100231 0.00336969 0.556349)
(-0.0712276 0.0188708 0.625511)
(-0.153198 -0.0860922 0.790675)
(-0.0129018 -0.000105603 0.770869)
(0.301772 -0.0340577 0.807771)
(0.00874786 0.0582178 0.88998)
(-0.223103 0.15222 0.76177)
(0.00199986 0.0320991 0.9388)
(0.00108235 -0.0103987 0.566013)
(-0.0228852 -0.0170498 0.565923)
(0.017702 -0.0590682 0.387818)
(-0.0123927 0.00526688 0.619371)
(0.00755483 -0.0403541 0.580252)
(0.0765409 0.106914 1.22306)
(0.00512075 0.170188 1.20118)
(-0.160304 0.110576 1.30704)
(-0.038804 0.00166455 0.83322)
(0.00735235 0.021847 0.547114)
(0.0119 0.036658 0.518234)
(0.104311 -0.0300011 1.20964)
(-0.0372293 -0.0784062 1.16888)
(-0.127164 -0.0736197 1.15816)
(-0.0312551 -0.000306014 0.705049)
(0.0112185 -0.0029441 0.609035)
(0.000459615 -0.15085 0.808661)
(-0.0138602 -0.163533 0.571276)
(0.0156836 -0.00558891 0.562623)
(-0.0265505 0.0192088 0.677684)
(-0.127909 -0.0460463 0.211187)
(-0.0185021 -0.0424108 0.679894)
(0.185943 -0.0402356 0.14367)
(0.0791741 0.0213182 0.54524)
(0.0211709 -0.00239578 -0.152328)
(0.0830432 0.0656925 -0.0938579)
(-0.0348575 0.141333 0.483466)
(0.015282 0.0683806 -0.231694)
(0.0743333 0.10407 0.110993)
(0.170739 0.140313 0.445273)
(-0.0317062 0.15313 0.486823)
(-0.0420455 -0.0197052 0.494325)
(-0.107997 0.047811 -0.00781479)
(0.0193824 0.0740278 -0.222522)
(0.0590846 -0.106272 0.921445)
(0.0496631 0.00629898 0.320533)
(-0.0158616 0.0385174 0.328973)
(0.0698892 0.070487 0.357741)
(0.0023338 0.0558393 -0.0119508)
(0.0399123 -0.0382442 -0.0842945)
(0.108697 0.0608619 0.241955)
(-0.0586433 0.197814 0.218811)
(-0.0237308 0.0398916 0.121868)
(-0.0416966 0.0891233 -0.0759203)
(-0.0608331 -0.107914 0.250278)
(-0.069353 -0.0306415 0.808509)
(0.156504 -0.0711267 0.472302)
(0.00302557 0.000241305 0.558084)
(0.0184454 -0.0288194 -0.103404)
(0.0873124 0.0131597 0.0637252)
(0.0325703 0.0936473 0.602701)
(-0.0571857 0.0148951 -0.0986681)
(-0.00322706 -0.0101045 0.258462)
(0.242181 0.172404 0.610782)
(-0.0266463 0.207777 0.702732)
(-0.0398942 0.0484928 0.578233)
(0.129075 0.0893097 0.14633)
(0.0174213 0.0599846 0.248508)
(0.0365672 0.0749783 1.03514)
(0.136801 0.0674096 0.613669)
(-0.0160574 0.0814784 0.617675)
(0.0120989 0.077369 0.522811)
(0.0287366 0.055064 0.15682)
(0.114974 0.0648107 -0.0754267)
(0.189893 0.0229885 0.445608)
(-0.125647 0.114083 0.399099)
(-0.13035 0.0883726 0.269942)
(-0.0442414 0.172673 0.161436)
(0.205945 0.0405624 0.354682)
(-0.0490472 -0.0558365 0.781631)
(-0.123739 0.0890184 0.40934)
(-0.0173938 0.00988881 0.548446)
(0.0201872 -0.00612854 -1.52887e-05)
(-0.000894687 -0.0080031 0.130814)
(-0.0234586 0.0206753 0.516109)
(-0.0194169 0.0455252 -0.0403426)
(-0.00144515 -0.0641684 0.252062)
(0.228221 0.193365 0.655321)
(-0.0504192 0.206548 0.792213)
(-0.0410628 0.101725 0.514789)
(0.0429481 0.0979815 0.149309)
(-0.0935258 0.0182757 0.00196813)
(0.0177994 0.0659407 0.336701)
(0.0318584 0.106135 0.743002)
(0.17079 0.157541 0.645058)
(-0.00669441 0.147095 0.66102)
(-0.0188026 0.105548 0.470273)
(0.00491398 0.0455312 0.123202)
(0.0949072 -0.00651143 0.0822305)
(0.0698804 0.12736 0.00399143)
(0.211016 0.135228 0.500895)
(-0.0824855 0.168708 0.571523)
(-0.0248693 0.079014 0.31954)
(-0.035043 0.094248 0.146088)
(0.182856 0.132026 0.351283)
(-0.0603663 -0.0431619 1.03147)
(-0.177067 0.142932 0.385036)
(-0.0168912 0.00916229 0.476109)
(-0.00822345 0.0373002 1.86406e-05)
(-0.0212546 -0.0131204 0.181499)
(0.00466946 -0.0638734 0.4451)
(-0.00261218 0.0248578 0.0321141)
(0.013518 -0.00866835 0.260052)
(0.208024 0.211864 0.627788)
(-0.0490779 0.204375 0.799507)
(-0.0425231 0.153973 0.420101)
(-0.0691785 0.0127614 0.0808437)
(-0.08383 0.00715142 -0.014774)
(0.0117413 0.0445172 0.378317)
(0.0430735 0.0945423 0.469168)
(0.162169 0.20222 0.644725)
(0.00958126 0.181284 0.689898)
(-0.0110318 0.112833 0.454091)
(0.0412198 -0.0589193 0.165781)
(0.0725337 -0.0304085 0.117446)
(0.0808492 0.0966208 0.0560108)
(0.193882 0.161556 0.549778)
(-0.00942443 0.21757 0.682611)
(0.0694074 0.169016 0.392262)
(0.0319757 -0.0346212 0.0522117)
(-0.0245473 -0.0269851 -0.0301188)
(0.0964956 0.171066 0.488315)
(-0.0792716 -0.0334202 1.15466)
(-0.0485159 0.139107 0.490928)
(-0.0270869 -0.0103737 0.466451)
(-0.00941654 0.038871 -0.0501514)
(-0.0299926 0.0411607 0.166148)
(0.0145851 -0.0860901 0.339392)
(-0.000821131 -0.00487882 0.115788)
(0.00774503 0.0349463 0.283865)
(0.160352 0.213984 0.526645)
(-0.0358142 0.221741 0.788701)
(-0.048058 0.154109 0.383806)
(-0.0689017 -0.032597 0.0904489)
(-0.0238521 -0.0615362 -0.00710064)
(0.00761422 0.00913157 0.39022)
(0.0621038 0.0206318 0.346377)
(0.126692 0.221989 0.636426)
(0.018445 0.189154 0.723688)
(0.0184875 0.0538736 0.440705)
(0.0867997 -0.103877 0.211211)
(0.0725481 -0.0306196 0.156544)
(0.0407734 0.0205909 0.058442)
(0.136228 0.145127 0.590538)
(0.0275768 0.206825 0.755347)
(0.0872466 0.173198 0.436461)
(0.0764785 -0.0868949 0.0351403)
(0.0238198 -0.00809837 -0.0409347)
(0.000866514 0.150355 0.667044)
(-0.0571271 0.00723019 1.21881)
(0.0461026 0.0661602 0.709077)
(-0.0198562 -0.00817204 0.520034)
(0.0416658 -0.0137437 -0.0580267)
(-0.0267787 0.0954561 0.101014)
(0.0106621 0.00317466 0.3273)
(0.000753878 0.00342416 0.144102)
(0.0217992 0.00264448 0.289497)
(0.0878282 0.175094 0.451103)
(-0.0175541 0.208926 0.757218)
(-0.05029 0.133613 0.379733)
(-0.0920345 -0.0928358 0.0693968)
(-0.0103888 -0.0987502 -0.0544186)
(0.00578985 -0.0247015 0.399286)
(0.058932 -0.0406227 0.336195)
(0.0850199 0.202544 0.635166)
(0.0183201 0.172316 0.736339)
(0.063469 -0.0864107 0.469609)
(0.0771499 -0.121333 0.251847)
(0.0691959 -0.0294716 0.121301)
(-0.00518173 -0.0600065 0.0745294)
(0.0635428 0.074599 0.613979)
(-0.000100628 0.156256 0.788496)
(0.0762461 -0.0069432 0.420262)
(0.0587852 -0.0872543 0.0730216)
(-0.0725124 0.111596 0.853465)
(-0.056811 0.0227136 1.22745)
(0.113201 0.010173 0.873487)
(0.0274572 0.021718 0.475769)
(0.0759625 -0.0586244 -0.0512426)
(0.032703 0.0858804 0.084877)
(0.0188411 0.0743248 0.321733)
(0.0342784 0.0404601 0.157401)
(0.0825045 -0.0997988 0.288767)
(0.0522582 0.151641 0.432258)
(0.00350256 0.150842 0.719382)
(-0.0508071 0.0639164 0.395927)
(-0.107523 -0.120531 0.060587)
(0.00805444 -0.0642335 0.370943)
(0.0506817 -0.07127 0.350371)
(0.0695654 0.13928 0.630512)
(0.0266408 0.132261 0.751185)
(0.0698532 -0.150585 0.513656)
(-0.000395695 -0.0817117 0.252116)
(-0.0303624 -0.112833 0.104242)
(-0.0122479 -0.0672644 0.642395)
(-0.0874218 0.00513957 0.814567)
(0.0749066 -0.186899 0.367298)
(0.0360228 -0.0817736 0.128952)
(-0.168016 0.0314745 0.978121)
(-0.0483851 0.00443321 1.17438)
(0.170628 -0.0282447 0.930065)
(-0.00570193 0.025932 0.23976)
(0.0876643 -0.0747086 -0.0627124)
(0.078979 0.0456064 0.12393)
(-0.00784715 0.152322 0.267665)
(0.0247581 0.0455198 0.182675)
(0.113732 -0.112891 0.272399)
(0.0278107 0.140721 0.453727)
(0.0166019 0.107984 0.732056)
(-0.0473028 0.000487309 0.460211)
(-0.0270887 -0.089744 0.0443767)
(0.012737 -0.0760619 0.290277)
(0.0327816 -0.0678306 0.374906)
(0.0535032 0.0263202 0.663644)
(0.0387152 0.0520633 0.800751)
(0.0668177 -0.170893 0.582053)
(0.0274978 -0.0825517 0.261923)
(-0.0413164 -0.131705 0.155564)
(-0.0729071 -0.198464 0.665097)
(-0.12928 -0.113934 0.811338)
(0.0821847 -0.198655 0.337528)
(0.0234172 -0.0722945 0.154242)
(-0.242258 -0.0877481 0.917817)
(-0.233375 -0.0636295 0.859042)
(0.159271 -0.112324 0.772185)
(0.032014 0.0137712 0.075875)
(0.0688713 -0.0653247 -0.0860998)
(0.0642203 0.0058483 0.149165)
(-0.0462525 0.16948 0.213281)
(-0.0348016 -0.00331121 0.218743)
(0.110374 -0.0930629 0.24466)
(-0.00320099 0.0976072 0.51163)
(0.00491962 0.0537195 0.773144)
(-0.0497837 -0.0508864 0.506402)
(0.00346924 -0.0495021 0.0557834)
(0.00966497 -0.0604967 0.199977)
(0.0147972 -0.0632209 0.423221)
(0.00559282 -0.0865941 0.723368)
(0.0390397 -0.0372675 0.858922)
(0.0576677 -0.162999 0.621649)
(0.0135667 -0.0580731 0.253429)
(-0.0457277 -0.11097 0.215077)
(-0.10836 -0.267887 0.654361)
(-0.118374 -0.154048 0.74628)
(0.0669811 -0.134587 0.291091)
(0.00958285 -0.0481656 0.156542)
(-0.159016 -0.142549 0.768378)
(-0.149791 -0.00906327 0.577363)
(0.103227 -0.0779013 0.451457)
(0.0650841 0.00884213 0.0156285)
(0.029599 -0.0500129 -0.0917406)
(0.0245247 -0.0283975 0.165315)
(-0.107426 0.116143 0.217057)
(-0.0667387 -0.0538712 0.226443)
(0.101021 -0.102279 0.195893)
(-0.0362446 0.00451416 0.608384)
(-0.0330739 -0.0149658 0.807371)
(-0.0609178 -0.0790615 0.507003)
(0.0224556 -0.0145286 0.0664085)
(0.000966587 -0.0453696 0.165278)
(-0.0324316 -0.0558951 0.473412)
(-0.0365753 -0.126611 0.77892)
(0.0108469 -0.0826169 0.888777)
(0.0464134 -0.127429 0.631225)
(0.0118752 -0.0269151 0.247858)
(-0.0488199 -0.0563199 0.257828)
(-0.117064 -0.271694 0.625525)
(-0.100164 -0.164393 0.658285)
(0.032805 -0.0948333 0.243483)
(0.000362362 -0.0197483 0.138732)
(-0.113025 -0.0833728 0.441723)
(0.071006 -0.0829567 0.383559)
(0.0881135 -0.0588135 0.266466)
(0.0911155 0.00504457 0.0157026)
(0.0020363 -0.0437359 -0.0661109)
(0.00572223 -0.0785277 0.213903)
(-0.138409 0.0312081 0.267123)
(-0.0513041 -0.0671018 0.219467)
(0.0716521 -0.106499 0.193428)
(-0.0516811 -0.0462343 0.649558)
(-0.0510421 -0.0622455 0.81469)
(-0.0590611 -0.0984294 0.47235)
(0.0293419 0.0134907 0.0757412)
(-0.00737778 -0.0297658 0.189062)
(-0.0720842 -0.0448502 0.494564)
(-0.0407343 -0.100444 0.808441)
(-0.00845238 -0.0800024 0.895498)
(0.0390751 -0.0444087 0.612976)
(0.0136503 -0.00428572 0.24003)
(-0.0590562 -0.00847565 0.291775)
(-0.118405 -0.240121 0.61222)
(-0.089736 -0.142513 0.625304)
(0.0103953 -0.0617428 0.225416)
(0.00341122 0.00944937 0.137491)
(-0.0296442 0.0185929 0.27405)
(0.158078 -0.138641 0.2392)
(0.0945034 -0.0529177 0.201955)
(0.113541 0.00370154 0.0613185)
(-0.00181418 -0.038416 -0.0278572)
(0.0236273 -0.122222 0.285531)
(-0.125212 -0.0371052 0.326979)
(-0.00587575 -0.0434641 0.233478)
(-0.0134186 -0.0984652 0.224155)
(-0.0730458 -0.0669126 0.642366)
(-0.0434654 -0.0750628 0.796358)
(-0.0303593 -0.119336 0.426381)
(0.0328098 0.0380819 0.0898781)
(-0.0100206 -0.0197894 0.254674)
(-0.0902669 -0.0445529 0.479827)
(-0.0638243 -0.0444265 0.809358)
(-0.0117067 -0.0546237 0.888672)
(0.0484555 0.00311631 0.578343)
(0.0167042 -0.0020062 0.238506)
(-0.0762455 0.0139021 0.336551)
(-0.134209 -0.147719 0.584432)
(-0.0467643 -0.0825277 0.583194)
(0.0136953 -0.0429225 0.244917)
(0.00552027 0.0197952 0.154043)
(0.0589085 0.067139 0.228703)
(0.146642 -0.0611194 0.205802)
(0.0931434 -0.0399388 0.190696)
(0.132899 0.00589028 0.132681)
(0.0114692 -0.030186 0.0114573)
(0.0629604 -0.136469 0.35862)
(-0.0994193 -0.0699657 0.380474)
(0.0360897 -0.0199447 0.266443)
(-0.0993365 -0.0440501 0.225597)
(-0.0826034 -0.104393 0.617916)
(-0.0350698 -0.0910944 0.731535)
(0.00230712 -0.123424 0.394075)
(0.0327247 0.0563293 0.109704)
(-0.00380395 0.000713527 0.322651)
(-0.0840772 -0.0491514 0.466096)
(-0.101411 -0.0371839 0.782729)
(-0.0193772 -0.0133516 0.837893)
(0.064276 -0.00965273 0.543342)
(0.018549 -0.0030912 0.252674)
(-0.0624733 0.0429611 0.394627)
(-0.0648756 -0.0457346 0.506625)
(0.0119388 -0.0313616 0.5225)
(0.0454579 -0.0385869 0.293779)
(-0.00193089 0.0249581 0.17537)
(0.123234 0.0901744 0.214126)
(0.117746 -0.0164225 0.214001)
(0.0789868 -0.0254026 0.201232)
(0.144435 0.0108502 0.21121)
(0.0308628 -0.0212966 0.0512598)
(0.0868405 -0.147103 0.420726)
(-0.0476466 -0.0740267 0.428651)
(0.0698823 0.0195195 0.311098)
(-0.0865945 -0.00464055 0.201996)
(-0.0492153 -0.146383 0.603159)
(-0.0376538 -0.119686 0.647324)
(0.023738 -0.105106 0.378255)
(0.0220567 0.0650423 0.137576)
(0.000371181 0.0442264 0.388261)
(-0.0773084 -0.0294637 0.48176)
(-0.107524 -0.0761982 0.720487)
(-0.0152065 -0.0287434 0.737953)
(0.0733358 -0.0473634 0.507576)
(0.018107 -0.00283567 0.284684)
(0.0348526 0.0892761 0.429998)
(0.0619614 0.0290232 0.425533)
(0.0684387 -0.0131432 0.48866)
(0.082118 -0.0435928 0.34974)
(-0.0122923 0.0266447 0.190889)
(0.147429 0.0854482 0.230815)
(0.0719946 -0.00114585 0.266438)
(0.0619525 -0.0196471 0.208184)
(0.125279 0.0146135 0.287785)
(0.0278542 0.00226659 0.0801089)
(0.0964786 -0.147174 0.462051)
(0.0297991 -0.104799 0.480966)
(0.105047 0.0731961 0.341545)
(0.000239111 0.0121863 0.170326)
(0.0307506 -0.155632 0.599405)
(-0.0329315 -0.133879 0.610093)
(0.0356842 -0.0625649 0.389302)
(0.00388406 0.0649518 0.175386)
(-0.00259365 0.0700829 0.479755)
(-0.079567 0.0430365 0.491006)
(-0.0127039 -0.0935671 0.629149)
(0.0193074 -0.0631479 0.652621)
(0.0707524 -0.0643963 0.496982)
(0.023516 -0.00363278 0.32138)
(0.0912726 0.0956643 0.392112)
(0.135163 0.0517441 0.388283)
(0.106577 -0.00886171 0.475252)
(0.109396 -0.045801 0.398988)
(-0.0136716 0.0232896 0.207839)
(0.115464 0.0284915 0.282534)
(0.0200674 0.0113048 0.313695)
(0.0392187 -0.00876518 0.204113)
(0.0427964 0.0104433 0.350627)
(-0.00809953 0.0320054 0.0967684)
(0.0472334 -0.142739 0.470461)
(0.0348765 -0.117463 0.541684)
(0.130376 0.101675 0.332668)
(0.03797 0.00935056 0.132135)
(0.115686 -0.111912 0.586842)
(-0.0180796 -0.130391 0.605419)
(0.036576 -0.0123927 0.429814)
(-0.0179328 0.0550352 0.221161)
(-0.00570034 0.0762363 0.550775)
(-0.0572516 0.0415558 0.479533)
(0.118179 -0.0463575 0.555843)
(0.0561837 -0.0649914 0.608568)
(0.0674911 -0.0658931 0.499524)
(0.0356894 -0.00766259 0.36166)
(0.0979249 0.0770791 0.295508)
(0.146003 0.0481887 0.389007)
(0.113045 -0.00852199 0.466905)
(0.117553 -0.0357121 0.430107)
(-0.00692142 0.0173211 0.243705)
(0.0181336 -0.0513609 0.334248)
(-0.009961 0.0185234 0.327896)
(0.00496016 0.0119104 0.215395)
(-0.0571138 -0.000156684 0.369124)
(-0.0474729 0.0547084 0.109609)
(-0.0819448 -0.0482101 0.490303)
(0.0464546 -0.0975162 0.575355)
(0.139176 0.116507 0.309255)
(0.0338134 0.0248632 0.106562)
(0.167557 -0.0459542 0.546872)
(-0.00721155 -0.124616 0.621484)
(0.0355424 0.0291674 0.479128)
(-0.0401455 0.0373304 0.265652)
(-0.00460753 0.0706941 0.614815)
(-0.023789 -0.0264031 0.48043)
(0.162707 0.0256115 0.517383)
(0.0642644 -0.0565683 0.597374)
(0.0556665 -0.0554005 0.511714)
(0.0430175 -0.0072988 0.404108)
(0.0473047 0.0320058 0.238367)
(0.1418 0.0484881 0.403157)
(0.107665 -0.00825211 0.463668)
(0.111173 -0.0253937 0.44418)
(-0.00311599 0.0159176 0.281947)
(-0.0358758 -0.0624399 0.340559)
(-0.0211198 0.0165601 0.324991)
(-0.0306883 0.0263647 0.237071)
(-0.0755253 -0.0280272 0.344656)
(-0.0645213 0.0663229 0.12238)
(-0.126555 0.0671258 0.460573)
(0.0268474 -0.0626269 0.631072)
(0.151876 0.0991074 0.274785)
(0.0092167 0.0503216 0.1011)
(0.138566 7.75598e-05 0.517759)
(-0.00717047 -0.110567 0.658165)
(0.0519025 0.0670943 0.52464)
(-0.0543126 0.0122466 0.297431)
(0.000951727 0.0755192 0.646845)
(-0.00678498 -0.0185501 0.466326)
(0.136853 0.0947361 0.486113)
(0.0517419 -0.0521065 0.596149)
(0.037415 -0.00265939 0.528776)
(0.0441904 0.00258644 0.439683)
(0.0252671 -0.00796612 0.223625)
(0.124171 0.0819859 0.421248)
(0.0852454 -0.00699648 0.466154)
(0.0826371 -0.00799461 0.45512)
(0.00107305 0.0171617 0.311841)
(-0.0459965 -0.0306211 0.338899)
(-0.0243648 0.0109898 0.325113)
(-0.0538262 0.0350097 0.253792)
(-0.0378276 -0.0255166 0.341711)
(-0.0629276 0.0608999 0.135445)
(-0.152512 0.0889803 0.412833)
(-0.0470435 0.0321822 0.546462)
(0.0742796 0.031931 0.276311)
(-0.0210286 0.0657825 0.107404)
(0.0333231 0.0738216 0.496891)
(0.00447044 -0.0578643 0.683609)
(0.0773339 0.109939 0.562044)
(-0.055975 -0.0129531 0.316912)
(0.00992814 0.0862667 0.682703)
(0.015345 0.0297004 0.448702)
(0.0962933 0.149136 0.463289)
(0.0314465 -0.0202284 0.595577)
(0.0351117 0.0683747 0.545089)
(0.0475736 0.016925 0.466319)
(0.0164771 -0.0281871 0.225952)
(0.0892654 0.13045 0.443092)
(0.0541336 0.009345 0.477776)
(0.0428275 0.0329106 0.47601)
(0.00636458 0.0169471 0.339405)
(-0.0490395 0.00841861 0.355875)
(-0.0208983 0.00972587 0.341492)
(-0.0647298 0.040142 0.268817)
(-0.0137465 -0.0132889 0.334072)
(-0.0488377 0.0456092 0.132655)
(-0.0796367 0.0810785 0.361574)
(-0.0163899 -0.00900143 0.356886)
(-0.0321132 -0.0119305 0.268147)
(-0.0339436 0.0715806 0.112782)
(-0.0085882 0.132874 0.475126)
(0.0457588 0.0691337 0.690134)
(0.0801577 0.149521 0.586321)
(-0.0584276 -0.038574 0.331135)
(0.0139843 0.0948262 0.703739)
(0.0363296 0.0430148 0.427936)
(0.0691797 0.162774 0.460834)
(0.0405576 0.0671577 0.60776)
(0.0479495 0.115847 0.560926)
(0.0587159 0.0225492 0.490016)
(0.0116547 -0.0409739 0.239998)
(0.0660893 0.14753 0.470649)
(0.03988 0.0454232 0.50455)
(0.0320627 0.0760415 0.504597)
(0.0121696 0.011453 0.373903)
(-0.0617214 0.0163159 0.38859)
(-0.0228254 0.0185202 0.378013)
(-0.0656695 0.0415929 0.290938)
(0.0112567 -0.00227692 0.31754)
(-0.0370476 0.0341846 0.108882)
(-0.0429559 0.0781336 0.301834)
(-0.0206461 0.0338169 0.268457)
(-0.0692808 -0.0159833 0.242365)
(-0.0176495 0.0596253 0.114211)
(0.00111967 0.144247 0.462125)
(0.0741368 0.140013 0.674344)
(0.0601749 0.162392 0.588976)
(-0.0624098 -0.071628 0.333114)
(0.00901209 0.0713796 0.726623)
(0.0733369 0.0205577 0.37891)
(0.0625417 0.156898 0.468298)
(0.0635445 0.126869 0.622951)
(0.0630087 0.132929 0.582942)
(0.0709379 0.0185829 0.516213)
(0.00455544 -0.0529352 0.264034)
(0.0539103 0.131877 0.5027)
(0.0324318 0.0795573 0.550142)
(0.0372014 0.0995048 0.544751)
(0.0140014 0.00276306 0.410309)
(-0.0797693 -0.00867451 0.419025)
(-0.0366069 0.0316005 0.425742)
(-0.0597583 0.0394321 0.318979)
(0.0155376 0.00365992 0.295169)
(-0.0266425 0.0210612 0.0853418)
(-0.0310715 0.0583736 0.264998)
(-0.0395196 0.0564887 0.232361)
(-0.0685363 -0.0178543 0.224883)
(0.0226935 0.0322225 0.124455)
(0.0314106 0.129054 0.437529)
(0.0892244 0.150249 0.63502)
(0.0304831 0.143509 0.580073)
(-0.0642162 -0.0902199 0.321406)
(-0.0156035 -0.0327785 0.74538)
(0.0972281 0.0127065 0.321534)
(0.0724313 0.136451 0.4793)
(0.0717084 0.13691 0.635384)
(0.0731421 0.119909 0.616601)
(0.0622139 0.00381342 0.540949)
(-0.00866698 -0.0609468 0.287238)
(0.0239805 0.068384 0.545236)
(0.0190791 0.0894324 0.601449)
(0.0405949 0.0946669 0.596738)
(0.00836354 -0.00138192 0.431268)
(-0.098161 -0.0379634 0.430874)
(-0.0571995 0.0337871 0.470361)
(-0.0470085 0.0343993 0.344805)
(0.0197101 0.00483693 0.256893)
(-0.01483 0.00536816 0.0796581)
(-0.0361488 0.034558 0.249736)
(-0.0564999 0.0506526 0.220734)
(-0.0596521 -0.0263696 0.212506)
(0.0571436 0.0116668 0.144395)
(0.0659801 0.094576 0.411158)
(0.0899034 0.130005 0.602921)
(-0.0278107 0.0622553 0.584249)
(-0.0409946 -0.0716729 0.301826)
(-0.0322307 -0.0685405 0.737816)
(0.0755044 0.021014 0.309105)
(0.0837292 0.0649835 0.507451)
(0.0690145 0.127828 0.647196)
(0.0670709 0.0737077 0.668792)
(0.00215793 -0.0379016 0.541763)
(-0.0253009 -0.0625838 0.306877)
(-0.0252872 -0.0162026 0.580622)
(-0.00288472 0.064474 0.647795)
(0.0193464 0.0557243 0.645178)
(-0.00534303 0.0107298 0.430509)
(-0.104357 -0.0458976 0.422242)
(-0.0742546 0.0226059 0.48718)
(-0.0379855 0.0276624 0.36316)
(0.031231 0.00345647 0.228866)
(0.000324363 -0.00965313 0.088774)
(-0.0261805 0.0291926 0.240698)
(-0.0708333 0.0387267 0.221621)
(-0.0481146 -0.035347 0.209612)
(0.0720942 0.00708815 0.169301)
(0.0725162 0.0605561 0.410027)
(0.0663251 0.10824 0.60083)
(-0.0604101 -0.00476004 0.586881)
(0.00895469 -0.0445792 0.272745)
(0.0220538 -0.0597713 0.605447)
(0.0413716 0.0283015 0.326637)
(0.0754138 -0.0272024 0.538096)
(0.0640321 0.0890931 0.674368)
(0.0358497 0.0281136 0.71209)
(-0.0281969 -0.0364574 0.492166)
(-0.0375546 -0.0609467 0.325154)
(-0.0590251 -0.0698798 0.58365)
(-0.0234529 0.0211944 0.681462)
(-0.0146031 0.0124995 0.6634)
(-0.0240486 0.0375092 0.426245)
(-0.0912947 -0.0379732 0.402339)
(-0.0709851 0.00875378 0.466596)
(-0.0457327 0.0258019 0.375745)
(0.0332799 0.00259639 0.228532)
(0.0147839 -0.0196091 0.102045)
(0.00951507 0.0204767 0.220202)
(-0.0684651 0.0211989 0.241847)
(-0.0309884 -0.0303945 0.219903)
(0.0679033 0.00866697 0.191589)
(0.0448443 0.0387868 0.429759)
(-0.0109875 0.0710695 0.603056)
(-0.0610766 -0.0385311 0.551498)
(0.0330424 -0.0447821 0.227354)
(0.0141651 -0.0766905 0.330975)
(0.0207998 0.0297501 0.343454)
(0.0585894 -0.0768841 0.561415)
(0.0568882 0.0407249 0.717082)
(-0.00619706 0.0191225 0.728715)
(-0.0130737 0.00354518 0.44809)
(-0.0440139 -0.0538594 0.341679)
(-0.074823 -0.0914205 0.563103)
(-0.0334349 -0.0105803 0.688238)
(-0.0264501 0.00826676 0.662293)
(-0.0302838 0.0592382 0.412845)
(-0.0725977 -0.0282417 0.379828)
(-0.058596 0.00677697 0.429174)
(-0.0578486 0.0291416 0.381577)
(0.0322147 0.00367457 0.235317)
(0.0197753 -0.0259494 0.112801)
(0.00802681 -0.00856615 0.201586)
(-0.0421747 0.00704297 0.282545)
(-0.0057027 0.00875872 0.236912)
(0.0527014 0.00544732 0.215422)
(-0.0214172 0.014628 0.467178)
(-0.0913147 0.0249412 0.585816)
(-0.060854 -0.0582929 0.464919)
(0.0251675 -0.0366067 0.204959)
(-0.00273678 -0.0811301 0.254339)
(0.0105831 0.0238135 0.357255)
(0.0359233 -0.0811475 0.585728)
(0.0231107 0.0146961 0.760921)
(-0.026198 0.0367693 0.721929)
(0.00423319 0.0502289 0.416241)
(-0.0421771 -0.0386803 0.356064)
(-0.0707009 -0.0864806 0.535122)
(-0.0370982 -0.0189695 0.675726)
(-0.0251502 0.0168836 0.655504)
(-0.0293838 0.0648335 0.403065)
(-0.0604584 -0.023806 0.361173)
(-0.0625453 0.0167782 0.401878)
(-0.073511 0.0400055 0.380569)
(0.0442841 0.00570666 0.230312)
(0.020571 -0.0291696 0.125632)
(0.00269032 -0.026952 0.198488)
(-0.000600108 0.00381282 0.315257)
(0.0270464 0.0403059 0.246467)
(0.037182 -0.00330013 0.248831)
(-0.0667168 -0.00107093 0.496347)
(-0.118483 -0.00967467 0.570434)
(-0.0706427 -0.0461852 0.394435)
(0.00191943 -0.0129461 0.211867)
(-0.00657693 -0.0810998 0.235596)
(-0.00501397 0.0140116 0.380723)
(0.00386027 -0.0497123 0.607905)
(-0.0308205 0.0139256 0.783745)
(-0.0140817 0.0671606 0.69309)
(-0.0160118 0.0426174 0.3612)
(-0.0399538 -0.022674 0.365375)
(-0.0549888 -0.0602002 0.516191)
(-0.0491059 -0.00477053 0.651685)
(-0.0112733 0.0432841 0.640354)
(-0.0163416 0.0462513 0.408964)
(-0.052128 -0.0223507 0.357668)
(-0.078152 0.0293989 0.394558)
(-0.0914495 0.0574836 0.389452)
(0.0587613 0.00599328 0.209412)
(0.0227186 -0.0301589 0.140274)
(0.00188667 -0.0324183 0.202031)
(0.025874 0.000946078 0.328075)
(0.0566075 0.0530021 0.242585)
(0.0305933 -0.0193294 0.28881)
(-0.0840407 -0.00367773 0.516078)
(-0.109472 -0.0282894 0.565121)
(-0.080175 -0.0177908 0.351155)
(-0.0176661 0.013404 0.220767)
(-0.00730349 -0.0773493 0.238757)
(-0.012306 -0.00919591 0.41122)
(-0.0324086 -0.00893983 0.623526)
(-0.0686689 0.0276709 0.770561)
(-0.00353654 0.087435 0.627918)
(-0.0265847 -0.0209086 0.312981)
(-0.0407928 -0.0176124 0.365245)
(-0.0469793 -0.0268609 0.52024)
(-0.0625766 0.0185625 0.628578)
(-0.00619799 0.0920704 0.613231)
(0.0155425 0.0435536 0.461825)
(-0.0419546 -0.0169245 0.372033)
(-0.0840162 0.0365167 0.406182)
(-0.0964803 0.0585639 0.414231)
(0.0541107 0.00480171 0.193555)
(0.0265856 -0.030492 0.155405)
(0.00362743 -0.0278246 0.208025)
(0.0564523 -0.00929368 0.316673)
(0.0776856 0.0508832 0.240855)
(0.0313152 -0.0432384 0.325927)
(-0.0875303 0.00547861 0.52839)
(-0.0865666 -0.0292987 0.556284)
(-0.0816239 0.00105084 0.334545)
(-0.0229531 0.0321344 0.228482)
(-0.00626335 -0.0708416 0.248867)
(-0.00739742 -0.0449062 0.437589)
(-0.061512 0.0181831 0.63512)
(-0.081344 0.0324353 0.738811)
(-0.0322669 0.0457489 0.575591)
(-0.0344003 -0.0572949 0.296727)
(-0.043413 -0.0293036 0.355543)
(-0.0445296 0.00871603 0.537945)
(-0.0630079 0.0271825 0.61587)
(-0.0121133 0.0896125 0.590888)
(0.0351338 0.0121184 0.538131)
(-0.0335877 -0.00880089 0.397564)
(-0.079721 0.0327361 0.430642)
(-0.0850763 0.055789 0.419532)
(0.0478637 0.00512184 0.180288)
(0.0327596 -0.0343856 0.16892)
(0.0176763 -0.0253779 0.214438)
(0.0690224 -0.00508016 0.286004)
(0.0826482 0.0392971 0.248057)
(0.0337992 -0.0701767 0.349177)
(-0.083498 0.0183837 0.541211)
(-0.0518568 -0.0174611 0.553424)
(-0.0775525 0.00539831 0.33916)
(-0.0228804 0.0400808 0.232117)
(-0.00645643 -0.0655518 0.254795)
(-0.010066 -0.0728334 0.453132)
(-0.0714165 0.0335854 0.642447)
(-0.0749186 0.0217947 0.717296)
(-0.0644571 -0.0178498 0.549649)
(-0.0345046 -0.0478122 0.296921)
(-0.0433239 -0.0419144 0.343186)
(-0.0257688 0.0374763 0.560072)
(-0.0584081 0.0249752 0.611226)
(-0.0417816 0.0400339 0.586478)
(0.0309199 -0.0869126 0.447041)
(-0.0261026 -0.00247165 0.425395)
(-0.0548166 0.0252551 0.465988)
(-0.0697552 0.0554003 0.415854)
(0.0456486 0.0050674 0.172458)
(0.0401484 -0.0420934 0.179328)
(0.0384016 -0.0253692 0.215982)
(0.0605161 0.00365909 0.251602)
(0.0729293 0.028282 0.255252)
(0.0324308 -0.0903993 0.361264)
(-0.070567 0.0317614 0.549451)
(-0.0174639 -0.00471222 0.559927)
(-0.0597691 0.00178778 0.365502)
(-0.0218729 0.0407089 0.226695)
(-0.00707545 -0.0583997 0.260054)
(-0.0231596 -0.092466 0.458384)
(-0.0648238 0.0470786 0.641083)
(-0.0459242 0.0138182 0.710247)
(-0.0629508 -0.0446324 0.552472)
(-0.0197107 -0.0077803 0.28622)
(-0.0385116 -0.0442148 0.335317)
(0.0219901 0.0401812 0.578404)
(-0.0474986 0.0180795 0.616209)
(-0.0743649 -0.0269088 0.563942)
(0.000434897 -0.0397251 0.286647)
(-0.0155027 0.00858857 0.444086)
(-0.00984201 0.0204265 0.506238)
(-0.00622003 0.0131191 0.435381)
(0.0457874 0.0048647 0.173388)
(0.0469683 -0.0497228 0.186121)
(0.0511794 -0.0274301 0.215269)
(0.0575949 0.00707918 0.237081)
(0.0571947 0.0146789 0.264058)
(0.0211178 -0.0913883 0.372017)
(-0.0472627 0.0435074 0.540265)
(0.00100495 0.00449431 0.558145)
(-0.0361866 -0.0144308 0.397631)
(-0.0184575 0.0347102 0.218181)
(-0.00663245 -0.0463087 0.264719)
(-0.0245968 -0.104449 0.453856)
(-0.0439947 0.0554005 0.633075)
(0.0115048 0.0152349 0.706695)
(-0.0433371 -0.0458814 0.556248)
(-0.00207463 0.00108381 0.272791)
(-0.0267672 -0.0381976 0.336624)
(0.0590919 0.00497996 0.580829)
(-0.0154887 0.00906361 0.635885)
(-0.0314407 -0.051435 0.523441)
(-0.00328287 -0.0120103 0.217537)
(-0.016702 0.0162075 0.442575)
(0.0256685 -0.00238397 0.526218)
(0.065187 -0.031847 0.446638)
(0.043022 0.00409614 0.183714)
(0.0524313 -0.0545202 0.190481)
(0.0581682 -0.0336996 0.222903)
(0.0543704 0.00712413 0.238819)
(0.0425438 -0.00125936 0.280629)
(0.00651595 -0.0719134 0.377977)
(-0.00707578 0.0449532 0.515035)
(0.00653301 0.0119667 0.547692)
(-0.0184885 -0.0351481 0.42314)
(-0.0145691 0.0268367 0.21801)
(-0.00658324 -0.0359708 0.265969)
(-0.0102136 -0.102182 0.444651)
(-0.0165748 0.0389917 0.627223)
(0.0523286 0.0219048 0.702655)
(0.00117933 -0.0340804 0.568904)
(0.0130002 -0.00650188 0.268287)
(-0.0116396 -0.0232753 0.336477)
(0.0441089 -0.0495576 0.563627)
(0.0240274 0.00391669 0.655611)
(0.0108966 -0.0553996 0.515293)
(0.00273667 -0.00805688 0.200922)
(-0.0301136 0.00784747 0.410535)
(0.0406895 -0.0240853 0.511954)
(0.0908597 -0.0540938 0.42762)
(0.0360582 0.00276108 0.199098)
(0.0500537 -0.053313 0.199128)
(0.0583746 -0.0376188 0.244173)
(0.0432175 0.0103164 0.250873)
(0.028885 -0.0160127 0.301866)
(-0.00181068 -0.0590393 0.363062)
(0.0415292 0.0315856 0.487131)
(0.0101379 0.0156704 0.5409)
(-0.00747352 -0.0540597 0.443781)
(-0.0103142 0.0179097 0.229269)
(-0.00777438 -0.0317215 0.267844)
(-0.00547572 -0.0753959 0.441904)
(-0.00332961 0.0177699 0.62922)
(0.0691883 0.0308618 0.697745)
(0.0247481 -0.025721 0.582505)
(0.0213277 -0.0167762 0.272815)
(-0.00805827 -0.0116516 0.328561)
(0.00430441 -0.0884381 0.536103)
(0.053942 0.000735321 0.668487)
(0.0311207 -0.0481297 0.532395)
(0.00840062 -0.0111137 0.214851)
(-0.0244988 0.00528803 0.374783)
(0.0180534 -0.0294228 0.458982)
(0.0705909 -0.0436766 0.388803)
(0.0264136 0.00129259 0.217212)
(0.0295528 -0.0379341 0.216915)
(0.04921 -0.0368526 0.272932)
(0.030731 0.0210045 0.267254)
(0.0137556 -0.0325292 0.326087)
(0.022172 -0.0624366 0.302836)
(0.0758736 0.0120323 0.463543)
(0.01203 0.0156181 0.540919)
(-0.00402139 -0.0683432 0.458598)
(-0.0054627 0.0112735 0.250631)
(-0.00984481 -0.0329476 0.281112)
(-0.00210868 -0.0373085 0.438969)
(-0.00507869 0.00464044 0.632413)
(0.0696896 0.0389848 0.692577)
(0.0280753 -0.0243859 0.591491)
(0.0225476 -0.0234806 0.278152)
(-0.0229846 -0.0174089 0.321133)
(-0.0207304 -0.0801577 0.505268)
(0.0659387 -0.00756809 0.671742)