/*--------------------------------*- C++ -*----------------------------------*\
| =========                 |                                                 |
| \\      /  F ield         | OpenFOAM: The Open Source CFD Toolbox           |
|  \\    /   O peration     | Version:  5.x                                   |
|   \\  /    A nd           | Web:      www.OpenFOAM.org                      |
|    \\/     M anipulation  |                                                 |
\*---------------------------------------------------------------------------*/
FoamFile
{
    version     2.0;
    format      ascii;
    class       volScalarField;
    location    "4";
    object      Ksl;
}
// * * * * * * * * * * * * * * * * * * * * * * * * * * * * * * * * * * * * * //

dimensions      [1 -3 -1 0 0 0 0];

internalField   nonuniform List<scalar> 
10571
(
4345.33
12356.2
5370.4
2346.26
6420.41
4853.88
2090.64
1882.46
6306.24
2422.57
1138.42
3562.66
922.079
911.534
4234.8
1290.63
2948.91
3754.82
991.942
4402.75
5119.16
1271.14
913.811
3831.12
10567.8
8000.39
3967.24
736.924
2866.78
3763.15
880.85
1139.63
7393.25
9745.39
830.496
1835.02
1541.13
1228.04
4681.35
12687
2767.57
2383.57
1613.32
1144.21
9595.2
2478.31
7205.18
9380.26
11856.3
2991.69
1441.9
202.943
1555.28
3392.66
3279.97
3495.1
1734.93
6454.02
2519.2
1459.79
6200.86
4353.43
805.934
162.931
3805.78
6389.87
3417.67
4622.67
41.0254
5169.68
7623.22
968.349
7415.21
8412.59
3314.06
11222.2
9219.41
1982.6
2907.9
3387.16
261.136
222.65
13189.2
3552.92
5927.59
3183.8
149.877
353.519
5498.75
7556.93
3686.35
108.02
29.7005
5972.25
6401.57
44.8213
2111.24
701.74
2654.57
16.3234
84.0433
580.382
2773.8
306.464
57.8501
82.325
1246.07
1283.72
1034.1
192.464
58.6525
619.166
2688.94
564.232
193.312
29.3963
90.2102
143.84
103.592
0.617525
10.7707
243.818
801.823
126.987
26.4591
466.584
263.95
57.8116
24.0136
40.8624
16662.3
192.385
239.352
78.0556
28.452
33.2319
145.099
10652.6
115.438
283.987
46.0636
34.0627
33.4732
66.3239
22.7056
0
32.7142
153.307
32.4974
24.7576
1.81486
235.008
88.4145
30.6417
5.58919
10.2359
0.189983
126.654
38.9051
114.751
40.8518
10.506
0
0.110173
237.095
152.165
62.0287
26.3279
0
0.2162
38.5209
4.53551
0
0
63.6161
16.457
0
0
57.7638
106.01
38.4208
1.62921
7.01917
0
143.56
43.8127
59.7752
24.9055
0.952896
0
0
67.1984
3.11699
8.21638
0
0
0
11.4872
0
0
0
46.4659
32.7205
0
0
62.3934
17.7661
23.1207
2.46805
6.17104
0
77.8373
12.7232
8.46742
10.7243
0.900729
0
0
49.4389
0.984211
0.63007
0
0
5.66595
0
0
15.6637
37.0241
14.0107
0
0
16.4478
7.48115
4.8704
1.43468
0
103.508
53.3198
3.30473
3.6839
0
0
51.2686
0.551763
0
0
0
5.57636
0
0
0
12.5318
25.0515
0
0
23.5295
4.4335
3.66158
0
0
53.1406
26.5524
0
2.81355
0.564815
0
27.9439
0.210062
0
0
0
16.5683
5.93131
0
0
18.5078
11.894
0
4.78303
14.5885
4.25989
1.23204
0
0
45.0115
24.7427
1.66914
1.29279
0.304022
0
24.0546
0
0.732869
0
0
14.7094
5.58463
0
0
8.30665
2.33085
5.60945
0
29.0558
2.05054
0.36553
0
0
33.8762
27.5458
1.98265
1.29267
0
0
37.0015
0.615602
0
0
0
10.5901
5.6785
0
0
4.55646
2.65958e-14
0
0
8.82743
2.97103
0.7684
0
0
42.9428
28.9155
0.930617
1.30598
0
0
24.675
1.62577
0
0
0
7.31254
0
0
0
7.78007
1.43848
0
0
7.10008
4.23058
1.17966
0
0
35.8559
20.4453
2.25931
0
0
0
32.9832
1.09
1.4735
0
0
0
0
0
0
8.72294
2.02186
0
0
18.562
2.69615
2.36624
0.678585
0
11.8681
23.7793
2.92705
0.0223185
0
0
37.1613
1.09726
0.750988
0
0
0
0
0
0
12.6203
4.35534
0
0
6.91602
1.6878
0
0
0
16.8118
3.3048
2.66573
1.26595
0
0
48.9426
1.29172
0
0
0
0
0
0
0
0
1.30817
0
0
3.91869
0.53824
0.541378
0
0
16.9385
16.4842
3.9175
0.659182
0
0
9.21667
0.366146
0.70441
0
0
0.111208
0
0
0
8.61627
0
0
0
8.25136
2.915
0
0
0
19.8501
19.7135
1.19763
1.24619
0
0
2.91643
1.06412
0
0
0
0
0
0
0
0
0
0
0
16.0396
2.78039
0
0
0
31.9301
5.48806
0.488598
0.0292164
0.690815
0
6.1228
1.48052
0
0
0
0
0
0
0
0
0
0
0
4.56453
1.09329
0
0
0
10.8222
4.54602
1.65119
0
0
0
3.51085
0.281657
0.709357
0
0
0
0
0
0
0
0
0
0
7.37522
2.09218
0
0
0
6.84456
11.9029
0.0919894
0
0
0
14.03
0.402505
0
0
0
0
0
0
0
0
0
0
0
0.127999
0.521274
0
0
0
0
5.00351
1.545
0
0
0
0
1.12368
0
0
0
0
0
0
0
0
0
0
0
0
0.521597
0
0
0
6.51161
5.89292
0.506454
0
0
0
4.11243
0.444543
0
0
0
0
0
0
0
0
0
0
0
0
0
0
0
0
0
15.0014
0.526976
0
0
0
0
0.494926
0
0
0
5.01984
0
0
0
0
0
0
0
0
0
0
0
0
1.50187
0
0
0
0
0
0
0
0
0
0
0
0
0
0
0
0
0
0
0
0
0
0
0
0
0.0239047
0
0
0
0
3.91424
0
0
0
0
0
0
0
0
0
0
0
0
0
0
0
0
0
0
0
0
0
0
0
2.46744
0
0
0
0
0
0
0
0
0
0
0
0
0
0
0
0
0
0
0
0
0
0
0
0
0
0
0
0
0
0
0
0
0
0
0
0
0
0
0
0
0
0
0
0
0
0
0
0
0
0
0
0
0
0
0
0
0
0
0
0
0
0
0
0
0
0
0
0
0
0
0
0
0
0
0
0
0
0
0
0
0
0
0
0
0
0
0
0
0
0
0
0
0
0
0
0
0
0
0
0
0
0
0
0
0
0
0
0
0
0
0
0
0
0
0
0
0
0
0
0
0
0
0
0
0
0
0
0
0
0
0
0
0
0
0
0
0
0
0
0
0
0
0
0
0
0
0
0
0
0
0
0
0
0
0
0
0
0
0
0
0
0
0
0
0
0
0
0
0
0
0
0
0
0
0
0
0
0
0
0
0
0
0
0
0
0
0
0
0
0
0
0
0
0
0
0
0
0
0
0
0
0
0
0
0
0
0
0
0
0
0
0
0
0
0
0
0
0
0
0
0
0
0
0
0
0
0
0
0
0
0
0
0
0
0
0
0
0
0
0
0
0
0
0
0
0
0
0
0
0
0
0
0
0
0
0
0
0
0
0
0
0
0
0
0
0
0
0
0
0
0
0
0
0
0
0
0
0
0
0
0
0
0
0
0
0
0
0
0
0
0
0
0
0
0
0
0
0
0
0
0
0
0
0
0
0
0
0
0
0
0
0
0
0
0
0
0
0
0
0
0
0
0
0
0
0
0
0
0
0
0
0
0
0
0
0
0
0
0
0
0
0
0
0
0
0
0
0
0
0
0
0
0
0
0
0
0
0
0
0
0
0
0
0
0
0
0
0
0
0
0
0
0
0
0
0
0
0
0
0
0
0
0
0
0
0
0
0
0
0
0
0
0
0
0
0
0
0
0
0
0
0
0
0
0
0
0
0
0
0
0
0
0
0
0
0
0
0
0
0
0
0
0
0
0
0
0
0
0
0
0
0
0
0
0
0
0
0
0
0
0
0
0
0
0
0
0
0
0
0
0
0
0
0
0
0
0
0
0
0
0
0
0
0
0
0
0
0
0
0
0
0
0
0
0
0
0
0
0
0
0
0
0
0
0
0
0
0
0
0
0
0
0
0
0
0
0
0
0
0
0
0
0
0
0
0
0
0
0
0
0
0
0
0
0
0
0
0
0
0
0
0
0
0
0
0
0
0
0
0
0
0
0
0
0
0
0
0
0
0
0
0
0
0
0
0
0
0
0
0
0
0
0
0
0
0
0
0
0
0
0
0
0
0
0
0
0
0
0
0
0
0
0
0
0
0
0
0
0
0
0
0
0
0
0
0
0
0
0
0
0
0
0
0
0
0
0
0
0
0
0
0
0
0
0
0
0
0
0
0
0
0
0
0
0
0
0
0
0
0
0
0
0
0
0
0
0
0
0
0
0
0
0
0
0
0
0
0
0
0
0
0
0
0
0
0
0
0
0
0
0
0
0
0
0
0
0
0
0
0
0
0
0
0
0
0
0
0
0
0
0
0
0
0
0
0
0
0
0
0
0
0
0
0
0
0
0
0
0
0
0
0
0
0
0
0
0
0
0
0
0
0
0
0
0
0
0
0
0
0
0
0
0
0
0
0
0
0
0
0
0
0
0
0
0
0
0
0
0
0
0
0
0
0
0
0
0
0
0
0
0
0
0
0
0
0
0
0
0
0
0
0
0
0
0
0
0
0
0
0
0
0
0
0
0
0
0
0
0
0
0
0
0
0
0
0
0
0
0
0
0
0
0
0
0
0
0
0
0
0
0
0
0
0
0
0
0
0
0
0
0
0
0
0
0
0
0
0
0
0
0
0
0
0
0
0
0
0
0
0
0
0
0
0
0
0
0
0
0
0
0
0
0
0
0
0
0
0
0
0
0
0
0
0
0
0
0
0
0
0
0
0
0
0
0
0
0
0
0
0
0
0
0
0
0
0
0
0
0
0
0
0
0
0
0
0
0
0
0
0
0
0
0
0
0
0
0
0
0
0
0
0
0
0
0
0
0
0
0
0
0
0
0
0
0
0
0
0
0
0
0
0
0
0
0
0
0
0
0
0
0
0
0
0
0
0
0
0
0
0
0
0
0
0
0
0
0
0
0
0
0
0
0
0
0
0
0
0
0
0
0
0
0
0
0
0
0
0
0
0
0
0
0
0
0
0
0
0
0
0
0
0
0
0
0
0
0
0
0
0
0
0
0
0
0
0
0
0
0
0
0
0
0
0
0
0
0
0
0
0
0
0
0
0
0
0
0
0
0
0
0
0
0
0
0
0
0
0
0
0
0
0
0
0
0
0
0
0
0
0
0
0
0
0
0
0
0
0
0
0
0
0
0
0
0
0
0
0
0
0
0
0
0
0
0
0
0
0
0
0
0
0
0
0
0
0
0
0
0
0
0
0
0
0
0
0
0
0
0
0
0
0
0
0
0
0
0
0
0
0
0
0
0
0
0
0
0
0
0
0
0
0
0
0
0
0
0
0
0
0
0
0
0
0
0
0
0
0
0
0
0
0
0
0
0
0
0
0
0
0
0
0
0
0
0
0
0
0
0
0
0
0
0
0
7283.89
3177.26
5354.49
5189.16
3109.26
3652.05
3333.05
3177.99
8637.93
7831.59
5202.34
7701.29
4622.42
5309.6
4671.77
6602.95
1061.79
1021.62
1792.33
730.031
1073.96
2474.27
1207.92
1140.57
1145.08
738.688
5698.32
8497.35
7012.57
5650.1
7943.11
7808.11
9214.36
7235.68
1175.64
8953.09
3088.34
963.79
1350.36
588.587
799.028
985.81
449.8
609.024
835.59
238.517
653.329
487.562
6335.04
9380.47
5766.85
9734.74
8105.38
9258.87
5745.88
6404.7
4637.96
2829.9
4397.81
733.836
682.593
568.502
712.784
681.702
707.4
899.925
1145.45
485.668
1002.67
568.166
7597.53
7102.26
8601.28
7429.47
8142.13
5395.71
4666.37
3973.62
1612.56
708.972
655.886
2532.12
2593.48
1182.12
2138.83
3073.3
3149.83
692.425
6267.11
1422.02
1293.46
1216.01
735.295
2922.4
711.694
3634.17
12092.4
11537.2
4763.98
7722
5455.4
10395.2
9869.72
9320.68
4990.02
5671.16
9761.47
7120.32
7854.2
7412.82
9956.69
11855.5
11940.1
10619.7
11122.8
8923.69
12282.1
7607.89
10417.5
9589.64
4437.35
5898.36
4650.01
9626.27
8855.79
10329.5
9540.27
3442.1
9139.55
5887.43
3463.54
1412.92
7511.12
3416.52
1124.5
2792.95
402.403
8256.4
9269.31
7940.31
1226.5
2811.27
1129.44
1531.12
3105.3
45.672
1687.88
8697.21
7034.19
9715.32
6629.98
3421.38
1668.24
3262.2
1820.37
1215.55
5559.68
3670.09
4025.33
5719.63
4540.24
5736.61
6281.22
10956.7
4341.01
10056.7
12667.9
765.127
1564.52
3388.77
3085.86
919.72
3840.07
7070.91
1616.49
2602.46
5116
6154.81
6907.98
5648.24
1672.07
363.188
11514.4
8267.46
7389.1
10489.7
2790.65
6727.69
4189.75
3428.23
12103.2
3338.69
3568.65
4029.27
6038.44
11176
10793.3
3622.72
8325.58
8450.2
3864.42
3124.51
7397.55
7435.64
6811.35
5917.62
11354.2
427.542
2749.88
681.871
7016.64
9963.37
11223.5
8167.33
3773.92
2883.59
8575.42
6104.4
4275
11845.7
8703.67
9346.51
9987.97
6314.25
959.839
1779.11
1395.7
626.619
1459.12
8986.21
10729.1
4952.54
6521.28
1190.96
4108.05
3634.68
7209.4
3253.91
4417.25
3856.2
2775.79
3219.59
3308.49
6211.7
5267.1
11021.2
824.638
647.195
3237.17
1294.24
325.287
2896.31
1724.91
3942.26
10019.6
3214.4
3649.12
9522.72
7623.12
10106.2
6899.34
6657.67
9844.71
5346.11
350.954
434.298
11210.7
1436.76
6542.43
8471.46
3537.51
7920.11
6620.79
6922.12
12698.7
9708.85
10310.4
8865.5
11483.1
10736.6
2795.76
3337.67
6534.94
6187.03
5402.87
4617.39
4588.2
6457.96
7832.3
607.505
7979.65
8870.31
9932.98
7302.19
6442.83
10342.4
3922.57
7785.27
8267.76
6589.93
4146.37
11343.9
9765.36
2364.58
1032.83
710.619
558.108
31.8797
1514.12
1484.45
8326.35
6022.17
4378.14
334.986
62.1626
191.991
79.7711
52.9475
3048.28
3573.09
905.387
3463.2
1748.17
4238.66
3828.15
3747.72
2920.9
234.742
1146.75
157.683
987.897
33.3133
304.77
0
11.039
1795.36
6648.44
5704.71
13054.5
9461.87
10381.4
11743.9
4069.34
10370.2
9865.25
1837.35
10684.3
240.547
7027.19
7638.71
3155.34
4141.91
6289.46
1645.54
1493.94
2996.66
8653.01
9545.32
3108.03
1600.57
2872.52
11918.4
1031.71
292.071
321.775
6359.8
2847.78
6490.73
3460.85
5760.43
1061.6
3620.61
5223.41
4520.67
1088.21
701.561
170.584
218.47
172.387
312.397
234.204
2303.99
12790.6
8654.76
525.407
5081.35
3650.33
484.372
144.259
232.998
427.681
229.197
9675.08
7034.2
10880
9266.77
6896.24
71.5312
66.922
419.055
72.2914
60.9634
4270.41
7322.15
8008.38
4150.91
5309.28
5642.77
7781.49
3577.31
5483.37
38.2297
129.487
0
65.1419
23.5531
38.9947
24.4023
32.4358
4891.65
576.908
7890.46
5240.51
496.027
2328.54
415.678
643
4259.93
1786.47
160.573
274.445
4.80904
1183.13
320.431
2366.13
2978.95
632.742
1016.16
1290.41
572.057
408.388
358.465
157.615
228.035
77.7426
73.4316
14.5585
182.629
367.956
796.192
467.198
1119.33
462.152
233.132
777.795
1142.56
63.0257
76.3763
104.864
27.1169
13.9884
30.6223
19.4468
50.1812
44.6947
364.674
632.8
1426.79
279.107
347.312
506.884
429.736
444.159
36.502
292.579
641.575
1936.1
1181.02
185.742
228.37
217.831
272.869
177.339
447.84
710.251
219.33
1385.16
374.496
3678.11
797.019
1501.89
166.899
15.6022
535.526
84.4304
58.5916
0
19.7827
47.0672
45.1145
23.4154
10.1281
133.188
145.026
194.903
194.909
195.791
103.62
80.4693
196.87
6.84517
116.644
20.8357
0.348479
95.6122
16.7389
161.829
96.7366
199.79
467.958
187.424
0
41.413
32.1127
117.193
53.1883
25.9234
18.6257
5.35829
13.572
0
319.718
321.726
262.014
366.115
1031.63
181.849
84.473
155.65
327.109
15.3972
4.28113
13.7765
2.72651
7.56816
7.0217
9.37951
6.63672
7.64846
198.012
235.655
248.508
291.775
198.066
172.57
1852.43
107.222
3214.28
1.55553
90.5469
16.0358
90.5945
6434.22
10262.3
10330.7
2267.51
11035.2
2828.74
10571.8
149.12
206.833
289.009
120.912
251.599
3566.22
218.841
3240.38
14.0609
143.358
4.31524
631.581
12363.4
13729.6
9496.83
4302.59
10892.4
5097.19
11752.6
285.368
201.992
10.6764
799.649
85.0255
107.449
117.734
399.227
226.375
16.8422
6.19349
14.31
15.8605
16.6384
6.49091
2.10586e-13
0
347.087
283.142
70.4317
111.721
164.416
116.386
101.057
0
18.0678
4.64769
0
48.1889
0
33.2612
42.974
0
13.0897
38.3935
0
28.7317
13.0493
8.70732
5.45799
0
0
0
10.3277
0
301.156
213.561
34.6396
129.691
59.8575
93.7822
43.3719
101.453
38.5995
2.74635e-13
10.6428
0
0
0
5.86352
4.44546
0
0
0
0
0
4.77633
0
0
192.68
243.437
179.928
198.919
137.486
100.702
2.4132
0
0
1.47338
0
0
0
215.054
9.12014e-15
140.496
0
0
0
0
98.0684
182.302
118.349
100.303
130.186
0
0
3.11509
0
0
0
0
149.027
2.39958
312.521
0
0
0
0
174.3
313.808
462.494
63.3352
222.709
121.455
65.7912
17.9628
5.87879
16.4331
17.121
0
24.4444
0
8.70288
0
0
0
0
9.22995
0
0
126.593
40.5036
17.7496
38.4383
6.24785
8.56012
40.2381
0
16.9507
1.94072
0
45.5052
0
69.9963
33.9095
0
19.251
18.7526
3.12178
30.5873
14.807
0
0
12.2151
4.45412
0
0
0
196.562
118.302
38.9203
78.9901
22.3414
94.5715
41.999
76.2328
14.0266
0
0
0
4.7119
0
7.18694
4.38299
0
0
0
0
0
0
0
0
118.349
269.734
109.767
125.66
115.676
106.122
0
0
0
0
0
0
0
0
0
0
0
0
0
0
117.329
164.624
75.5356
67.77
88.8762
0
0
0
0
3.59255
0
0
0
0
0
0
0
0
0
126.079
89.491
8.83101
6.3444
0
53.8514
2.01045
11.7703
0
0
0
0
0
0
0
0
0
0
0
0
0
0
42.7656
20.1623
4.49148
41.0817
11.3077
4.60088
63.9223
0
2.65174e-13
5.07849
0
0
0
42.4967
14.9714
0.657949
16.7296
16.4512
14.9077
34.2114
16.0027
1.01472e-13
0
7.16544
2.60439
0
0
0
92.2
79.378
32.6388
46.1076
38.5454
34.8471
12.1373
39.4808
19.378
0
5.47523
5.3358
0
0
0
0
0
0
110.058
195.699
94.0839
86.1396
65.3825
61.6295
0
0
0
3.95371e-13
0
0
0
0
0
0
0
0
0
0
24.5849
58.748
118.358
49.0578
30.4312
0
0
0
0
0
0
0
0
0
0
0
0
0
0
53.2332
79.4108
4.32174
6.98363
6.68428
28.8279
0
23.0551
0
0
0
0
0
0
0
0
0
37.0831
16.695
0
28.526
5.54844
4.60976
25.4526
0
0
0
0
3.2563
0
15.637
5.68656
0
12.5924
13.0636
15.2622
39.9446
1.37468
8.91766
0
6.03785e-14
4.4406
0
0
0
39.8694
86.6469
24.7551
20.5889
17.2407
46.3065
27.1768
23.0846
19.1274
0
5.40651
0
0
0
0
0
0
0
64.5774
6.47717
52.8466
68.7389
66.5684
17.8879
0
0
0
0
0
66.108
78.5122
74.9409
48.3445
36.8249
0
0
0
0
0
54.5512
70.8157
3.74871
18.6668
0
39.7017
1.14476
14.8335
0
0
0
0
0
0
0
0
0
8.31973
0
4.64648
5.67954e-14
11.0904
4.65731
0
0
0
0
0
0
0
9.32451
22.5826
28.9777
13.9068
21.928
0
2.72841
4.00322
4.32807
0
0
9.04995
0
0
0
16.1109
23.165
9.04899
25.716
12.8167
23.3807
16.6819
13.5948
21.7093
0
0
0
0
0
5.24973
0
0
0
33.1157
9.67341
38.2924
26.7482
18.8415
32.3046
0
0
0
0
0
58.8799
32.4874
30.1839
39.3391
43.8592
0
0
0
0
0
45.7497
20.9116
0
11.3687
3.64102
9.95489
8.11792
18.6257
0
0
0
0
0
0
0
0
0
25.388
8.40377
4.40827e-13
16.3653
23.1065
9.95548
16.7991
0
0
0
0
0
0
20.2684
28.85
0
12.4767
8.15552
14.7324
15.5637
0
0
0
0
0
0
0
0
11.1983
6.93605
12.1793
8.64394
6.65416
18.3503
13.5011
13.338
8.77979
0
0
0
0
0
0
0
0
0
22.1495
25.1178
38.3266
16.8406
53.2307
23.6555
0
0
6.59185
0
0
51.7829
31.3023
48.1797
39.4288
40.8321
0
0
0
0
0
32.9098
84.8168
1.5199e-13
18.1303
7.18379
42.4673
14.6946
18.4395
10.3885
0
0
0
0
0
0
0
0
8.45625
15.5029
1.81123e-13
33.5247
4.02435
0
0
0
0
0
0
0
0
2.76635
3.03302
0
11.3645
12.5142
0
6.66435
4.16978
0
0
0
4.72281
6.11367
0
0
34.203
6.14596
10.3166
6.2204
2.85212
9.09782
4.14838
12.4962
15.7008
0
1.92175
0
0
0
3.35275
0
0
0
21.4307
47.6973
22.7096
23.7812
15.1707
21.6474
0
0
0
0
0
33.8793
67.9857
21.627
34.2447
49.3344
0
0
0
0
0
58.9113
57.2213
6.26759
20.5268
12.0322
25.1184
0
37.266
15.3223
0
0
0
0
0
0
0
0
30.9927
5.09793
0.249947
0
5.48418
0
0
0
0
0
0
0
0
8.17341
0
0
18.0906
4.25004
0
0
0
4.77671
0
0
0.8487
0
0
0
12.9183
0.621009
13.1989
3.84945
13.8509
10.2944
12.4778
12.5487
6.22923
0
0
0
0
0
0
0
0
0
31.3029
9.08296
15.0447
18.9048
0
5.99147
0
0
0
0
0
44.5976
72.819
21.3597
14.3561
36.3332
0
0
0
0
0
89.3193
58.9207
16.8052
23.3852
24.5749
56.6173
7.58939
15.3925
18.6311
0
0
0
0
0
0
0
0
8.39373
17.5935
0
0
3.03305
0
0
0
0
0
0
0
0
7.41038
4.43721
0
0.614321
4.85477
0
5.3899
0.319895
3.87791
0
0
0
0
0
0
9.42373
3.76667
10.7022
4.50767
6.89401
6.47438
16.4155
7.47604
6.21925
0
0
0
0
0
0
0
0
0.380137
8.6216
9.17274
6.51498
9.21458
25.275
16.501
0
0
5.65232
0
0
31.6033
45.5682
31.6702
13.6008
33.706
0
0
0
0
0
39.4299
56.8252
8.4839
54.2019
6.1108
59.1198
17.5798
38.3485
13.9163
0
0
0
0
0
0
0
0
19.4824
11.8301
0
0
5.32926
0
0
0
0
0
0
0
0
0
0.299582
0
0
0
0
9.16155
0
0
0
0
0
0
0
0
3.81174
13.7435
11.5199
11.5134
5.06287
9.6985
4.28774
6.64607
0.875818
0
0
0
0
0
0
0
0
0
28.9183
39.0743
20.8888
12.3427
7.02554
14.0913
0
0
0
0
0
28.3047
36.0656
13.3183
12.3916
32.8595
0
0
0
0
0
43.1504
38.5482
10.3539
57.1972
6.43045
42.2461
10.9264
80.7402
21.3761
0
0
0
0
0
0
0
0
7.33246
0.236565
0
0
5.26592
0
0
0
0
0
0
0
0
0
0
0
0
0
0
0
0
0
0
0
0
0
0
0
21.0196
19.9037
0
15.0361
1.38247
8.35887
2.8043
2.37412
5.88879
0
0
0
0
0
0
0
0
0
12.8652
38.5282
10.8199
17.5188
3.68892
11.6609
0
0
0
0
0
25.6766
16.3412
22.6335
21.317
19.5111
0
0
0
0
0
16.8463
10.7571
10.2133
53.7885
8.5781
26.2839
0.138572
12.2402
3.6222
0
0
0
0
0
0
0
0
0
8.42155
0
0
0
0
0
0
0
0
0
0
0
0
0
0
0
0
0
0
0
0
0
0
0
0
0
0
3.63418
0
2.43758
11.7261
16.4593
0
0
12.6812
2.77882
0
0
0
0
0
0
0
0
0
11.0078
0.689328
6.4429
0
8.32929
3.40406
0
0
0
0
0
6.73474
7.23356e-14
4.33155
8.83781
22.2584
0
0
0
0
0
8.25542
9.69425
10.2152
8.87612
6.75658
7.3006
3.7742
3.07784
0
0
0
0
0
0
0
0
0
17.1048
0
0
0
0
0
0
0
0
0
0
0
0
0
0
0
0
0
0
0
0
0
0
0
0
0
0
0
0
1.42886
0
2.03063
4.36525
0
2.85653
4.48557
0
0
0
0
0
0
0
0
0
0
0
4.88455
19.6332
14.812
0
7.50289
0
0
0
0
0
15.8629
0
9.01073
9.96006
12.4171
0
0
0
0
0
0
0
0
0
6.9707
9.4952
0
5.72794
0
0
0
0
0
0
0
0
0
0
7.86184
0
0
0
0
0
0
0
0
0
0
0
0
0
0
0
0
0
0
0
0
0
0
0
0
0
0
12.5869
4.30217
0
2.64731
0
0
3.0162
5.33575
0
0
0
0
0
0
0
0
0
0
16.3633
0
14.8732
4.10877
9.3746
13.7789
0
0
0
0
0
4.57283
12.8673
5.29908
10.4981
2.47235
0
0
0
0
0
0
0
10.3695
0
3.20964
2.25495
0.0845287
13.0664
3.05798
0
0
0
0
0
0
0
0
0
0
0
0
0
0
0
0
0
0
0
0
0
0
0
0
0
0
0
0
0
0
0
0
0
0
0
0
5.90188
0
0
0
0
0
0
2.83793
0
0
0
0
0
0
0
0
0
0
7.67189
18.3677
15.5237
18.6714
18.1712
6.81392
0
0
0
0
0
2.36113
4.94568
10.7698
10.9724
0
0
0
0
0
0
0
6.21901
4.02545
1.8839
0
11.3203
4.29361
0
3.78202
0
0
0
0
0
0
0
0
0
0
0
0
0
0
0
0
0
0
0
0
0
0
0
0
0
0
0
0
0
0
0
0
0
0
0
0
0
2.73424
0
0
0
0
0
0
0
0
0
0
0
0
0
0
0
0
3.27877
0
2.11792
10.6541
8.67519
1.82122
0
0
0
0
0
0.168733
16.1692
0
3.09368
4.13385
0
0
0
0
0
13.0857
6.02873
3.46023
0
0
2.40165
0.950938
0
7.3786
0
0
0
0
0
0
0
0
0
0
0
0
0
0
0
0
0
0
0
0
0
0
0
0
0
0
0
0
0
0
0
0
0
0
0
0
11.525
0
0
6.13164
0
0
0
0
1.65933
0
0
0
0
0
0
0
0
0
7.23728
7.31544
9.14014
7.67043
10.1811
5.34402
0
0
0
0
0
2.34332
9.37997
11.8334
4.76665
7.64317
0
0
0
0
0
14.8647
0
2.44076
0
0
7.31928
0.113866
0
0
0
0
0
0
0
0
0
0
0
0
0
0
0
0
0
0
0
0
0
0
0
0
0
0
0
0
0
0
0
0
0
0
0
0
0
0
0
0
0
0
0.58827
0
0
0
0
0
0
0
0
0
0
0
0
0
0
17.3513
5.27325
3.68494
9.2435
5.25198
0
0
0
0
0
2.9176
4.18877
9.41599
2.59717
0
0
0
0
0
0
1.44555
11.3616
4.56778
0
0.564286
0
0
0
0
0
0
0
0
0
0
0
0
0
0
0
0
0
0
0
0
0
0
0
0
0
0
0
0
0
0
0
0
0
0
0
0
0
0
0
0
0
0
0
0
0
0
0
0
0
0
0
0
0
0
0
0
0
0
0
0
0
0
0
0
0
0
0
0
0
6.51117
4.16039
1.58776
6.21034
4.32308e-13
0
0
0
0
0
6.9259
6.41106
2.4662
0
0
0
0.511537
0
0
0
0
0
0
0
0
0
0
0
0
0
0
0
0
0
0
0
0
0
0
0
0
0
0
0
0
0
0
0
0
0
0
0
0
0
0
0
0
0
0
0
0
0
0
0
0
0
0
0
0
0
0
0
0
0
0
0
0
0
0
0
0
0
0
0
1.29035
4.00388
0
2.54715
12.7163
0
0
0
0
0
0
0
0.997841
0
0
1.52559e-14
2.90623
0
0
0
0
0
0
0
0
0
0
0
0
0
0
0
0
0
0
0
0
0
0
0
0
0
0
0
0
0
0
0
0
0
0
0
0
0
0
0
0
0
0
0
0
0
0
0
0
0
0
0
0
0
0
0
0
0
0
0
0
0
0
0
0
0
0
0
2.53088
3.5571
0
1.94599
3.90644
0
0
0
0
0
0
0
0
0
0
0.857163
0
4.32799
0
0
0
0
0
0
0
0
0
0
0
0
0
0
0
0
0
0
0
0
0
0
0
0
0
0
0
0
0
0
0
0
0
0
0
0
0
0
0
0
0
0
0
0
0
0
0
0
0
0
0
0
0
0
0
0
0
0
0
0
0
0
0
0
0
0
5.42275
0
0
0
0.273723
0
0
0
0
0
0
4.25147
0
1.51167
0
0
0
0
0
0
0
0
0
0
0
0
0
0
0
0
0
0
0
0
0
0
0
0
0
0
0
0
0
0
0
0
0
0
0
0
0
0
0
0
0
0
0
0
0
0
0
0
0
0
0
0
0
0
0
0
0
0
0
0
0
0
0
0
0
0
0
0
0
0
0
1.5208e-13
0
0
4.21349
0
0
0
0
0
1.4227
0
0
0
0
0
0
0
0
0
0
0
0
0
0
0
0
0
0
0
0
0
0
0
0
0
0
0
0
0
0
0
0
0
0
0
0
0
0
0
0
0
0
0
0
0
0
0
0
0
0
0
0
0
0
0
0
0
0
0
0
0
0
0
0
0
0
0
0
0
0
0
0
0
4.02161
7.05932
0
0
3.92181
0
0
0
0
0
0
7.85023
0
0
0
0
0
0
0
0
0
0
0
0
0
0
0
0
0
0
0
0
0
0
0
0
0
0
0
0
0
0
0
0
0
0
0
0
0
0
0
0
0
0
0
0
0
0
0
0
0
0
0
0
0
0
0
0
0
0
0
0
0
0
0
0
0
0
0
0
0
0
0
0
0
0
0
0
0
0
0
0
0
0
0
0
0
0
0
0
0
0
0
0
0
0
0
0
0
0
0
0
0
0
0
0
0
0
0
0
0
0
0
0
0
0
0
0
0
0
0
0
0
0
0
0
0
0
0
0
0
0
0
0
0
0
0
0
0
0
0
0
0
0
0
0
0
0
0
0
0
0
0
0
0
0
0
0
0
0
0
0
0
0
0
0
0
0
0
0
0
0
0
0
0
0
0
0
0
0
0
0
0
0
0
0
0
0
0
0
0
0
0
0
0
0
0
0
0
0
0
0
0
0
0
0
0
0
0
0
0
0
0
0
0
0
0
0
0
0
0
0
0
0
0
0
0
0
0
0
0
0
0
0
0
0
0
0
0
0
0
0
0
0
0
0
0
0
0
0
0
0
0
0
0
0
0
0
0
0
0
0
0
0
0
0
0
0
0
0
0
0
0
0
0
0
0
0
0
0
0
0
0
0
0
0
0
0
0
0
0
0
0
0
0
0
0
0
0
0
0
0
0
0
0
0
0
0
0
0
0
0
0
0
0
0
0
0
0
0
0
0
0
0
0
0
0
0
0
0
0
0
0
0
0
0
0
0
0
0
0
0
0
0
0
0
0
0
0
0
0
0
0
0
0
0
0
0
0
0
0
0
0
0
0
0
0
0
0
0
0
0
0
0
0
0
0
0
0
0
0
0
0
0
0
0
0
0
0
0
0
0
0
0
0
0
0
0
0
0
0
0
0
0
0
0
0
0
0
0
0
0
0
0
0
0
0
0
0
0
0
0
0
0
0
0
0
0
0
0
0
0
0
0
0
0
0
0
0
0
0
0
0
0
0
0
0
0
0
0
0
0
0
0
0
0
0
0
0
0
0
0
0
0
0
0
0
0
0
0
0
0
0
0
0
0
0
0
0
0
0
0
0
0
0
0
0
0
0
0
0
0
0
0
0
0
0
0
0
0
0
0
0
0
0
0
0
0
0
0
0
0
0
0
0
0
0
0
0
0
0
0
0
0
0
0
0
0
0
0
0
0
0
0
0
0
0
0
0
0
0
0
0
0
0
0
0
0
0
0
0
0
0
0
0
0
0
0
0
0
0
0
0
0
0
0
0
0
0
0
0
0
0
0
0
0
0
0
0
0
0
0
0
0
0
0
0
0
0
0
0
0
0
0
0
0
0
0
0
0
0
0
0
0
0
0
0
0
0
0
0
0
0
0
0
0
0
0
0
0
0
0
0
0
0
0
0
0
0
0
0
0
0
0
0
0
0
0
0
0
0
0
0
0
0
0
0
0
0
0
0
0
0
0
0
0
0
0
0
0
0
0
0
0
0
0
0
0
0
0
0
0
0
0
0
0
0
0
0
0
0
0
0
0
0
0
0
0
0
0
0
0
0
0
0
0
0
0
0
0
0
0
0
0
0
0
0
0
0
0
0
0
0
0
0
0
0
0
0
0
0
0
0
0
0
0
0
0
0
0
0
0
0
0
0
0
0
0
0
0
0
0
0
0
0
0
0
0
0
0
0
0
0
0
0
0
0
0
0
0
0
0
0
0
0
0
0
0
0
0
0
0
0
0
0
0
0
0
0
0
0
0
0
0
0
0
0
0
0
0
0
0
0
0
0
0
0
0
0
0
0
0
0
0
0
0
0
0
0
0
0
0
0
0
0
0
0
0
0
0
0
0
0
0
0
0
0
0
0
0
0
0
0
0
0
0
0
0
0
0
0
0
0
0
0
0
0
0
0
0
0
0
0
0
0
0
0
0
0
0
0
0
0
0
0
0
0
0
0
0
0
0
0
0
0
0
0
0
0
0
0
0
0
0
0
0
0
0
0
0
0
0
0
0
0
0
0
0
0
0
0
0
0
0
0
0
0
0
0
0
0
0
0
0
0
0
0
0
0
0
0
0
0
0
0
0
0
0
0
0
0
0
0
0
0
0
0
0
0
0
0
0
0
0
0
0
0
0
0
0
0
0
0
0
0
0
0
0
0
0
0
0
0
0
0
0
0
0
0
0
0
0
0
0
0
0
0
0
0
0
0
0
0
0
0
0
0
0
0
0
0
0
0
0
0
0
0
0
0
0
0
0
0
0
0
0
0
0
0
0
0
0
0
0
0
0
0
0
0
0
0
0
0
0
0
0
0
0
0
0
0
0
0
0
0
0
0
0
0
0
0
0
0
0
0
0
0
0
0
0
0
0
0
0
0
0
0
0
0
0
0
0
0
0
0
0
0
0
0
0
0
0
0
0
0
0
0
0
0
0
0
0
0
0
0
0
0
0
0
0
0
0
0
0
0
0
0
0
0
0
0
0
0
0
0
0
0
0
0
0
0
0
0
0
0
0
0
0
0
0
0
0
0
0
0
0
0
0
0
0
0
0
0
0
0
0
0
0
0
0
0
0
0
0
0
0
0
0
0
0
0
0
0
0
0
0
0
0
0
0
0
0
0
0
0
0
0
0
0
0
0
0
0
0
0
0
0
0
0
0
0
0
0
0
0
0
0
0
0
0
0
0
0
0
0
0
0
0
0
0
0
0
0
0
0
0
0
0
0
0
0
0
0
0
0
0
0
0
0
0
0
0
0
0
0
0
0
0
0
0
0
0
0
0
0
0
0
0
0
0
0
0
0
0
0
0
0
0
0
0
0
0
0
0
0
0
0
0
0
0
0
0
0
0
0
0
0
0
0
0
0
0
0
0
0
0
0
0
0
0
0
0
0
0
0
0
0
0
0
0
0
0
0
0
0
0
0
0
0
0
0
0
0
0
0
0
0
0
0
0
0
0
0
0
0
0
0
0
0
0
0
0
0
0
0
0
0
0
0
0
0
0
0
0
0
0
0
0
0
0
0
0
0
0
0
0
0
0
0
0
0
0
0
0
0
0
0
0
0
0
0
0
0
0
0
0
0
0
0
0
0
0
0
0
0
0
0
0
0
0
0
0
0
0
0
0
0
0
0
0
0
0
0
0
0
0
0
0
0
0
0
0
0
0
0
0
0
0
0
0
0
0
0
0
0
0
0
0
0
0
0
0
0
0
0
0
0
0
0
0
0
0
0
0
0
0
0
0
0
0
0
0
0
0
0
0
0
0
0
0
0
0
0
0
0
0
0
0
0
0
0
0
0
0
0
0
0
0
0
0
0
0
0
0
0
0
0
0
0
0
0
0
0
0
0
0
0
0
0
0
0
0
0
0
0
0
0
0
0
0
0
0
0
0
0
0
0
0
0
0
0
0
0
0
0
0
0
0
0
0
0
0
0
0
0
0
0
0
0
0
0
0
0
0
0
0
0
0
0
0
0
0
0
0
0
0
0
0
0
0
0
0
0
0
0
0
0
0
0
0
0
0
0
0
0
0
0
0
0
0
0
0
0
0
0
0
0
0
0
0
0
0
0
0
0
0
0
0
0
0
0
0
0
0
0
0
0
0
0
0
0
0
0
0
0
0
0
0
0
0
0
0
0
0
0
0
0
0
0
0
0
0
0
0
0
0
0
0
0
0
0
0
0
0
0
0
0
0
0
0
0
0
0
0
0
0
0
0
0
0
0
0
0
0
0
0
0
0
0
0
0
0
0
0
0
0
0
0
0
0
0
0
0
0
0
0
0
0
0
0
0
0
0
0
0
0
0
0
0
0
0
0
0
0
0
0
0
0
0
0
0
0
0
0
0
0
0
0
0
0
0
0
0
0
0
0
0
0
0
0
0
0
0
0
0
0
0
0
0
0
0
0
0
0
0
0
0
0
0
0
0
0
0
0
0
0
0
0
0
0
0
0
0
0
0
0
0
0
0
0
0
0
0
0
0
0
0
0
0
0
0
0
0
0
0
0
0
0
0
0
0
0
0
0
0
0
0
0
0
0
0
0
0
0
0
0
0
0
0
0
0
0
0
0
0
0
0
0
0
0
0
0
0
0
0
0
0
0
0
0
0
0
0
0
0
0
0
0
0
0
0
0
0
0
0
0
0
0
0
0
0
0
0
0
0
0
0
0
0
0
0
0
0
0
0
0
0
0
0
0
0
0
0
0
0
0
0
0
0
0
0
0
0
0
0
0
0
0
0
0
0
0
0
0
0
0
0
0
0
0
0
0
0
0
0
0
0
0
0
0
0
0
0
0
0
0
0
0
0
0
0
0
0
0
0
0
0
0
0
0
0
0
0
0
0
0
0
0
0
0
0
0
0
0
0
0
0
0
0
0
0
0
0
0
0
0
0
0
0
0
0
0
0
0
0
0
0
0
0
0
0
0
0
0
0
0
0
0
0
0
0
0
0
0
0
0
0
0
0
0
0
0
0
0
0
0
0
0
0
0
0
0
0
0
0
0
0
0
0
0
0
0
0
0
0
0
0
0
0
0
0
0
0
0
0
0
0
0
0
0
0
0
0
0
0
0
0
0
0
0
0
0
0
0
0
0
0
0
0
0
0
0
0
0
0
0
0
0
0
0
0
0
0
0
0
0
0
0
0
0
0
0
0
0
0
0
0
0
0
0
0
0
0
0
0
0
0
0
0
0
0
0
0
0
0
0
0
0
0
0
0
0
0
0
0
0
0
0
0
0
0
0
0
0
0
0
0
0
0
0
0
0
0
0
0
0
0
0
0
0
0
0
0
0
0
0
0
0
0
0
0
0
0
0
0
0
0
0
0
0
0
0
0
0
0
0
0
0
0
0
0
0
0
0
0
0
0
0
0
0
0
0
0
0
0
0
0
0
0
0
0
0
0
0
0
0
0
0
0
0
0
0
0
0
0
0
0
0
0
0
0
0
0
0
0
0
0
0
0
0
0
0
0
0
0
0
0
0
0
0
0
0
0
0
0
0
0
0
0
0
0
0
0
0
0
0
0
0
0
0
0
0
0
0
0
0
0
0
0
0
0
0
0
0
0
0
0
0
0
0
0
0
0
0
0
0
0
0
0
0
0
0
0
0
0
0
0
0
0
0
0
0
0
0
0
0
0
0
0
0
0
0
0
0
0
0
0
0
0
0
0
0
0
0
0
0
0
0
0
0
0
0
0
0
0
0
0
0
0
0
0
0
0
0
0
0
0
0
0
0
0
0
0
0
0
0
0
0
0
0
0
0
0
0
0
0
0
0
0
0
0
0
0
0
0
0
0
0
0
0
0
0
0
0
0
0
0
0
0
0
0
0
0
0
0
0
0
0
0
0
0
0
0
0
0
0
0
0
0
0
0
0
0
0
0
0
0
0
0
0
0
0
0
0
0
0
0
0
0
0
0
0
0
0
0
0
0
0
0
0
0
0
0
0
0
0
0
0
0
0
0
0
0
0
0
0
0
0
0
0
0
0
0
0
0
0
0
0
0
0
0
0
0
0
0
0
0
0
0
0
0
0
0
0
0
0
0
0
0
0
0
0
0
0
0
0
0
0
0
0
0
0
0
0
0
0
0
0
0
0
0
0
0
0
0
0
0
0
0
0
0
0
0
0
0
0
0
0
0
0
0
0
0
0
0
0
0
0
0
0
0
0
0
0
0
0
0
0
0
0
0
0
0
0
0
0
0
0
0
0
0
0
0
0
0
0
0
0
0
0
0
0
0
0
0
0
0
0
0
0
0
0
0
0
0
0
0
0
0
0
0
0
0
0
0
0
0
0
0
0
0
0
0
0
0
0
0
0
0
0
0
0
0
0
0
0
0
0
0
0
0
0
0
0
0
0
0
0
0
0
0
0
0
0
0
0
0
0
0
0
0
0
0
0
0
0
0
0
0
0
0
0
0
0
0
0
0
0
0
0
0
0
0
0
0
0
0
0
0
0
0
0
0
0
0
0
0
0
0
0
0
0
0
0
0
0
0
0
0
0
0
0
0
0
0
0
0
0
0
0
0
0
0
0
0
0
0
0
0
0
0
0
0
0
0
0
0
0
0
0
0
0
0
0
0
0
0
0
0
0
0
0
0
0
0
0
0
0
0
0
0
0
0
0
0
0
0
0
0
0
0
0
0
0
0
0
0
0
0
0
0
0
0
0
0
0
0
0
0
0
0
0
0
0
0
0
0
0
0
0
0
0
0
0
0
0
0
0
0
0
0
0
0
0
0
0
0
0
0
0
0
0
0
0
0
0
0
0
0
0
0
0
0
0
0
0
0
0
0
0
0
0
0
0
0
0
0
0
0
0
0
0
0
0
0
0
0
0
0
0
0
0
0
0
0
0
0
0
0
0
0
0
0
0
0
0
0
0
0
0
0
0
0
0
0
0
0
0
0
0
0
0
0
0
0
0
0
0
0
0
0
0
0
0
0
0
0
0
0
0
0
0
0
0
0
0
0
0
0
0
0
0
0
0
0
0
0
0
0
0
0
0
0
0
0
0
0
0
0
0
0
0
0
0
0
0
0
0
0
0
0
0
0
0
0
0
0
0
0
0
0
0
0
0
0
0
0
0
0
0
0
0
0
0
0
0
0
0
0
0
0
0
0
0
0
0
0
0
0
0
0
0
0
0
0
0
0
0
0
0
0
0
0
0
0
0
0
0
0
0
0
0
0
0
0
0
0
0
0
0
0
0
0
0
0
0
0
0
0
0
0
0
0
0
0
0
0
0
0
0
0
0
0
0
0
0
0
0
0
0
0
0
0
0
0
0
0
0
0
0
0
0
0
0
0
0
0
0
0
0
0
0
0
0
0
0
0
0
0
0
0
0
0
0
0
0
0
0
0
0
0
0
0
0
0
0
0
0
0
0
0
0
0
0
0
0
0
0
0
0
0
0
0
0
0
0
0
0
0
0
0
0
0
0
0
0
0
0
0
0
0
0
0
0
0
0
0
0
0
0
0
0
0
0
0
0
0
0
0
0
0
0
0
0
0
0
0
0
0
0
0
0
0
0
0
0
0
0
0
0
0
0
0
0
0
0
0
0
0
0
0
0
0
0
0
0
0
0
0
0
0
0
0
0
0
0
0
0
0
0
0
0
0
0
0
0
0
0
0
0
0
0
0
0
0
0
0
0
0
0
0
0
0
0
0
0
0
0
0
0
0
0
0
0
0
0
0
0
0
0
0
0
0
0
0
0
0
0
0
0
0
0
0
0
0
0
0
0
0
0
0
0
0
0
0
0
0
0
0
0
0
0
0
0
0
0
0
0
0
0
0
0
0
0
0
0
0
0
0
0
0
0
0
0
0
0
0
0
0
0
0
0
0
0
0
0
0
0
0
0
0
0
0
0
0
0
0
0
0
0
0
0
0
0
0
0
0
0
0
0
0
0
0
0
0
0
0
0
0
0
0
0
0
0
0
0
0
0
0
0
0
0
0
0
0
0
0
0
0
0
0
0
0
0
0
0
0
0
0
0
0
0
0
0
0
0
0
0
0
0
0
0
0
0
0
0
0
0
0
0
0
0
0
0
0
0
0
0
0
0
0
0
0
0
0
0
0
0
0
0
0
0
0
0
0
0
0
0
0
0
0
0
0
0
0
0
0
0
0
0
0
0
0
0
0
0
0
0
0
0
0
0
0
0
0
0
0
0
0
0
0
0
0
0
0
0
0
0
0
0
0
0
0
0
0
0
0
0
0
0
0
0
0
0
0
0
0
0
0
0
0
0
0
0
0
0
0
0
0
0
0
0
0
0
0
0
0
0
0
0
0
0
0
0
0
0
0
0
0
0
0
0
0
0
0
0
0
0
0
0
0
0
0
0
0
0
0
0
0
0
0
0
0
0
0
0
0
0
0
0
0
0
0
0
0
0
0
0
0
0
0
0
0
0
0
0
0
0
0
0
0
0
0
0
0
0
0
0
0
0
0
0
0
0
0
0
0
0
0
0
0
0
0
0
0
0
0
0
0
0
0
0
0
0
0
0
0
0
0
0
0
0
0
0
0
0
0
0
0
0
0
0
0
0
0
0
0
0
0
0
0
0
0
0
0
0
0
0
0
0
0
0
0
0
0
0
0
0
0
0
0
0
0
0
0
0
0
0
0
0
0
0
0
0
0
0
0
0
0
0
0
0
0
0
0
0
0
0
0
0
0
0
0
0
0
0
0
0
0
0
0
0
0
0
0
0
0
0
0
0
0
0
0
0
0
0
0
0
0
0
0
0
0
0
0
0
0
0
0
0
0
0
0
0
0
0
0
0
0
0
0
0
0
0
0
0
0
0
0
0
0
0
0
0
0
0
0
0
0
0
0
0
0
0
0
0
0
0
0
0
0
0
0
0
0
0
0
0
0
0
0
0
0
0
0
0
0
0
0
0
0
0
0
0
0
0
0
0
0
0
0
0
0
0
0
0
0
0
0
0
0
0
0
0
0
0
0
0
0
0
0
0
0
0
0
0
0
0
0
0
0
0
0
0
0
0
0
0
0
0
0
0
0
0
0
0
0
0
0
0
0
0
0
0
0
0
0
0
0
0
0
0
0
0
0
0
0
0
0
0
0
0
0
0
0
0
0
0
0
0
0
0
0
0
0
0
0
0
0
0
0
0
0
0
0
0
0
0
0
0
0
0
0
0
0
0
0
0
0
0
0
0
0
0
0
0
0
0
0
0
0
0
0
0
0
0
0
0
0
0
0
0
0
0
0
0
0
0
0
0
0
0
0
0
0
0
0
0
0
0
0
0
0
0
0
0
0
0
3762.32
6123.08
666.603
5290.37
2122.8
5012.42
893.314
5503.29
1946.13
5679.86
1901.46
6171.54
1361.45
6744.56
5564.92
1053.77
3543.81
3329.95
4946.34
658.988
3614.01
530.656
1817.04
621.595
2576.54
702.043
1095.87
615.351
5516.53
1289.39
4618.42
1354.61
7175.08
949.14
5954.4
4751.73
5366.59
4773.12
9964.1
10954
9435.61
11067
1149.77
1353.63
380.207
1495.51
2336.07
2663.79
3067.45
778.008
742.592
790.235
1055.03
647.084
1018.04
394.563
3185.82
714.378
1988.37
1538.58
3947.81
2142.24
3107.78
4063.65
4091.86
4534.52
8380.84
10228.1
7592.35
10418.8
2954.92
2671.47
1102.41
3354.72
1058.28
1688.53
2928.43
1843.94
3056.81
3259.12
2235.45
2352.63
4774.05
3290.23
719.961
2960.24
139.599
2029.53
351.8
1355.94
96.7816
946.136
443.305
1283.8
172.526
315.079
181.876
388.354
4101.52
785.728
5784.51
4187.66
4136.11
1105.66
5207.28
4055.22
5553.8
3447.39
1776.39
5028.79
6294.31
2813.41
669.142
647.445
132.846
3746.26
4364.53
702.078
337.989
618.907
164.772
312.778
3807.58
7349.83
674.892
5479.12
5241.04
1205.53
5513
1574.61
5937.6
712.513
4900.86
6376.21
4680.32
4384.17
918.208
6481.29
3375.07
9300.12
9127.23
3256.7
5755.52
1306.84
5800.33
1202.92
4901.15
10119.1
9398.67
7233.69
5778.82
3132.46
5182.41
767.725
4766.29
901.326
4190.85
1554.08
2905.91
4560.32
1595.63
6632.37
3172.3
10764
6137.37
3274.07
3336.17
6639.85
571.791
620.892
977.439
1248.1
113.992
1777.27
393.517
193.902
245.856
323.082
42.2624
198.903
184.701
236.866
786.004
1227.96
297.79
593.747
1301.75
1166.04
2393.59
829.757
3003.32
599.243
488.267
915.426
191.341
27.1037
137.153
826.347
56.6089
82.2802
50.2776
223.443
17.7595
109.989
313.125
137.507
62.404
15.3578
190.388
72.193
752.985
923.837
1360.43
165.262
379.248
98.087
43.1294
260.694
112.338
18.2952
29.072
47.5007
93.7441
47.0519
2.18139
26.9935
38.0278
27.8504
6.47416
49.1886
79.752
5.51666
115.311
50.5901
7.37081
6.75782
140.596
32.0992
181.515
71.2508
40.3961
121.646
216.617
123.841
86.7367
59.4534
107.209
281.989
74.5286
64.4251
132.098
117.731
1.92331
101.633
178.353
13.1099
5.74101
27.4336
22.1094
0
65.2167
6.90451
0
0
11.8511
6.32095
94.993
63.9501
98.4146
17.6687
22.9509
29.4682
46.0251
88.7375
155.7
57.0583
68.5898
25.4234
104.454
10.9283
5.65711
5.47496
11.0565
8.27868
5.62473
10.5044
6.22088e-13
0
0
0
0
0
6.10477
0
30.8225
39.8099
6.55971
74.0792
40.8498
30.1756
18.5871
6.9042
43.4841
10.0284
16.226
5.92856
15.3144
0
11.1017
7.56819
4.32005
3.43886
10.5601
6.60639
5.68226
0
0
0
0
0
0
0
17.6798
14.9521
17.0209
50.0241
5.17188
16.9784
14.8496
3.18905
28.3467
19.9761
23.9824
2.18924
34.3292
5.76199
0
10.8542
5.48104
12.7329
9.49207
10.5602
0
0
5.17095
0
5.99533
0
5.3338
0
12.376
13.1136
26.8587
16.0444
20.4239
47.8867
22.3789
4.22062
49.2454
4.01905
18.0306
15.1371
38.2668
0
6.70821
1.75015
11.3394
8.65585