/*--------------------------------*- C++ -*----------------------------------*\
| =========                 |                                                 |
| \\      /  F ield         | OpenFOAM: The Open Source CFD Toolbox           |
|  \\    /   O peration     | Version:  5.x                                   |
|   \\  /    A nd           | Web:      www.OpenFOAM.org                      |
|    \\/     M anipulation  |                                                 |
\*---------------------------------------------------------------------------*/
FoamFile
{
    version     2.0;
    format      ascii;
    class       volScalarField;
    location    "4";
    object      p;
}
// * * * * * * * * * * * * * * * * * * * * * * * * * * * * * * * * * * * * * //

dimensions      [0 2 -2 0 0 0 0];

internalField   nonuniform List<scalar> 
10571
(
241.691
300.865
243.308
211.291
256.229
234.717
207.025
204.819
259.394
276.292
204.817
213.811
206.88
206.553
239.874
265.207
217.715
217.512
209.726
216.386
251.692
216.637
225.939
213.517
165.196
163.415
158.76
153.865
144.228
177.629
172.254
153.33
112.965
176.629
191.962
189.252
187.593
154.833
91.5782
132.394
198.518
179.71
139.481
103.626
73.3209
196.828
177.381
128.27
138.772
131.031
140.043
154.367
138.969
118.963
142.545
126.307
64.7939
65.4084
173.867
149.488
152.63
114.26
57.6869
61.5032
156.484
146.067
102.606
75.2217
68.1746
160.099
111.722
64.2135
70.5259
82.4903
91.852
112.361
56.4481
84.8154
90.9602
60.8887
50.3792
54.7699
111.578
116.036
71.2234
54.1114
52.4868
61.0341
109.572
59.6455
51.9094
49.4442
60.0055
57.1818
51.6552
53.3294
48.9241
54.319
60.0471
47.391
49.4778
55.4219
54.0087
44.8667
49.7106
51.1449
50.4899
50.6275
48.608
45.7393
50.4973
54.2765
50.3806
47.6892
45.231
48.7411
53.0986
49.0267
47.4062
48.8292
48.329
50.2208
48.5023
48.9511
48.8952
50.1078
46.6852
47.7178
49.0177
49.1924
48.5133
49.4167
48.886
48.8381
48.3088
49.2858
49.1092
48.9095
48.9471
48.9787
47.9558
48.0255
48.0658
48.7352
47.9353
48.3471
48.0838
48.4689
47.8605
47.9786
48.5155
48.2296
48.2179
47.9062
48.2483
48.4967
48.4085
48.3421
48.2506
48.4605
47.8017
48.3259
48.2458
48.3258
47.9706
47.2084
46.9757
47.5974
48.1065
48.128
47.5095
47.7206
47.8398
47.8477
47.9123
47.7072
47.7597
48.142
47.7311
47.5459
47.4113
47.8748
48.4379
48.4397
47.7176
47.6334
47.5213
47.2074
47.7986
48.4857
48.3722
47.2457
46.8982
46.7479
47.2413
49.726
48.0931
47.3215
47.4431
47.3792
47.5678
47.5184
47.4335
47.5158
47.8095
47.5977
47.1568
47.1753
47.6916
48.1821
48.4993
47.3091
47.2447
47.2424
47.023
47.6253
48.0483
48.482
47.2058
47.1806
46.9862
47.2763
48.1531
47.222
47.2889
47.254
47.3514
47.2903
47.2365
47.3319
47.5743
47.247
47.1798
47.0948
47.5138
47.2667
47.0994
47.1356
47.2546
47.066
47.4969
47.3154
47.1944
47.1989
47.1385
47.3766
46.5645
47.1922
47.2612
47.2595
47.2032
47.1319
47.1246
47.2069
47.4149
47.0214
47.2032
47.0947
47.3144
47.1369
47.0204
47.0358
47.2465
47.127
47.3266
46.8419
47.1376
47.1638
47.1973
47.3509
47.2663
47.1994
47.2786
47.2954
47.1269
47.087
47.0437
47.1397
47.3487
47.0267
47.218
47.1346
47.218
47.2047
47.038
47.0652
47.2594
47.1628
47.2097
47.0902
47.1973
47.2082
47.247
47.3632
47.3319
47.1957
47.3097
47.3245
47.1464
47.0993
47.0251
47.1305
47.3347
47.1076
47.2331
47.2069
47.2354
47.2264
47.0953
47.1432
47.2801
47.2092
47.2084
47.2348
47.2313
47.2945
47.3228
47.3739
47.4016
47.2778
47.3843
47.4164
47.2395
47.1675
47.0798
47.1832
47.3629
47.2235
47.2703
47.2732
47.3064
47.2896
47.1784
47.195
47.3161
47.2703
47.2991
47.3295
47.2831
47.3875
47.4415
47.4401
47.5629
47.3621
47.452
47.551
47.3481
47.2607
47.2235
47.2731
47.401
47.323
47.337
47.3356
47.3822
47.3638
47.2767
47.2878
47.3872
47.3406
47.4233
47.4219
47.3358
47.4688
47.5237
47.5374
47.6007
47.4552
47.5721
47.6968
47.4512
47.3521
47.323
47.3997
47.4461
47.3643
47.4174
47.4019
47.4573
47.4417
47.3673
47.3832
47.4722
47.4148
47.5426
47.521
47.3927
47.5382
47.5835
47.5986
47.6159
47.55
47.6714
47.8009
47.5072
47.4249
47.3566
47.4694
47.4991
47.3746
47.4999
47.4694
47.5345
47.528
47.4525
47.4337
47.5435
47.4909
47.643
47.618
47.4456
47.5913
47.6535
47.6709
47.6873
47.637
47.7718
47.8345
47.5445
47.4955
47.488
47.4981
47.5151
47.3286
47.5692
47.5452
47.6118
47.6168
47.5136
47.5211
47.607
47.5805
47.7208
47.716
47.5083
47.6422
47.7172
47.7392
47.7794
47.7241
47.8313
47.8326
47.5858
47.5674
47.6134
47.5232
47.5815
47.3275
47.6272
47.6195
47.6793
47.6858
47.6097
47.5657
47.6719
47.6725
47.7749
47.7712
47.5949
47.6947
47.7364
47.7746
47.8246
47.7577
47.8267
47.8305
47.6528
47.6461
47.6505
47.6059
47.6503
47.5359
47.6699
47.684
47.7314
47.7403
47.6964
47.6453
47.7372
47.7553
47.8094
47.7882
47.6581
47.745
47.7685
47.8046
47.8239
47.7716
47.8082
47.8446
47.7221
47.7173
47.6929
47.672
47.7327
47.812
47.7252
47.7426
47.7779
47.7823
47.7646
47.7384
47.802
47.8289
47.8542
47.8014
47.7137
47.7927
47.8456
47.8465
47.8773
47.7952
47.8209
47.8856
47.7958
47.7814
47.7304
47.7512
47.8196
47.9572
47.7872
47.8183
47.8136
47.8108
47.8088
47.8658
47.861
47.8846
47.8954
47.8355
47.7842
47.8482
47.9078
47.8934
47.9253
47.8458
47.8907
47.9453
47.8337
47.825
47.7854
47.8386
47.8331
47.9598
47.8386
47.8826
47.8264
47.8365
47.929
47.8996
47.898
47.9246
47.9135
47.867
47.8584
47.8962
47.9416
47.9281
47.9641
47.9005
47.9431
48.0029
47.8632
47.8743
47.832
47.8819
47.8209
47.8992
47.8708
47.8861
47.8383
47.8672
47.9441
47.9004
47.9231
47.9237
47.9187
47.8872
47.9423
47.9199
47.9745
47.974
47.9585
47.9736
48.0182
48.0483
47.8831
47.9135
47.88
47.8972
47.8229
47.8925
47.8717
47.8822
47.8593
47.8984
47.9255
47.8916
47.94
47.911
47.9265
47.9027
47.9524
47.9307
47.9768
48.0132
47.9516
48.0147
48.0226
48.0703
47.8999
47.941
47.905
47.8984
47.8496
47.9017
47.8781
47.8767
47.8881
47.9308
47.9164
47.8883
47.944
47.9031
47.9175
47.926
47.9511
47.9429
47.9203
47.9562
47.9466
47.9893
47.9572
48.0449
47.9157
47.9531
47.9155
47.9025
47.8871
47.9152
47.8929
47.8872
47.9207
47.9627
47.9205
47.9116
47.9521
47.9093
47.8843
47.9873
47.9374
47.9553
47.8624
47.8967
47.9217
47.9482
47.8752
47.9279
47.9399
47.9572
47.926
47.9131
47.9258
47.9211
47.906
47.9083
47.939
47.978
47.9288
47.9214
47.9709
47.9311
47.8796
47.9953
47.9433
47.9563
47.8553
47.8092
47.9002
47.9349
47.8767
47.8567
47.9591
47.9593
47.9415
47.9261
47.958
47.9254
47.9259
47.927
47.9428
47.9827
47.9404
47.931
47.9794
47.9527
47.8913
47.9595
47.9486
47.9531
47.8823
47.7616
47.8675
47.9455
47.9062
47.8386
47.9778
47.967
47.954
47.948
47.9807
47.9319
47.9466
47.9489
47.9517
47.9807
47.9621
47.9477
47.9964
47.9761
47.9107
47.9226
47.9811
48.0046
47.9864
47.8766
47.9144
47.9705
47.9346
47.92
47.999
47.9807
47.9711
47.9716
47.9965
47.9412
47.9707
47.9755
47.9757
47.9957
47.9941
47.974
48.0153
47.9927
47.9427
47.9429
48.0133
48.0621
48.1121
48.1211
48.0283
47.9958
47.984
48.0231
48.0191
47.9977
47.9927
47.9931
48.0119
47.9551
47.9903
48.0007
48.0088
48.0159
48.03
48.0027
48.0033
48.0092
47.9764
47.9885
48.0457
48.0581
48.1354
48.1092
48.0348
48.0205
48.0172
48.0357
48.0428
48.0136
48.0138
48.009
48.0304
47.9669
47.9979
48.012
48.0308
48.026
48.0549
48.0238
47.9812
48.0482
47.9806
48.0026
48.0502
48.0302
48.0558
47.9816
47.9517
48.0135
48.0052
48.0001
48.0654
48.0264
48.0263
48.025
48.0494
47.9785
47.9979
47.9986
48.0295
48.0363
48.0692
48.0296
47.9681
48.0724
47.9926
48.0183
48.055
47.9997
47.9873
47.9428
47.9698
47.9906
47.971
47.9798
48.091
48.0363
48.0188
48.0428
48.0654
47.9916
47.9911
47.9721
48.0311
48.0402
48.0794
48.0564
47.9638
48.0505
48.0048
48.0213
48.0569
47.9717
47.9458
47.9346
47.9927
47.967
47.9551
47.9814
48.1112
48.0418
48.0047
48.0615
48.0794
47.9872
47.9835
47.9669
48.0386
48.0377
48.0814
48.0776
47.9795
48.0169
48.0273
48.0271
48.0618
47.9602
47.9324
47.9581
48.0123
47.9645
47.9745
48.0144
48.1188
48.0375
48.0007
48.0664
48.0851
47.9616
47.982
47.981
48.0442
48.0437
48.0704
48.0238
48.0007
47.9862
48.026
48.0405
48.0582
47.9575
47.9615
48.003
48.0284
47.9796
48.0139
48.042
48.1005
48.0275
48.0051
48.0617
48.0879
47.9403
47.9898
47.9926
48.053
48.0511
48.0579
48.0052
48.0345
47.9678
48.0096
48.0479
48.0488
47.9744
48.0033
48.0086
48.0421
48.0183
48.0723
48.0534
48.0817
48.0257
48.0156
48.0514
48.0755
47.9267
47.9982
48.0093
48.0552
48.0568
48.0466
48.0014
48.0721
47.968
48.0009
48.0506
48.0369
47.9821
48.0092
48.0275
48.078
48.0294
48.0686
48.0551
48.0775
48.0342
48.0247
48.0426
48.0833
47.9137
48.0003
48.0096
48.0473
48.0534
48.037
48.0043
48.0786
47.9754
48.01
48.0354
48.0274
47.9757
47.9978
48.0272
48.103
48.0373
48.0503
48.0424
48.087
48.0462
48.0378
48.0496
48.0956
47.9034
47.9991
48.004
48.0365
48.0473
48.0291
48.007
48.0508
47.9798
48.0004
48.0281
48.0155
47.9727
47.9886
48.0069
48.0483
48.0646
48.046
48.0234
48.0801
48.0576
48.049
48.0552
48.0721
47.8993
47.9997
48.0202
48.0506
48.0546
48.0183
48.0052
48.0298
47.9853
48.003
48.0402
47.9996
47.9429
47.9799
47.995
48.023
48.0722
48.0337
48.0073
48.0597
48.0634
48.0499
48.0468
48.0628
47.9003
48.0026
48.0217
48.0491
48.0683
48.0068
48.0018
48.0098
48.0026
48.0324
48.0836
47.9927
47.9666
47.9753
47.9916
48.0174
48.0327
48.0112
47.9957
48.0385
48.0598
48.0413
48.0227
48.0397
47.9024
48.0002
48.0044
48.0332
48.0561
48.0062
48.0012
47.9991
48.0147
48.0343
48.0785
47.9942
47.9846
47.9662
47.9847
48.0094
47.9835
47.9952
47.9831
48.0105
48.053
48.0298
48.0095
48.0086
47.9053
47.9922
47.9933
48.0087
48.0399
48.0119
47.9973
48.0022
48.0329
48.0155
48.0473
47.9944
47.9862
47.9516
47.9674
47.9919
47.9771
47.987
47.9649
47.9907
48.0468
48.0233
47.9891
47.9905
47.9037
47.9865
47.9945
47.9819
48.0206
48.0189
47.9895
48.0319
48.026
47.9958
48.017
47.9929
47.981
47.922
47.949
47.9656
48.0119
47.9588
47.9319
47.9884
48.0397
48.0177
47.9738
47.9737
47.9008
47.9579
47.9944
47.9594
47.9994
48.0245
47.9804
48.0126
47.9842
47.9668
47.9867
47.9883
47.9434
47.8668
47.9085
47.9338
48.0117
47.9073
47.881
48.0009
48.0371
48.0133
47.98
47.9609
47.9051
47.9444
47.9746
47.9465
47.9781
48.0126
47.9604
47.9346
47.9342
47.923
47.9574
47.9661
47.8769
47.7844
47.8422
47.8986
47.9329
47.8233
47.8153
48.005
48.0395
48.0203
47.9778
47.9479
47.9282
48.0142
47.9435
47.9339
47.9567
48.0148
47.94
47.845
47.8902
47.876
47.9344
47.9364
47.7336
47.6904
47.7866
47.872
47.8485
47.7405
47.7577
48.0049
48.0449
48.0378
47.9648
47.9286
47.9568
48.0483
47.9111
47.9183
47.9121
48.0207
47.9247
47.8466
47.8682
47.8417
47.9239
47.9637
47.5974
47.6337
47.7574
47.8654
47.7877
47.7044
47.74
48.01
48.0537
48.0545
47.9629
47.9086
47.9826
48.0106
47.8939
47.8766
47.8333
48.0152
47.9197
47.8404
47.8634
47.8325
47.9121
48.0077
47.6262
47.7084
47.7853
47.8838
47.7967
47.746
47.7804
48.0182
48.0755
48.068
47.9605
47.8912
48.0071
47.9825
47.8805
47.8251
47.787
48.023
47.9286
47.8434
47.9017
47.8479
47.9147
47.9869
47.7671
47.8566
47.8689
47.9209
47.8857
47.8347
47.8841
48.031
48.105
48.0757
47.9587
47.8827
48.0498
47.9823
47.8715
47.8154
47.819
48.0542
47.9671
47.8726
47.9716
47.8625
47.9313
47.9258
47.951
48.0058
47.9544
47.9625
48.0288
47.9846
48.0189
48.0477
48.1801
48.1031
47.9606
47.8939
48.1159
47.9928
47.8709
47.8317
47.8699
48.1035
48.0438
47.9784
48.0122
47.8841
47.9469
48.0015
48.1653
48.1324
48.0318
47.9882
48.1992
48.2189
48.1354
48.0784
48.28
48.1615
47.9766
47.9349
48.1838
48.0464
47.8568
47.8393
47.9101
48.1697
48.1526
48.1097
48.0209
47.8897
47.9464
48.1881
48.3164
48.1607
48.0573
47.9774
48.4088
48.2791
48.1709
48.1398
48.313
48.1917
48.0506
47.9901
48.2742
48.1152
47.8472
47.8257
47.9199
48.2386
48.2304
48.1387
48.0073
47.8614
47.9142
48.3094
48.2903
48.114
48.0335
47.9348
48.5301
48.2419
48.1272
48.244
48.3405
48.2467
48.1529
48.0629
48.3507
48.1044
47.8622
47.8063
47.9184
48.3075
48.2829
48.0892
47.9421
47.7937
47.8442
48.2574
48.1931
48.04
47.9648
47.8618
48.3439
48.1511
48.0514
48.4632
48.4522
48.4013
48.2679
48.1291
48.5003
48.1626
47.9222
47.7501
47.8344
48.3839
48.3449
48.0247
47.8568
47.6667
47.6919
48.127
48.0901
47.9602
47.878
47.7455
48.1547
48.0693
47.9681
48.5739
48.6182
48.5578
48.3894
48.1676
48.6379
48.2692
47.9584
47.5772
47.5728
48.4773
48.4269
47.9742
47.7735
47.4452
47.406
48.0362
47.9968
47.9141
47.7474
47.5617
48.0025
48.0098
47.8872
48.6504
48.8381
48.7249
48.4839
48.156
48.8075
48.3947
47.9356
47.2288
47.1457
48.6142
48.6235
48.0072
47.683
47.0969
46.8708
48.024
47.9708
47.8908
47.572
47.2615
47.9147
48.0004
47.8233
48.8134
49.069
48.9459
48.6646
48.2101
48.9938
48.5768
47.8566
46.6171
46.269
48.8576
48.8085
48.1723
47.5527
46.5272
45.5152
48.2791
48.0474
47.901
47.3362
46.7198
48.0055
48.0196
47.7806
49.0568
49.3489
49.2387
48.9566
48.2688
49.2054
48.7429
47.7581
45.7357
44.1512
49.1695
48.885
48.3263
47.378
45.7323
42.0201
48.574
48.2236
47.9473
47.0463
45.6378
48.2616
48.0679
47.7765
49.4554
49.6717
49.7245
49.3072
48.2392
49.3828
49.0587
47.6684
44.6309
37.7438
49.2323
48.9752
48.4397
47.1881
44.9249
37.1013
-26.4273
48.8357
48.4432
48.01
46.6774
43.2279
48.5418
48.1613
47.818
49.8083
49.9488
49.9134
49.3789
48.0484
49.5316
49.3935
47.5649
43.7759
30.6952
0.651144
49.2287
49.0205
48.535
47.3682
44.5991
35.9764
5.88513
49.2136
48.6776
48.1586
46.326
39.3251
48.7495
48.3166
47.9936
49.5283
50.1491
49.9327
49.1452
47.5243
49.9242
49.4592
47.4586
43.7475
31.6968
6.98781
49.657
49.508
48.7329
47.6236
45.32
35.5881
10.9922
49.3541
48.794
48.1843
46.7577
39.1765
11.9871
48.8925
48.4472
48.2236
49.0406
50.2367
49.8919
48.723
46.8771
50.2016
49.2991
47.2662
44.447
33.3778
9.06427
50.2961
50.0673
49.0024
47.8355
46.5638
37.409
11.8901
49.297
48.9306
48.4366
47.4624
42.3666
49.1014
48.7269
48.7423
48.5163
50.1479
49.5318
48.1964
46.5179
50.227
48.6704
46.9893
45.5864
41.5867
50.7904
50.401
49.2513
48.1838
47.8121
42.4351
-8.62531
49.609
49.1566
48.8723
48.4736
47.7484
49.3981
49.1736
49.3666
48.2456
49.898
49.1177
47.8152
46.6607
50.0056
48.2594
46.971
46.4666
47.0099
50.8373
50.2189
49.0204
48.3197
48.6774
48.2948
49.9489
49.2734
49.1477
49.2276
50.0114
49.6893
49.5404
49.8637
48.2777
49.5927
48.8216
47.6968
47.114
49.5523
47.8129
46.5024
46.5093
48.0266
50.7824
49.9551
48.3189
47.9377
48.648
49.1859
50.0097
49.1664
49.1702
49.3639
50.1864
49.7837
49.6724
50.0911
48.5464
49.2734
48.6332
47.8644
47.8598
48.9808
47.2865
46.3096
46.8866
48.4159
49.8874
49.081
47.4206
47.4317
48.4988
49.1199
49.5414
48.7299
48.9811
49.2563
49.9765
49.5297
49.4938
50.023
48.9287
49.0746
48.6388
48.2744
48.6456
48.4864
46.9872
46.6455
47.3669
48.868
48.8036
48.2229
46.6695
47.2866
48.5111
49.2143
48.7042
48.1067
48.7728
49.1876
49.8264
49.1001
49.2633
49.8571
49.4626
49.0528
48.8895
48.8462
49.3527
48.2131
47.0211
47.1068
48.0251
49.4107
47.7971
47.5493
46.2885
47.3697
48.7509
49.5399
47.8865
47.5614
48.8055
49.302
49.9604
48.6702
49.2107
49.8875
50.1477
49.2984
49.3939
49.5415
50.004
48.089
47.2474
47.6647
48.849
49.9729
47.093
46.9239
46.3561
47.7779
49.2596
50.0628
47.2242
47.4442
49.2086
49.7917
50.392
48.5409
49.6169
50.331
51.0176
50.1668
50.2386
50.2632
50.6186
48.5791
48.1907
48.4308
49.4062
50.374
47.1445
46.6223
46.7796
47.8202
49.2569
50.6559
46.9092
47.5048
49.1685
50.4591
51.0685
49.3311
50.725
51.2502
51.383
50.7461
50.6775
50.7175
50.9709
49.2751
48.7307
48.9186
49.7429
50.5518
48.328
47.3885
47.579
48.5873
49.7852
50.8984
47.4326
48.3469
50.0678
50.9291
51.4618
50.6621
51.9227
51.9568
336.282
278.19
317.478
291.444
266.048
268.034
270.982
272.32
343.488
359.697
346.436
365.927
341.543
298.92
249.102
281.959
216.193
234.033
257.197
227.644
249.707
276.778
274.131
272.512
282.066
277.811
299.062
258.733
255.023
301.016
319.382
250.773
289.04
251.676
216.11
248.961
220.876
223.303
246.856
218.343
239.066
269.663
280.567
260.396
275.069
277.733
276.542
271.87
239.962
248.636
259.863
281.57
255.809
258.889
238.869
237.677
225.803
229.208
226.936
219.03
232.896
218.974
228.283
251.51
266.704
244.536
261.534
268.023
266.596
262.478
270.951
266.525
263.855
257.144
254.035
258.749
241.551
246.108
232.994
221.231
224.663
235.414
233.897
236.845
255.458
239.527
243.141
256.195
233.158
230.222
237.808
234.113
231.836
233.675
230.887
233.074
278.942
173.36
249.374
267.985
249.336
213.602
203.182
200.614
238.715
244.172
207.097
190.512
186.109
251.191
182.945
274.472
216.715
285.068
285.27
282.34
209.84
191.592
213.211
209.327
264.747
260.58
273.354
181.435
215.45
197.642
234.011
274.024
243.775
242.927
210.391
215.828
208.386
206.166
209.672
270.99
269.308
250.434
246.882
252.101
212.55
218.242
201.793
204.667
205.167
265.05
259.955
245.911
251.817
227.227
220.542
207.526
223.373
219.467
219.255
210.117
218.848
208.848
211.928
236.926
210.486
223.475
145.593
163.208
165.565
169.987
191.167
215.441
209.883
224.317
226.067
206.765
205.681
209.829
220.385
226.396
213.332
199.899
212.547
179.553
148.4
141.711
166.896
151.822
159.294
146.802
137.615
145.111
158.402
154.382
149.776
148.259
146.084
150.84
139.63
179.343
145.878
157.546
174.215
167.598
143.2
144.127
144.957
146.99
154.948
138.738
165.832
139.176
141.798
129.984
134.971
179.124
127.908
183.91
194.034
198.207
153.914
177.677
175.479
162.21
156.871
108.02
81.4953
78.3944
190.897
189.281
182.333
181.175
177.349
147.808
89.7233
64.8599
68.6063
63.0281
192.703
174.928
184.804
191.377
187.964
177.728
161.912
172.607
165.801
76.5246
116.292
85.5899
93.7398
66.8343
79.5653
68.7885
69.2674
191.071
170.797
187.6
187.454
179.739
171.917
169.218
153.019
180.39
142.419
104.088
147.201
78.8194
137.447
133.2
133.319
133.824
139.254
101.518
123.726
117.065
143.247
139.008
109.134
120.648
114.179
132.695
108.965
102.863
78.0044
136.115
118.355
132.383
115.167
126.65
91.7382
118.137
132.319
128.755
111.059
121.407
85.6745
110.082
61.8224
82.8526
55.1648
114.037
159.144
148.581
85.0782
124.742
109.89
61.6684
60.7815
55.5853
59.5952
60.2097
174.09
167.738
157.94
156.694
152.559
61.3298
63.879
63.1363
62.7882
63.7355
159.727
141.587
156.001
153.115
152.755
137.206
148.691
131.476
137.631
62.6087
63.6995
64.7659
53.7356
59.3157
56.642
62.646
65.0074
158.098
134.052
153.32
143.465
118.198
113.311
92.8745
74.0041
114.471
76.4836
58.6005
74.3673
58.1025
122.026
65.7035
74.4117
91.7723
77.9973
59.5174
69.9111
57.5495
66.8084
66.6683
53.69
50.6431
50.4076
56.4598
48.894
68.0968
61.9854
101.753
69.9664
87.9421
59.1853
61.5584
59.542
64.1234
51.1977
54.4308
49.8874
48.7085
49.2206
47.6926
49.5172
51.7432
50.8045
66.5568
79.9742
74.0603
58.5175
56.9989
57.9646
57.2578
58.1464
53.1118
54.6333
55.6259
113.309
115.68
58.9414
62.5827
64.2743
60.7117
60.7636
57.7602
57.706
57.6303
114.863
71.2448
117.266
100.171
104.992
71.8672
69.1923
64.8849
60.0994
56.6856
52.7563
58.6623
49.3525
54.0238
50.3091
54.3605
55.9368
74.074
52.0384
60.4001
54.2679
48.2358
48.6392
48.4712
50.4915
50.0326
47.5338
48.0222
47.5637
50.31
52.6624
51.0442
52.0521
58.3552
50.4251
48.5928
50.4704
48.9545
48.7633
49.0981
48.4289
48.549
48.8421
49.3196
49.0541
57.2355
54.2387
51.8124
56.2051
56.4529
52.275
51.1896
53.5096
53.6947
49.6777
49.6108
49.5179
49.2036
49.2853
49.558
49.2641
50.0348
49.5693
55.3059
52.0709
52.0502
52.9632
50.901
50.5726
52.0945
53.3326
50.0562
50.1872
50.001
50.2319
49.8287
49.8815
49.7356
49.8179
54.7833
54.7391
51.0364
50.5365
52.3044
50.1107
49.2982
49.2525
49.6305
47.3284
48.1712
48.2341
49.5539
48.0682
51.6217
48.9088
51.1658
48.2734
49.7273
48.5593
49.361
50.508
49.7942
49.6187
48.2257
48.7374
49.0334
48.3048
48.3586
47.6056
47.7789
47.7675
47.7837
47.721
48.4679
49.54
48.5274
47.9994
48.2763
48.0879
48.0154
47.9299
47.9746
48.2433
48.5654
48.1962
48.1055
48.3814
48.8053
48.6157
51.4733
49.7201
49.7788
50.2715
49.8388
48.9997
48.5853
48.8358
47.9713
48.9962
49.007
49.0264
48.6899
48.7953
48.6352
48.7706
49.1018
48.7377
51.182
49.9092
49.6807
49.9169
49.1687
49.0339
48.0764
49.0055
50.5681
48.5753
47.1928
48.4395
47.4558
48.41
48.7222
48.4585
48.4277
48.3558
48.331
48.3627
49.3108
49.6093
48.8296
48.7722
48.9263
52.074
50.1397
49.361
48.1451
47.3333
47.9463
46.3623
48.5196
48.5303
48.4274
48.283
48.4088
48.1103
48.3837
49.2796
48.6643
49.1381
49.2692
48.4698
48.5812
48.9705
47.8925
48.0919
48.7007
48.4975
48.6236
47.8177
48.4151
48.3028
48.3423
47.1049
49.1005
48.1767
48.2342
48.1305
48.1264
47.9258
47.9243
47.8363
47.8232
47.8844
47.658
47.8459
48.1444
48.2337
48.149
48.0225
48.0192
48.0239
47.9216
47.9615
47.9396
48.0572
48.258
47.9623
47.9662
48.1145
48.4431
48.2526
48.9106
48.4155
48.2701
48.5614
48.0058
48.1296
48.099
48.3038
48.0214
48.569
48.413
48.5462
48.3261
48.3395
48.2217
48.3528
48.7154
48.1334
48.7079
48.4332
48.4255
48.3714
48.4569
48.3958
49.0512
48.6597
48.6262
48.4241
48.3038
48.2961
47.9381
48.4377
48.2707
48.4455
48.1244
48.4954
48.2608
48.3382
48.3705
48.3735
48.4081
48.3616
48.3834
48.385
48.3558
48.3429
48.0436
48.0248
47.9709
48.3139
48.1329
47.5869
48.4567
48.3807
48.2329
48.1495
48.3981
48.1977
48.3231
48.3367
48.4128
48.2054
48.3516
48.2145
47.7429
47.9595
47.4845
47.3963
47.4109
47.0748
47.3331
47.1206
48.2452
47.9109
48.1062
47.3538
48.1783
47.5329
47.8432
47.409
49.2122
48.9437
48.2541
48.0199
48.2213
47.4675
47.2157
47.5788
47.6471
47.3468
47.4331
47.501
47.4045
47.6707
47.5536
47.2721
47.4807
47.5627
47.9515
47.7174
47.7738
47.8223
47.7954
47.6259
47.6612
47.6258
47.8448
47.9634
47.7095
47.6979
47.8118
48.0752
47.9078
47.9604
47.6638
47.8885
47.9708
47.843
47.7097
47.6836
47.6901
47.6398
48.1596
48.0499
48.1881
47.9704
47.9949
47.8783
48.0237
48.583
48.519
48.2356
48.3981
48.4881
48.4154
48.4866
48.4249
48.0082
47.9702
48.0198
47.811
47.6777
47.7458
48.3126
48.4362
48.2682
48.2938
48.3096
48.3163
48.2743
48.3948
48.4034
48.407
48.4567
48.4096
48.4274
48.4287
47.6899
47.6459
47.4595
47.4147
47.3831
48.3517
48.0983
48.1755
48.3302
48.3192
47.9357
48.2197
48.4493
47.9344
48.3264
48.3998
48.5037
48.2043
48.6472
47.3757
47.2664
47.0641
47.2762
47.1741
47.2247
47.1604
47.2421
47.2124
48.0942
47.2803
47.6376
47.2161
47.9147
47.1365
47.4682
49.7967
49.2975
49.9994
48.3182
48.5079
48.6428
47.226
47.2226
47.332
47.4013
47.2561
47.2605
47.2713
47.2253
47.3571
47.3549
47.2087
47.2701
47.2891
47.528
47.3838
47.4882
47.5098
47.4767
47.3677
47.3759
47.3484
47.5591
47.6613
47.4623
47.4494
47.5229
47.7574
47.6291
47.5153
47.3669
47.5016
47.4873
47.4544
47.3918
47.3742
47.339
47.2923
47.8371
47.7104
47.8141
47.6833
47.695
47.5724
47.6302
47.8662
47.5111
47.606
47.449
47.505
47.412
47.2557
47.2962
48.4381
48.1563
48.2789
47.7927
48.1876
47.9164
48.1087
48.4518
48.4502
48.4547
48.4763
48.4522
48.4291
48.4493
47.2698
47.2558
47.1982
47.1881
47.2065
48.2494
47.9909
49.2439
47.7524
48.0232
47.5177
49.1387
48.5726
48.492
48.6113
48.4809
48.57
48.5974
48.6453
47.2367
47.2069
47.206
47.2203
47.2171
47.2055
47.2218
47.2057
47.1953
47.6075
47.106
47.3344
47.3425
47.2814
47.1329
47.2441
46.8961
47.2124
47.1763
47.2446
47.2123
47.2074
47.2443
47.2092
47.1974
47.2181
47.2638
47.1871
47.2121
47.248
47.2838
47.2061
47.2747
47.2705
47.2502
47.2175
47.1877
47.1893
47.3451
47.4076
47.2562
47.2542
47.3178
47.5139
47.4138
47.2469
47.1544
47.2928
47.2192
47.1842
47.1938
47.2082
47.1378
47.1237
47.5714
47.4667
47.5228
47.4797
47.4819
47.3812
47.448
47.3814
47.3666
47.2561
47.1553
47.1515
47.1368
47.0744
47.0632
47.6084
47.8838
47.1154
47.2295
46.5498
47.0904
47.1536
47.0461
47.0387
47.0975
47.6893
47.0562
46.8611
46.0104
46.986
47.1741
47.1359
47.2206
47.1835
47.1803
47.1577
47.2097
47.1659
47.1768
47.152
47.1766
47.2012
47.367
47.2194
47.2146
47.2208
46.9601
47.1642
47.1795
47.2282
47.2074
47.195
47.1944
47.198
47.1831
47.218
47.2697
47.1848
47.2273
47.2772
47.1541
47.1134
47.1536
47.1172
47.1493
47.1059
47.0717
47.1094
47.1966
47.2537
47.1568
47.139
47.2082
47.3415
47.2973
47.0846
47.0672
47.1449
47.0833
47.1035
47.1043
47.108
47.06
47.0928
47.4188
47.33
47.3894
47.3793
47.3738
47.2866
47.3441
47.3248
47.2867
47.059
47.026
47.028
47.0393
47.0187
47.0116
47.174
47.0013
47.1747
47.2196
47.2137
47.0157
47.0946
47.0181
47.0084
47.1039
46.6258
47.0799
46.9721
46.9883
47.1695
47.1184
47.1372
47.2184
47.1687
47.1788
47.155
47.2339
47.1803
47.1908
47.3029
47.2451
47.2778
47.3516
47.3603
47.2884
47.348
47.3439
47.1858
47.1838
47.1763
47.1861
47.1878
47.17
47.1734
47.1928
47.2462
47.2844
47.1968
47.2666
47.3087
47.0814
47.0585
47.0965
47.0349
47.0811
47.081
47.0022
47.0684
47.0996
47.1846
47.1268
47.0998
47.1815
47.2699
47.2628
47.0648
47.0815
47.0877
47.059
47.0878
47.0842
47.0834
47.073
47.1012
47.3386
47.2608
47.3104
47.3293
47.3174
47.2527
47.2894
47.2686
47.2616
47.0398
47.0219
47.0114
47.065
47.0378
47.0301
47.2424
47.2335
47.2177
47.2467
47.2415
47.0306
47.1114
47.0625
47.0615
47.1381
47.0964
47.2185
47.1718
47.1631
47.2593
47.1824
47.1982
47.2507
47.2031
47.2175
47.2235
47.2646
47.227
47.244
47.3931
47.3449
47.4087
47.3645
47.4212
47.3913
47.4478
47.3392
47.2081
47.246
47.1849
47.1599
47.2361
47.2246
47.1875
47.2193
47.2882
47.3384
47.2668
47.3112
47.3588
47.0555
47.0837
47.084
46.9893
47.067
47.1216
47.0302
47.0909
47.1127
47.1944
47.1889
47.1355
47.2206
47.2718
47.293
47.1062
47.1368
47.0951
47.1033
47.1322
47.1261
47.1219
47.1376
47.1665
47.3122
47.261
47.2846
47.3473
47.3194
47.2795
47.2931
47.2657
47.2809
47.0979
47.069
47.0676
47.1373
47.1147
47.1128
47.258
47.2632
47.252
47.282
47.2948
47.096
47.1495
47.1394
47.1294
47.162
47.2317
47.3211
47.2887
47.2851
47.3914
47.2055
47.2267
47.2727
47.2517
47.2719
47.248
47.2962
47.2739
47.3043
47.4594
47.4179
47.4819
47.3948
47.5121
47.4356
47.5063
47.492
47.2668
47.2967
47.2701
47.2556
47.3172
47.3248
47.3197
47.3315
47.3363
47.4109
47.4005
47.3724
47.4794
47.1264
47.1789
47.1692
47.0963
47.1383
47.2198
47.161
47.1918
47.1742
47.2508
47.2909
47.225
47.2905
47.3182
47.3457
47.1753
47.2184
47.1524
47.1773
47.1899
47.2115
47.1897
47.2214
47.2149
47.3356
47.2997
47.3128
47.3815
47.3578
47.3187
47.3369
47.3073
47.3349
47.176
47.1672
47.1625
47.217
47.2227
47.2177
47.3179
47.3344
47.3243
47.3552
47.3757
47.1598
47.1788
47.2255
47.205
47.194
47.332
47.4486
47.3712
47.3805
47.4897
47.2456
47.2572
47.3237
47.2983
47.3333
47.3092
47.3443
47.3419
47.3529
47.5462
47.4915
47.5239
47.4906
47.559
47.5554
47.5397
47.5937
47.3438
47.3783
47.3849
47.3901
47.4053
47.4404
47.4512
47.4752
47.4684
47.5141
47.5514
47.5401
47.6261
47.2489
47.3148
47.2851
47.2416
47.2577
47.3552
47.3159
47.3308
47.2841
47.3355
47.407
47.3475
47.3808
47.3749
47.4043
47.2631
47.3121
47.2384
47.2671
47.2434
47.3075
47.2938
47.3156
47.2729
47.3842
47.3475
47.3697
47.4211
47.4144
47.3863
47.407
47.3707
47.4092
47.2647
47.2737
47.2675
47.3183
47.3229
47.3114
47.3973
47.4183
47.4009
47.4344
47.4586
47.2585
47.2401
47.325
47.305
47.2883
47.4352
47.5312
47.4741
47.4879
47.5742
47.2969
47.3407
47.3739
47.3814
47.3853
47.3649
47.4066
47.412
47.427
47.5661
47.6207
47.564
47.5714
47.5766
47.6848
47.5993
47.6033
47.4095
47.4462
47.4868
47.4969
47.506
47.5311
47.5353
47.6156
47.5667
47.6325
47.6734
47.6104
47.7534
47.3765
47.4264
47.4171
47.3793
47.3997
47.4651
47.4268
47.4472
47.3978
47.4208
47.4815
47.4331
47.4544
47.4337
47.4611
47.3524
47.389
47.3432
47.3554
47.2964
47.387
47.3862
47.3873
47.32
47.4467
47.4236
47.4457
47.4745
47.48
47.4593
47.4861
47.4488
47.488
47.3512
47.3576
47.3514
47.369
47.3892
47.3787
47.4679
47.4976
47.4842
47.5012
47.5358
47.3461
47.3302
47.4088
47.3858
47.3645
47.5374
47.6119
47.5666
47.5874
47.642
47.3711
47.405
47.43
47.4472
47.4657
47.4263
47.4568
47.4603
47.4915
47.5997
47.7483
47.6464
47.6302
47.6338
47.7932
47.6986
47.6455
47.4878
47.5215
47.5722
47.5763
47.5946
47.6099
47.6148
47.7174
47.6531
47.7194
47.7491
47.7033
47.8263
47.4642
47.4994
47.4908
47.4591
47.4677
47.5035
47.4943
47.4759
47.4562
47.4826
47.5278
47.4791
47.5097
47.4853
47.5066
47.4198
47.4526
47.4304
47.4178
47.3382
47.46
47.4684
47.4621
47.3762
47.5097
47.494
47.5266
47.5049
47.5315
47.5255
47.5636
47.5296
47.5713
47.3963
47.42
47.4091
47.4168
47.4485
47.4445
47.5414
47.5792
47.5767
47.5851
47.6239
47.4314
47.4018
47.4835
47.4602
47.4287
47.6394
47.6767
47.6708
47.6894
47.7102
47.4395
47.4684
47.484
47.4602
47.5071
47.4697
47.5184
47.4818
47.5349
47.6793
47.8226
47.7506
47.7082
47.7264
47.8369
47.7949
47.7347
47.5538
47.5913
47.6354
47.646
47.6839
47.6614
47.6764
47.7744
47.7533
47.8085
47.7895
47.7876
47.8337
47.5293
47.556
47.5141
47.5378
47.488
47.5299
47.5831
47.512
47.5033
47.5384
47.5628
47.5317
47.5664
47.531
47.5624
47.4919
47.5401
47.5033
47.5152
47.4449
47.5323
47.5323
47.569
47.522
47.5569
47.5564
47.5996
47.5473
47.5862
47.5797
47.6303
47.6102
47.6451
47.4266
47.4855
47.4739
47.454
47.5297
47.5207
47.6266
47.6683
47.6535
47.6675
47.7084
47.4937
47.466
47.5624
47.5517
47.5226
47.7333
47.7457
47.7507
47.7664
47.7792
47.5008
47.5415
47.5564
47.537
47.5738
47.5518
47.5888
47.5834
47.6125
47.7645
47.8455
47.8291
47.7568
47.7884
47.8429
47.8376
47.8129
47.624
47.6481
47.6916
47.7037
47.7451
47.7194
47.7266
47.7969
47.806
47.8362
47.8
47.8111
47.8306
47.584
47.6154
47.5512
47.6164
47.5402
47.5812
47.6418
47.5791
47.5646
47.5936
47.6162
47.6056
47.6246
47.5958
47.6314
47.5864
47.6238
47.5566
47.6188
47.591
47.604
47.5841
47.6469
47.6297
47.6165
47.6115
47.6601
47.6155
47.6455
47.6457
47.6869
47.6768
47.7044
47.5049
47.5777
47.5724
47.5473
47.6295
47.6288
47.7008
47.7401
47.7144
47.7258
47.7537
47.6056
47.5844
47.655
47.6482
47.6496
47.7948
47.8019
47.7848
47.8009
47.8169
47.5963
47.6518
47.6214
47.6252
47.6498
47.6324
47.6644
47.6589
47.6823
47.8016
47.8451
47.843
47.7905
47.8102
47.857
47.8558
47.8225
47.6841
47.7122
47.7407
47.7454
47.7651
47.7611
47.7619
47.802
47.8082
47.8158
47.8072
47.8039
47.8347
47.6506
47.6877
47.6216
47.6653
47.6231
47.6591
47.6904
47.6637
47.647
47.6599
47.6871
47.6847
47.6997
47.6697
47.7102
47.6568
47.6891
47.6239
47.6615
47.6476
47.6804
47.668
47.6729
47.6661
47.6761
47.6816
47.7157
47.6909
47.7104
47.7138
47.7424
47.7307
47.7544
47.5902
47.6845
47.6868
47.6559
47.7336
47.7345
47.7471
47.7641
47.7636
47.7668
47.777
47.6975
47.6997
47.7323
47.7399
47.7463
47.7971
47.8216
47.7924
47.798
47.8277
47.692
47.7321
47.7009
47.6899
47.7136
47.6801
47.7225
47.7136
47.7401
47.8324
47.881
47.8852
47.8204
47.8728
47.9115
47.9226
47.8432
47.7338
47.7556
47.7772
47.7768
47.7798
47.7915
47.7903
47.816
47.8023
47.8046
47.8254
47.8059
47.8606
47.7237
47.7555
47.6927