/*--------------------------------*- C++ -*----------------------------------*\
| =========                 |                                                 |
| \\      /  F ield         | OpenFOAM: The Open Source CFD Toolbox           |
|  \\    /   O peration     | Version:  5.x                                   |
|   \\  /    A nd           | Web:      www.OpenFOAM.org                      |
|    \\/     M anipulation  |                                                 |
\*---------------------------------------------------------------------------*/
FoamFile
{
    version     2.0;
    format      ascii;
    class       surfaceScalarField;
    location    "4";
    object      phi;
}
// * * * * * * * * * * * * * * * * * * * * * * * * * * * * * * * * * * * * * //

dimensions      [0 3 -1 0 0 0 0];

internalField   nonuniform List<scalar> 
29271
(
-1.0382e-05
-6.37164e-07
4.99323e-06
6.07764e-06
-1.11174e-05
1.91235e-06
2.25075e-06
7.15652e-06
-4.74985e-05
-1.03363e-05
-9.39249e-06
1.28314e-05
1.11133e-05
4.32825e-05
-7.35199e-05
-1.83694e-05
6.72271e-06
-1.79686e-05
1.32497e-05
8.98855e-05
-3.28684e-05
2.43525e-06
-7.87505e-06
-1.22732e-06
2.74799e-05
1.20556e-05
-5.06219e-05
-1.4501e-05
-5.25386e-06
3.68439e-06
2.66964e-05
3.99961e-05
-4.52834e-05
-9.32259e-06
-1.52678e-05
1.16328e-05
6.22625e-06
5.20147e-05
-6.26984e-05
-8.24509e-06
8.82208e-06
-2.23554e-05
6.8056e-06
7.76712e-05
-2.64065e-05
-6.68819e-07
1.33036e-05
-8.52572e-06
3.29278e-06
1.90046e-05
-2.82389e-05
3.51226e-08
5.60519e-06
1.92266e-05
3.47931e-06
-1.4681e-05
-2.64267e-06
2.07198e-06
1.52882e-05
-3.96889e-05
-3.86117e-07
-4.45115e-06
4.58258e-06
-5.27293e-06
4.52165e-05
-4.65205e-05
2.4543e-06
-1.41213e-05
5.546e-06
-9.21184e-06
6.18533e-05
-6.62924e-05
-6.20034e-07
1.40608e-05
-2.48958e-05
-3.04731e-06
8.07946e-05
-3.99189e-05
-6.19465e-06
2.21684e-05
-1.56658e-05
6.58641e-06
3.30246e-05
-4.33177e-05
-8.52263e-06
-7.26942e-06
1.57293e-05
3.2394e-05
1.09865e-05
-4.72714e-05
-2.55314e-06
2.15033e-06
-4.21492e-06
4.67984e-05
5.09069e-06
-3.47108e-05
-3.80366e-06
1.08009e-05
2.27234e-06
-2.80698e-06
2.82482e-05
-6.54011e-05
7.17581e-06
2.71254e-06
-8.85562e-06
-1.31553e-05
7.75236e-05
-5.39133e-05
-1.59842e-05
2.7021e-06
5.72468e-05
-6.8671e-06
1.68157e-05
-1.38722e-05
-6.4753e-06
1.00566e-05
1.04181e-05
-4.21457e-05
3.11529e-06
-1.18678e-05
4.68506e-05
4.12274e-06
-5.62818e-05
6.65938e-07
8.24039e-06
-4.23614e-06
3.71895e-05
1.44221e-05
-1.41514e-05
7.34492e-07
-1.26431e-06
1.46844e-05
-2.63983e-06
2.65485e-07
1.62906e-06
8.10065e-07
-5.13801e-06
8.2644e-07
-1.60753e-06
5.76302e-06
-4.95527e-07
2.26669e-06
-3.51903e-05
6.65827e-07
3.37353e-06
2.93797e-05
-9.22225e-06
-9.29166e-05
-2.56013e-06
5.14684e-06
1.16809e-05
8.78712e-05
-2.97832e-05
-3.71527e-06
-5.33918e-06
2.57494e-06
3.57997e-05
4.63064e-07
6.31288e-07
-3.08697e-06
-3.17595e-05
2.58883e-06
1.93246e-06
2.96939e-05
6.828e-05
-5.41225e-05
0.000290237
-5.62317e-05
-0.000113559
-7.26171e-05
-0.000102844
9.9567e-06
2.05409e-06
2.03857e-05
1.91878e-05
-4.70078e-06
-3.20331e-06
-1.86992e-06
-9.53962e-07
4.72919e-05
-3.61049e-07
0.000255046
-8.35102e-05
-2.69999e-05
-9.44072e-05
-2.9512e-05
-4.37919e-06
-1.10583e-06
5.80646e-07
5.63702e-06
-2.63412e-06
1.15574e-05
0.000129548
-2.71531e-06
-1.79763e-06
-1.44335e-05
-4.02825e-06
-1.93226e-06
-5.59577e-07
2.64012e-08
-1.6547e-05
-1.58275e-05
-1.74998e-05
-1.58653e-05
-1.55485e-05
-7.91357e-07
1.55685e-06
1.23585e-05
-1.88232e-05
-1.61346e-06
2.93002e-06
1.75195e-05
2.12354e-06
-5.73428e-05
2.22117e-06
-4.98768e-06
-6.27464e-06
6.42604e-05
9.02473e-05
-4.35025e-06
0.00014132
-6.11626e-05
-7.76193e-05
-5.78793e-05
-8.12958e-05
-1.98982e-06
-3.14484e-06
5.00957e-07
1.25141e-06
9.1802e-05
3.97743e-06
0.000273779
-8.64433e-05
-4.82616e-05
-8.0858e-05
-6.4109e-05
-5.90404e-07
-9.45061e-06
0.000215411
9.55258e-07
1.18237e-06
1.10044e-05
1.11269e-06
-7.0694e-08
6.49887e-06
-3.0598e-05
-2.82698e-05
-3.52948e-05
-2.85313e-05
-2.67404e-05
-1.81444e-06
-4.1981e-06
4.2038e-06
2.79587e-05
-4.72859e-05
3.29515e-06
8.67838e-07
3.78442e-06
3.92504e-05
8.80616e-08
6.85936e-05
-5.61559e-06
0.000112434
2.60681e-07
-4.87827e-07
1.95509e-06
1.74119e-06
-1.75115e-06
-8.01633e-07
1.1144e-06
-2.85937e-05
-6.03583e-05
-4.94458e-05
-4.33954e-05
2.36098e-05
-3.88759e-06
0.000256438
1.33784e-05
4.57717e-05
2.19656e-05
-2.17981e-06
-1.54005e-06
5.58146e-07
-8.30389e-05
-8.72033e-05
-4.71496e-05
-6.41515e-05
-7.44887e-05
1.2412e-05
-1.40514e-05
9.02874e-05
-9.85845e-06
-1.55607e-06
-5.42412e-07
1.19152e-05
-4.30972e-05
2.04776e-06
2.69835e-06
3.27932e-05
-2.34529e-05
-1.20599e-06
3.38261e-06
-9.5535e-07
1.83441e-05
-1.10515e-05
3.5337e-06
-2.30383e-06
9.92028e-06
-4.49329e-07
3.82207e-07
-9.5585e-07
1.04862e-06
-8.46498e-06
-6.01606e-06
5.84148e-06
8.27142e-06
6.214e-06
1.02724e-05
-3.24064e-05
-2.14828e-05
-1.88251e-06
3.92853e-05
3.77766e-06
-7.4375e-05
1.13309e-06
1.97523e-05
5.29342e-06
4.44185e-05
-3.43039e-05
-1.55332e-07
5.17782e-06
2.38127e-05
2.32886e-05
-1.78198e-05
7.62178e-07
1.11839e-06
-3.73404e-05
-4.95579e-06
-1.26723e-05
5.30879e-05
2.16244e-05
-9.00806e-06
0.000238199
8.22636e-06
5.4831e-06
7.48398e-06
1.95459e-06
3.71345e-06
2.6503e-06
4.69867e-06
5.21215e-06
0.000101404
1.54999e-05
0.000224071
-1.40966e-05
-2.01282e-05
-2.22586e-05
-7.82098e-06
7.88448e-06
3.74825e-05
0.000238906
-5.10914e-05
-1.16001e-05
-1.40113e-05
-8.78618e-06
8.64709e-06
1.28472e-05
1.06746e-05
-1.01398e-05
-2.60793e-06
4.12859e-06
1.66199e-05
-1.08792e-05
3.48528e-06
2.35743e-06
5.0777e-06
-2.07645e-05
-7.48858e-05
1.03927e-05
1.30915e-06
-2.47334e-06
8.64219e-05
2.53402e-05
5.19439e-06
9.984e-05
8.4314e-07
5.77193e-07
2.66735e-07
2.50098e-07
0.000118087
1.60657e-05
0.000180466
1.48624e-05
-1.16139e-06
0.000296338
1.8833e-05
1.49787e-05
1.87258e-05
2.60195e-06
3.16591e-06
2.63679e-06
-3.34803e-05
-1.55586e-06
3.47147e-06
-9.60081e-06
5.60279e-05
-3.22657e-05
-1.92166e-06
2.16744e-06
9.81906e-07
2.95829e-05
1.45511e-06
3.09895e-05
4.2724e-07
8.4343e-05
-3.4112e-06
7.42877e-08
-1.09733e-07
1.12541e-06
1.21943e-06
1.39531e-06
1.57537e-06
1.60105e-05
2.46466e-06
0.000169075
2.5922e-05
2.95786e-05
3.50053e-05
6.63615e-06
3.592e-06
1.52096e-05
-7.85735e-05
2.74352e-05
6.9322e-06
5.90551e-05
-3.04177e-05
8.43373e-06
-2.24776e-05
4.44508e-05
-2.15723e-05
1.07928e-06
3.03932e-06
1.78943e-05
-1.66818e-05
-5.31251e-06
1.09683e-05
-7.47275e-07
1.4238e-05
-1.55008e-05
-8.12585e-07
-1.15419e-05
2.78186e-05
-2.15391e-06
-6.98217e-07
5.24961e-07
2.38843e-06
-6.04246e-06
-3.87011e-06
3.83315e-06
5.74755e-06
1.74427e-06
2.44066e-06
-4.95495e-05
-5.55001e-06
-6.82856e-06
5.77431e-05
3.53117e-06
-2.69986e-05
9.78188e-07
1.79725e-06
-8.91587e-07
2.15836e-05
-1.69996e-05
-3.16532e-07
1.9987e-06
1.81187e-06
1.52405e-05
-1.73495e-06
1.23229e-05
1.06425e-05
-6.92464e-05
-1.60832e-06
-3.03385e-05
7.82277e-05
2.36262e-05
1.69717e-05
0.000180935
7.0715e-07
-5.20535e-06
6.00178e-06
1.34047e-06
3.858e-06
4.22041e-07
7.65397e-06
1.88739e-06
6.39907e-05
1.21754e-05
0.000179759
-6.52694e-06
-2.73525e-06
-1.52433e-06
2.55873e-06
7.63906e-06
2.47426e-05
0.00027384
-4.31557e-06
-5.18792e-06
-2.47532e-06
-2.56197e-06
4.55963e-06
5.05547e-06
1.60052e-06
-2.99952e-05
7.17531e-06
-7.1877e-06
3.7646e-05
-2.70205e-06
9.11916e-07
-2.38433e-07
2.06044e-06
-4.32888e-06
-7.70703e-05
1.55651e-05
1.18237e-05
3.92777e-06
5.00826e-05
1.22389e-05
6.52371e-06
0.000102664
-2.39924e-06
-8.85577e-07
-1.14429e-06
-1.85373e-07
6.13007e-05
6.54151e-06
0.000137038
1.11432e-05
-1.1432e-06
0.000335012
1.36724e-05
9.77962e-06
1.48274e-05
-1.82307e-06
3.5762e-06
-2.66321e-06
-6.95416e-05
7.87486e-06
9.75447e-06
-8.32667e-06
7.13822e-05
-3.12734e-05
-2.29312e-06
-4.16041e-07
3.72828e-06
3.09248e-05
-6.70451e-07
3.37314e-06
2.18626e-06
8.12983e-05
-2.97541e-06
-3.55538e-06
-1.54967e-06
-1.69412e-06
1.78969e-06
8.95428e-06
3.03963e-06
1.5058e-05
2.14014e-06
9.88581e-05
1.85472e-05
1.27786e-05
1.20446e-05
8.20457e-06
2.60492e-06
8.75304e-06
-6.82632e-05
1.35358e-05
-2.20401e-07
6.88626e-05
-5.56759e-05
3.973e-06
-8.77963e-06
6.04788e-05
-1.97399e-05
-3.40279e-06
7.23422e-07
2.4515e-05
-1.18856e-05
-7.06822e-07
2.97962e-06
1.52211e-06
1.02309e-05
-4.14097e-05
1.39744e-06
-7.29538e-06
4.73019e-05
-1.01943e-06
-1.85092e-06
2.46178e-06
3.51515e-07
-8.26637e-06
3.0682e-06
-8.11014e-06
1.32681e-05
1.80395e-06
3.02568e-06
-5.33626e-05
1.31828e-05
-3.19629e-06
3.85464e-05
-7.63813e-06
-2.348e-05
-9.24014e-06
5.31644e-07
4.01152e-06
3.58151e-05
-1.93829e-05
-7.60116e-07
-1.08331e-06
-4.39776e-07
2.08777e-05
7.88429e-07
9.09971e-06
7.6179e-06
-7.46896e-05
-2.93384e-06
-9.55868e-06
7.04645e-05
2.74509e-05
1.63138e-05
0.000129402
1.21689e-06
4.5202e-06
6.80025e-07
5.72539e-06
2.34638e-06
-6.17623e-06
6.44128e-07
-1.18809e-06
3.35341e-05
1.70464e-05
0.00017983
-4.59933e-06
-3.87885e-06
-7.04028e-06
-7.68286e-06
4.56425e-07
2.37647e-05
0.0002837
-3.96258e-06
-4.56911e-07
-1.33302e-06
1.44928e-06
-1.18158e-06
3.41622e-06
1.52176e-06
-4.35889e-05
1.24856e-05
-1.38072e-05
4.53666e-05
-2.35082e-06
-1.99244e-06
6.81632e-07
3.63755e-06
5.51725e-07
-4.18394e-05
-1.10204e-06
9.89134e-07
5.62744e-07
4.08378e-05
5.80005e-06
8.05237e-06
0.000118357
-2.42702e-06
-4.74545e-06
-1.09381e-06
-4.96593e-06
1.20582e-05
-4.5282e-06
0.000152354
4.10981e-06
1.48815e-06
0.000334607
8.86061e-06
4.98497e-06
1.11941e-05
-1.84216e-06
6.75513e-06
6.77445e-07
-6.99041e-05
7.43173e-06
4.94608e-06
-5.27273e-06
6.69088e-05
-2.83024e-05
8.5131e-07
3.12957e-07
2.91562e-06
2.53032e-05
-1.08067e-06
-2.39552e-06
6.4507e-06
9.69138e-05
-1.32949e-06
-1.68646e-06
-5.43408e-06
-7.71572e-06
2.42408e-06
2.38858e-06
-2.6526e-07
1.78632e-06
-4.75651e-06
9.65352e-05
4.43726e-06
-1.47632e-06
5.92836e-07
4.53354e-06
-1.02355e-05
5.17472e-07
-7.39562e-05
5.09853e-06
1.53748e-06
7.05947e-05
-6.49895e-05
-1.28547e-06
-3.24659e-06
6.9522e-05
-3.53433e-05
-6.80015e-06
8.30155e-06
4.02913e-05
-1.29977e-05
-2.4914e-06
-3.09395e-06
-2.92428e-06
1.67508e-05
-5.06934e-05
-5.72669e-07
-3.6468e-07
5.16306e-05
-1.95473e-06
-1.27301e-06
-7.60356e-07
3.98762e-06
-1.65025e-05
5.21388e-06
-4.69189e-06
1.59739e-05
2.79264e-06
-4.00582e-06
-2.96068e-05
8.22328e-06
-3.06381e-06
2.56605e-05
1.15404e-06
-4.12142e-05
-1.08378e-05
7.86767e-06
2.3173e-07
4.27986e-05
-2.45732e-05
5.34943e-07
4.43157e-07
-2.61585e-06
2.8409e-05
-2.198e-06
3.39879e-06
3.69952e-06
-6.45016e-05
-5.30527e-07
-3.463e-07
5.82801e-05
1.11258e-05
-5.42029e-06
0.000134182
7.25957e-08
2.77799e-06
-2.56106e-06
1.23429e-06
-1.34992e-06
-1.36663e-06
-4.74547e-06
-4.54788e-06
1.6977e-05
1.7215e-05
0.0001755
-5.01464e-06
-6.50608e-06
-3.05613e-06
-4.15943e-06
-1.40481e-07
2.53104e-05
0.000279869
-1.43459e-06
6.80059e-07
-7.74047e-07
-2.61749e-07
-1.93266e-06
9.84625e-07
-1.62407e-06
-4.44953e-05
9.36527e-06
2.24291e-06
-1.82193e-05
5.09659e-05
1.54091e-08
-1.81596e-09
1.34807e-09
-2.10176e-08
-3.90025e-06
-3.07897e-06
3.25857e-06
3.73098e-06
-1.81276e-06
-4.07863e-05
-3.45148e-06
1.88124e-06
3.747e-06
4.04223e-05
5.31151e-06
-5.47352e-06
0.000126582
-1.89416e-06
-5.27577e-06
-2.1782e-06
-4.13448e-06
1.0386e-05
-2.88401e-07
0.000164783
1.39354e-06
5.53128e-06
0.000339617
8.45277e-06
6.15745e-07
5.38918e-06
2.34116e-06
7.92074e-06
-9.58036e-07
-6.88015e-05
5.84672e-06
1.22743e-06
7.83493e-06
5.5286e-05
6.68154e-09
-1.3019e-07
1.04737e-08
9.62769e-10
9.94042e-08
-2.61604e-05
-3.88894e-06
3.91242e-06
-1.90146e-06
2.78381e-05
2.0025e-07
7.21026e-06
2.2499e-06
9.66007e-05
-5.50429e-06
-8.18453e-06
-3.41977e-06
-4.97049e-06
1.47522e-06
2.54606e-06
3.43728e-06
-2.1359e-06
-6.39455e-06
0.000109158
1.30827e-06
-4.58654e-07
9.8279e-07
1.5175e-06
-2.57398e-06
2.05352e-06
-7.12701e-05
-2.87828e-07
3.46854e-06
7.14848e-05
-8.41262e-05
7.60409e-07
-2.78006e-06
8.61371e-05
-3.93854e-05
-7.42117e-06
1.20961e-05
3.69604e-05
-1.99462e-05
-7.54085e-06
-8.40618e-07
-4.06153e-06
2.59946e-05
-5.1538e-05
-2.03385e-06
2.14929e-06
5.14225e-05
-5.19774e-06
-1.68787e-06
9.48423e-07
5.93102e-06
-1.21044e-05
6.48918e-06
-3.10944e-06
8.7238e-06
5.93043e-07
-7.33484e-06
-2.34602e-05
7.37928e-06
1.09703e-06
2.17256e-05
5.03812e-07
-4.2798e-05
-8.74038e-06
7.641e-06
-2.26396e-07
4.362e-05
-3.23533e-05
1.819e-07
-1.76951e-07
-1.27135e-06
3.5853e-05
-2.23328e-06
-6.00548e-07
-1.9717e-06
-5.1203e-05
4.69042e-06
3.73642e-06
4.53484e-05
1.67058e-05
-1.2406e-07
0.000137741
-3.27975e-06
7.1349e-08
-1.95306e-06
1.8355e-06
-4.26448e-06
-5.65343e-06
-2.76409e-06
-4.13216e-06
1.21348e-05
1.63453e-05
0.000173158
-2.43735e-06
-4.02988e-06
-7.41711e-07
-2.22346e-06
1.24862e-06
2.64611e-05
0.000270152
-1.91432e-06
-5.31634e-07
-9.8106e-07
-1.07188e-06
-2.77215e-06
2.39718e-06
-9.83569e-07
-5.65874e-05
1.45178e-05
6.99113e-06
-5.79233e-06
4.21194e-05
-8.5389e-08
6.68927e-08
-5.74462e-08
-1.59209e-06
4.40508e-07
1.22752e-06
-3.31476e-06
-1.97147e-06
2.07076e-06
3.2201e-06
-4.30869e-06
-4.09328e-05
-3.01511e-06
5.08145e-06
2.01905e-06
4.11561e-05
6.38939e-06
1.30909e-06
0.000129319
-3.16027e-06
-3.67918e-06
-1.81945e-06
-1.90095e-06
9.18257e-06
4.89802e-06
0.000173437
-6.34042e-07
6.0937e-06
0.00034332
6.20253e-06
3.43212e-07
7.63565e-06
1.64833e-06
8.68941e-06
1.9626e-06
-5.55838e-05
4.00965e-06
-2.35533e-06
5.18774e-07
5.27767e-05
1.11706e-06
-5.99646e-07
1.08566e-06
-1.34448e-06
2.162e-06
-2.42059e-06
-2.79353e-05
-2.37963e-06
1.0918e-06
2.9761e-06
2.76506e-05
-1.4036e-06
3.55205e-06
1.48346e-06
9.45357e-05
-2.12252e-06
-2.25244e-06
-1.32412e-06
-1.98705e-06
2.22255e-06
1.57046e-06
2.23164e-06
-3.03274e-06
-3.35594e-06
0.00012743
3.49463e-07
-1.59461e-06
-4.10285e-07
8.80808e-07
-2.68376e-06
2.56035e-08
-7.48416e-05
-1.81818e-06
4.05825e-06
7.56625e-05
-7.41761e-05
-2.57156e-05
-1.27659e-06
1.06868e-05
9.04814e-05
-1.10298e-06
2.86355e-06
-2.50841e-06
7.47846e-07
-3.43307e-05
-4.16582e-06
8.5935e-06
3.13857e-05
-3.35842e-05
-5.38424e-06
-1.81362e-06
-1.83639e-06
3.92625e-05
-5.11455e-05
-2.60124e-06
3.29459e-06
5.04521e-05
-6.78423e-06
-1.69377e-06
7.39758e-07
7.73824e-06
-7.08922e-06
4.59244e-06
-3.51321e-06
6.01078e-06
5.3426e-07
-5.90219e-06
-2.09432e-05
6.4461e-06
-1.37882e-07
2.00029e-05
-7.89726e-08
-4.57794e-05
-7.52537e-06
6.21706e-06
-1.2113e-07
4.72878e-05
-3.90368e-05
-1.49154e-07
2.74354e-07
-1.58614e-07
4.13897e-05
-2.31946e-06
-8.16793e-07
-2.92007e-06
-4.16228e-05
3.69502e-06
3.38243e-06
3.82822e-05
1.33362e-05
2.21456e-06
0.000134655
-1.576e-06
6.874e-07
-1.08289e-06
1.93376e-06
-2.59868e-06
-4.20837e-06
-2.55995e-06
-3.06035e-06
8.19371e-06
1.53135e-05
0.000169988
-1.43344e-06
-3.19318e-06
-4.23048e-07
-1.95057e-06
1.99978e-06
2.56483e-05
0.000258643
-2.50281e-06
-1.59387e-06
-1.35338e-06
-1.80167e-06
-1.65173e-06
1.72567e-06
-7.68216e-07
-4.18071e-05
9.00948e-07
2.96554e-06
-1.85947e-06
4.17999e-05
-2.97216e-06
-8.29807e-07
-1.04653e-06
4.11534e-07
8.32389e-07
3.60458e-06
-3.33802e-06
-1.21036e-06
1.21514e-06
3.33454e-06
-3.06286e-06
-4.11364e-05
-3.07998e-06
4.4621e-06
2.53169e-06
4.02855e-05
4.18043e-06
4.62455e-06
0.000131851
-2.87796e-06
-2.72792e-06
-1.86273e-06
-1.6537e-06
4.04067e-06
6.28703e-06
0.000182603
-9.09212e-07
5.58588e-06
0.000344088
7.06426e-06
6.35318e-08
5.48149e-06
1.60167e-06
7.88083e-06
2.15193e-06
-5.04144e-05
2.75089e-06
-7.29589e-07
-5.82951e-07
4.80668e-05
2.84374e-06
-4.78948e-07
5.26052e-07
-1.41454e-06
1.01025e-06
-2.48656e-06
-2.71382e-05
-2.33667e-06
2.32572e-06
3.45972e-06
2.61471e-05
-2.45765e-06
1.4446e-06
1.71007e-06
0.000103924
-2.64694e-06
-2.70265e-06
-3.12127e-06
-3.41792e-06
1.77284e-06
1.17448e-06
1.0231e-06
-5.15024e-06
-2.22773e-06
0.000155219
-1.7682e-06
-3.7396e-06
-2.79085e-06
-7.23654e-07
-2.09523e-06
-1.5621e-06
-8.07105e-05
-4.63508e-06
4.25243e-06
8.15288e-05
-9.38911e-05
-2.22295e-06
3.71718e-06
3.60231e-06
8.87945e-05
-6.42649e-06
-1.4911e-06
-7.95375e-06
5.79037e-06
1.0081e-05
-2.88678e-05
-1.93934e-06
4.99788e-06
2.75195e-05
-4.43121e-05
-3.00667e-06
-2.68208e-06
-8.71013e-07
4.86442e-05
-4.95537e-05
-2.31649e-06
3.5532e-06
4.8317e-05
-8.40567e-06
-9.62084e-07
5.74671e-07
8.79308e-06
-4.87277e-06
3.52576e-06
-2.78468e-06
4.13285e-06
2.05311e-07
-4.47178e-06
-1.83975e-05
5.43765e-06
1.36757e-06
1.58587e-05
-5.51203e-07
-4.86208e-05
-6.07491e-06
5.36279e-06
4.06265e-07
4.94778e-05
-4.36638e-05
-1.53542e-07
-1.19072e-07
5.07098e-07
4.5451e-05
-2.02171e-06
8.75977e-07
-3.68338e-06
-3.39155e-05
6.27763e-06
3.14001e-06
2.73052e-05
1.06024e-05
2.05482e-06
0.000140174
-1.57688e-06
5.61406e-07
-1.65018e-06
1.10517e-06
-3.75479e-06
-4.68498e-06
-4.13809e-06
-4.03746e-06
1.37029e-06
1.28948e-05
0.000172815
-1.30703e-06
-2.92221e-06
-3.0457e-07
-1.95625e-06
9.29539e-07
2.2731e-05
0.000252072
-2.15635e-06
-1.1437e-06
-1.00855e-06
-2.49509e-06
-1.84419e-06
-3.42447e-06
-3.64702e-06
-5.2368e-05
5.83505e-06
1.55886e-06
-8.61884e-07
4.67655e-05
-2.65207e-06
8.40709e-08
2.12571e-06
-1.32305e-06
1.76533e-06
-3.1499e-06
-5.49315e-07
1.52647e-06
2.17402e-06
-2.73114e-06
-3.94233e-05
-3.18815e-06
3.6684e-06
2.52315e-06
3.91511e-05
-3.42672e-07
2.88217e-06
0.0001388
-2.51408e-06
-2.39931e-06
-1.28999e-06
-1.23044e-06
-4.65921e-06
5.88284e-06
0.000193932
-1.7143e-06
5.06885e-06
0.000345891
4.61759e-06
-3.21057e-06
-2.22345e-06
4.30372e-06
7.55018e-06
1.87689e-06
-4.81095e-05
4.37513e-07
-1.15097e-06
7.01756e-07
4.64069e-05
9.00264e-09
4.61667e-06
-8.67193e-07
9.61382e-07
-6.38452e-06
1.66466e-06
-2.4983e-05
-1.62751e-06
2.12161e-06
2.39749e-06
2.35676e-05
-1.47619e-06
-6.0162e-07
1.34568e-06
0.000114305
-3.37063e-06
-3.17117e-06
-2.61702e-06
-2.92452e-06
1.21398e-06
1.42038e-06
1.20655e-06
-7.71237e-06
-1.10259e-06
0.000186433
-3.90864e-06
-5.95211e-06
-4.41741e-06
-1.21022e-06
-5.74152e-07
-1.05542e-06
-8.71733e-05
-8.37169e-06
4.65265e-06
8.82489e-05
-7.05479e-05
-1.26317e-05
6.89791e-06
7.62817e-05
-2.68142e-05
-1.18325e-06
2.8994e-06
2.64437e-05
-5.18259e-05
-1.56822e-06
-2.75121e-06
1.82649e-07
5.486e-05
-4.69523e-05
-2.04698e-06
3.37339e-06
4.56259e-05
-9.06207e-06
-4.16858e-07
3.95689e-07
9.07923e-06
-3.72157e-06
1.71158e-06
-1.19497e-06
3.20542e-06
-3.27651e-07
-2.41281e-06
-1.32336e-05
3.39185e-06
1.68264e-06
1.08995e-05
-5.53441e-07
-5.034e-05
-4.82573e-06
4.34322e-06
3.52148e-07
5.10238e-05
-4.70961e-05
2.33111e-07
-2.4845e-07
3.48901e-07
4.80308e-05
-1.26831e-06
5.96834e-07
-3.0841e-06
-2.06127e-05
5.68999e-06
1.9423e-06
1.54677e-05
6.57379e-06
-1.19685e-06
0.000149725
-1.27532e-06
3.02458e-07
-1.03058e-06
1.25667e-06
-3.77946e-06
-4.2724e-06
-3.38643e-06
-2.74318e-06
-2.20659e-06
9.91654e-06
0.000176902
-9.59405e-07
-2.8792e-06
2.22766e-07
-1.60775e-06
-5.1312e-06
1.79861e-05
0.000255587
-1.81905e-06
-2.15153e-06
-4.15483e-07
-1.28106e-06
-5.27322e-06
-3.24875e-06
-4.38722e-06
-4.45141e-05
-6.38448e-07
-2.62671e-06
4.2648e-05
-1.27335e-06
5.64946e-07
-2.2529e-07
9.33113e-07
-1.24376e-06
-3.90054e-05
-1.86667e-06
1.95343e-06
1.2231e-06
3.89393e-05
-2.71626e-06
7.71174e-07
0.000143568
-1.7262e-06
-1.81081e-06
-8.1097e-08
-4.01335e-07
-7.56858e-06
4.29731e-06
0.000204403
-5.15687e-06
4.42826e-06
0.000354533
-5.44558e-06
-4.23865e-06
-2.11672e-06
2.05556e-06
7.88142e-06
4.36802e-06
-6.66735e-05
4.92803e-07
-3.71057e-06
-1.83338e-07
6.49177e-05
-2.18345e-05
-4.96499e-07
1.34544e-06
1.46833e-06
2.00119e-05
-4.94694e-07
-2.7106e-06
1.4805e-06
0.000121214
-2.90683e-06
-2.58156e-06
-1.58192e-06
-1.71409e-06
1.12952e-06
1.38945e-06
1.35674e-06
-8.43676e-06
-1.75374e-07
0.000212575
-5.30037e-06
-5.05107e-06
-5.17293e-06
-4.34095e-07
1.97729e-07
-1.8231e-07
-9.35197e-05
-8.54778e-06
5.43623e-06
9.26228e-05
-7.35239e-05
4.21069e-06
8.42271e-06
6.08905e-05
-2.64749e-05
-1.70705e-07
1.49603e-06
2.66299e-05
-5.7473e-05
-7.78708e-07
-2.53396e-06
8.16806e-07
5.97935e-05
-4.4727e-05
-3.13062e-06
3.57051e-06
4.42871e-05
-8.98436e-06
-9.07764e-08
1.78988e-07
8.89615e-06
-2.57821e-06
1.76734e-06
-1.17828e-06
1.98862e-06
-2.39011e-07
-1.75368e-06
-9.03636e-06
2.41145e-06
8.0611e-07
7.81148e-06
-2.73591e-07
-5.15582e-05
-4.25095e-06
3.80943e-06
3.5416e-07
5.19192e-05
-4.88714e-05
1.10263e-06
-5.20431e-07
1.51249e-07
4.92355e-05
-1.09758e-06
1.86775e-07
-1.55703e-06
-1.21546e-05
3.261e-06
3.17908e-08
1.0232e-05
1.66577e-06
-2.74611e-06
0.00015788
-8.09501e-07
7.28048e-07
-4.45992e-07
1.82637e-06
-2.70063e-06
-2.60971e-06
-2.04271e-06
-1.02059e-06
-2.42377e-06
7.1443e-06
0.000177746
-6.1848e-07
-2.53865e-06
5.57658e-07
-1.29868e-06
-2.02236e-06
1.46883e-05
0.000248244
-1.5352e-06
-1.05589e-06
-2.66026e-07
-8.79949e-07
-1.71935e-06
-1.60989e-06
-6.80532e-07
-4.08418e-05
1.14758e-06
-1.88455e-06
3.95564e-05
-9.09715e-07
7.2855e-07
-6.21945e-07
8.03365e-07
-2.47249e-07
-3.90812e-05
5.14065e-07
3.32563e-07
-3.19546e-07
3.88013e-05
-4.41723e-06
-1.19264e-06
0.000146745
-4.85222e-07
-1.1326e-06
9.73188e-07
3.30493e-07
-4.21969e-06
2.3137e-06
0.000209036
-5.70485e-07
4.4134e-06
0.000343619
-1.0124e-08
9.81717e-07
7.73137e-07
3.9346e-06
7.4033e-06
4.45732e-06
-6.10574e-05
4.31734e-07
1.70856e-06
-1.5875e-06
5.99341e-05
-1.90307e-05
-1.68278e-08
-1.32689e-07
4.51569e-07
1.86478e-05
8.08718e-08
-6.90908e-06
1.18816e-06
0.000124469
-1.04358e-06
-6.20119e-07
1.12071e-07
-1.86926e-07
9.59152e-07
1.08649e-06
9.66943e-07
-7.65237e-06
1.38547e-07
0.000230941
-5.91763e-06
-4.34968e-06
-5.72073e-06
-1.59922e-08
5.56174e-07
3.42805e-10
-9.54648e-05
-5.28234e-06
5.632e-06
9.18762e-05
-5.80147e-05
-1.21096e-06
3.03713e-06
5.61885e-05
-2.65702e-05
6.91568e-07
4.67459e-07
2.65993e-05
-6.21589e-05
8.82399e-08
-3.17759e-06
1.14255e-06
6.42443e-05
-4.42386e-05
-4.11011e-06
4.14376e-06
4.4205e-05
-8.93034e-06
2.7277e-07
-6.18774e-07
9.27634e-06
-1.52685e-06
1.98306e-06
-1.46277e-06
1.00614e-06
-1.50875e-07
-1.96983e-06
-7.44505e-06
2.16896e-06
-2.19566e-07
7.61637e-06
3.959e-07
-5.20797e-05
-4.08563e-06
3.43228e-06
3.34553e-07
5.20026e-05
-4.93197e-05
2.09353e-06
-8.94845e-07
-4.17413e-09
4.889e-05
-7.64811e-07
4.22418e-07
-9.01029e-07
-8.93286e-06
2.36081e-06
-7.76968e-07
7.82764e-06
-3.02006e-06
-3.13018e-06
0.000165694
-3.48271e-07
6.38234e-07
-2.09311e-08
1.63183e-06
-1.42983e-06
-1.0937e-06
-1.21491e-06
1.7421e-07
-2.75302e-06
4.99008e-06
0.000175737
-4.338e-07
-2.41141e-06
7.35349e-07
-1.13869e-06
-1.5558e-06
1.08629e-05
0.000241928
-1.43355e-06
-6.63777e-07
-4.48466e-07
-4.83111e-07
-7.45434e-07
-1.49571e-06
-4.73372e-07
-3.86002e-05
1.39164e-06
-2.17876e-06
3.78315e-05
-7.03709e-07
8.77731e-07
-1.00689e-06
8.31447e-07
8.89895e-07
-3.84379e-05
1.98285e-06
-1.1302e-06
-1.12036e-06
3.78157e-05
-5.22519e-06
-3.50237e-06
0.000149278
5.66848e-07
-5.24437e-07
1.89727e-06
1.12528e-06
-1.79035e-06
-3.21708e-07
0.000210913
1.20404e-06
3.67485e-06
0.000331388
9.06936e-07
1.50181e-06
7.69525e-07
3.54243e-06
6.08669e-06
3.61662e-06
-6.11302e-05
7.6997e-07
2.07132e-06
-3.00182e-06
6.24947e-05
-1.90528e-05
4.53683e-07
-9.57117e-07
-9.61385e-07
1.95041e-05
1.01352e-06
-1.00151e-05
7.20107e-07
0.000127627
4.74841e-08
3.2901e-07
6.32036e-07
4.09659e-07
3.71114e-07
6.23431e-07
2.21252e-07
-7.284e-06
2.42919e-07
0.000244102
-6.42193e-06
-4.1212e-06
-6.05238e-06
-3.30742e-08
3.28265e-07
-1.56636e-07
-9.34285e-05
-4.58952e-06
5.40287e-06
8.9006e-05
-5.45478e-05
-1.77725e-07
1.87126e-06
5.28543e-05
-2.6923e-05
1.06371e-06
-6.56612e-07
2.72356e-05
-6.63774e-05
1.19072e-06
-4.05395e-06
1.61647e-06
6.7867e-05
-4.42681e-05
-5.45365e-06
5.09004e-06
4.46317e-05
-9.95523e-06
1.59451e-06
-2.24411e-06
1.06048e-05
-5.1155e-07
1.63433e-06
-1.32676e-06
2.03169e-07
-7.25747e-07
-1.79906e-06
-8.36113e-06
1.91675e-06
-6.71175e-07
9.64036e-06
6.91294e-07
-5.17955e-05
-3.4675e-06
2.92578e-06
1.5997e-07
5.14859e-05
-4.81606e-05
2.69792e-06
-1.16544e-06
-3.12637e-08
4.69648e-05
-3.05368e-07
6.92481e-07
-7.74451e-07
-7.06733e-06
1.78496e-06
-1.39515e-06
6.75949e-06
-5.91875e-06
-4.26624e-06
0.000173337
4.5086e-07
8.14202e-07
7.44164e-07
1.89432e-06
-1.00213e-06
-4.08566e-07
-8.13461e-07
8.62769e-07
-2.40349e-06
3.62373e-06
0.000171005
-2.54517e-07
-2.25505e-06
1.08092e-06
-9.78189e-07
-1.20881e-06
7.28628e-06
0.000237074
-1.49908e-06
-1.05853e-07
-3.76108e-07
8.25317e-08
-3.74066e-07
-1.23285e-06
-1.22057e-07
-3.72129e-05
1.78299e-06
-2.72041e-06
3.69415e-05
-1.2072e-06
1.15481e-06
-1.57578e-06
1.62903e-06
1.85673e-06
-3.71767e-05
2.32908e-06
-2.07085e-06
-1.42714e-06
3.64888e-05
-5.78016e-06
-5.62019e-06
0.000150158
1.25911e-06
4.37888e-07
2.51998e-06
2.03697e-06
-1.41854e-06
-3.07057e-06
0.000213246
1.35548e-06
2.51244e-06
0.000320864
5.95818e-07
1.51547e-06
3.88899e-07
2.81317e-06
4.48327e-06
2.72721e-06
-6.39013e-05
1.24692e-06
2.59797e-06
-3.61552e-06
6.50274e-05
-1.98498e-05
5.96039e-07
-8.86747e-07
-1.12668e-06
2.01934e-05
1.07383e-06
-1.09077e-05
3.80768e-07
0.00013105
2.36725e-07
5.8067e-07
9.57648e-07
5.67498e-07
-4.77108e-07
2.90814e-07
-6.72066e-07
-6.67342e-06
-4.89559e-07
0.000254689
-6.38676e-06
-3.42618e-06
-6.0423e-06
-3.01706e-07
-9.91117e-07
-2.5458e-07
-8.94797e-05
-4.077e-06
4.72135e-06
8.46744e-05
-5.11093e-05
6.78592e-07
1.59851e-06
4.88322e-05
-2.76802e-05
1.07675e-06
-1.16216e-06
2.81465e-05
-6.94375e-05
1.63856e-06
-4.43904e-06
1.10179e-06
7.06467e-05
-4.51183e-05
-6.08225e-06
5.79936e-06
4.54012e-05
-1.12014e-05
2.24225e-06
-2.5519e-06
1.15111e-05
-1.76401e-08
3.38835e-07
-4.14428e-07
9.34557e-08
-8.70062e-07
-5.98835e-07
-1.11227e-05
1.54579e-06
-1.1137e-06
1.21595e-05
1.02869e-06
-5.14157e-05
-2.33471e-06
2.06393e-06
-5.1013e-07
5.11679e-05
-4.55115e-05
3.17313e-06
-1.64897e-06
-3.43381e-07
4.3916e-05
4.14741e-07
-5.35842e-08
-2.68666e-07
-6.89384e-06
1.00965e-06
-1.06928e-06
7.27571e-06
-6.98147e-06
-3.39047e-06
0.000180535
7.98269e-07
6.37235e-07
1.05679e-06
1.90474e-06
-1.07938e-06
-1.75155e-07
-9.42425e-07
9.72971e-07
-2.33166e-06
1.90464e-06
0.00016573
1.9506e-07
-2.01018e-06
1.39606e-06
-8.59849e-07
-1.07154e-06
4.06308e-06
0.000232582
-1.14657e-06
4.76904e-07
1.07866e-07
6.64883e-07
-4.89363e-08
-1.10154e-06
2.16225e-07
-3.66043e-05
2.08066e-06
-2.92703e-06
3.63792e-05
-2.09972e-06
1.4648e-06
-1.99539e-06
2.62787e-06
2.36584e-06
-3.59292e-05
2.1807e-06
-2.69768e-06
-1.52847e-06
3.56088e-05
-6.38227e-06
-6.11308e-06
0.000150586
1.76486e-06
1.26191e-06
3.09234e-06
2.55745e-06
-2.04923e-06
-5.71707e-06
0.000216535
1.40553e-06
7.91907e-07
0.00031243
3.85774e-07
1.75337e-06
2.63764e-07
1.88161e-06
2.45676e-06
1.51001e-06
-6.63761e-05
1.45044e-06
2.74127e-06
-3.88751e-06
6.74774e-05
-2.08451e-05
4.23101e-07
-9.03284e-07
-9.23748e-07
2.12495e-05
9.99598e-07
-1.03766e-05
5.43266e-08
0.000134968
3.38706e-07
5.83044e-07
1.0489e-06
5.1408e-07
-1.13707e-06
-2.08022e-08
-1.03542e-06
-5.68681e-06
-1.8322e-06
0.000263132
-6.28241e-06
-2.52329e-06
-5.76391e-06
-3.86892e-07
-1.56908e-06
-4.91269e-07
-8.45753e-05
-3.40366e-06
3.37424e-06
7.97098e-05
-4.59631e-05
1.29113e-06
2.0834e-06
4.25886e-05
-2.8795e-05
1.24033e-06
-1.73138e-06
2.93404e-05
-7.22388e-05
2.129e-06
-5.164e-06
-3.40687e-07
7.37823e-05
-4.53699e-05
-5.92953e-06
6.32512e-06
4.49743e-05
-1.16848e-05
2.4214e-06
-2.61261e-06
1.1876e-05
-6.89883e-08
-5.06358e-07
3.65141e-07
2.09651e-07
-4.67373e-07
9.87021e-07
-1.30632e-05
2.60604e-07
-1.27037e-06
1.35533e-05
1.56588e-06
-5.10895e-05
-1.31177e-06
7.76048e-07
-1.0514e-06
5.11107e-05
-4.2387e-05
3.09226e-06
-2.26435e-06
-7.46801e-07
4.10415e-05
1.2644e-06
-7.94957e-07
-4.39482e-07
-7.77446e-06
8.95256e-07
-2.40723e-07
8.35436e-06
-7.28304e-06
-3.24698e-07
0.000186441
5.02799e-07
4.4438e-07
6.23395e-07
1.7172e-06
-1.19954e-06
-3.87417e-07
-1.04057e-06
1.04189e-06
-3.86581e-06
-6.2089e-09
0.000163054
3.88711e-07
-1.82343e-06
1.35233e-06
-6.52988e-07
-1.22068e-06
1.56986e-06
0.000226879
-4.98917e-07
1.00467e-06
9.17376e-07
1.12639e-06
-6.69948e-09
-1.21731e-06
1.6311e-07
-3.61065e-05
2.32259e-06
-3.16761e-06
3.57308e-05
-3.17374e-06
1.43443e-06
-1.74632e-06
3.48344e-06
2.70775e-06
-3.57394e-05
1.65886e-06
-3.1307e-06
-1.459e-06
3.59625e-05
-6.71455e-06
-5.41086e-06
0.000152712
2.11537e-06
1.52316e-06
3.33552e-06
2.7012e-06
-2.88391e-06
-7.66074e-06
0.000220359
1.59883e-06
-9.76727e-07
0.000306099
2.41033e-07
1.80572e-06
1.41405e-07
6.99809e-07
1.04401e-06
4.62375e-07
-6.87379e-05
1.55991e-06
3.01958e-06
-3.80807e-06
6.95653e-05
-2.08095e-05
1.25615e-06
-8.65183e-07
-5.64463e-07
2.02663e-05
7.16664e-07
-9.44781e-06
-2.90555e-07
0.000139526
4.67926e-07
5.1147e-07
1.16863e-06
4.08651e-07
-1.29222e-06
-3.71657e-07
-1.12399e-06
-4.5882e-06
-1.77711e-06
0.000267962
-5.58963e-06
-1.61773e-06
-4.97163e-06
-9.36694e-07
-1.26598e-06
-1.19233e-06
-7.95913e-05
-2.52775e-06
1.32544e-06
7.52287e-05
-3.93225e-05
1.41966e-06
1.37071e-06
3.65321e-05
-2.99046e-05
1.46239e-06
-2.05811e-06
3.02098e-05
-7.53756e-05
2.54397e-06
-5.32701e-06
4.87067e-07
7.58944e-05
-4.41156e-05
-4.9569e-06
6.35992e-06
4.27126e-05
-1.20854e-05
2.03205e-06
-2.33213e-06
1.23855e-05
-4.46632e-07
-6.4461e-07
2.84825e-07
8.05984e-07
-5.40643e-07
1.20902e-06
-1.37655e-05
-2.80745e-07
-6.44958e-07
1.40228e-05
1.81658e-06
-5.13064e-05
-1.14236e-06
3.6023e-07
-1.0374e-06
5.13094e-05
-4.02694e-05
2.81467e-06
-2.70052e-06
-1.34045e-06
4.00274e-05
1.46829e-06
-8.2598e-07
-1.64777e-06
-9.26857e-06
1.29534e-06
-6.04616e-08
1.05074e-05
-7.48917e-06
1.01372e-06
0.00019017
6.78005e-07
2.47565e-07
1.04356e-06
1.3496e-06
-9.28846e-07
-2.00071e-07
-6.93232e-07
1.24989e-06
-5.73933e-06
-1.32818e-06
0.000162964
1.96258e-07
-1.45855e-06
1.19039e-06
-2.60079e-07
-1.42642e-06
-5.86621e-07
0.00021985
3.91881e-07
1.42645e-06
1.6567e-06
1.46494e-06
-1.98162e-07
-1.35139e-06
-8.83243e-08
-3.54172e-05
2.57548e-06
-3.70607e-06
3.51213e-05
-3.66857e-06
1.32256e-06
-1.70798e-06
4.0519e-06
2.92753e-06
-3.64106e-05
1.21128e-06
-3.36061e-06
-1.05099e-06
3.66834e-05
-7.07838e-06
-5.19509e-06
0.000155389
2.25021e-06
1.84155e-06
3.3697e-06
3.14864e-06
-3.45785e-06
-8.73122e-06
0.000224141
1.33521e-06
-1.82191e-06
0.000300577
1.2367e-07
1.50879e-06
3.61612e-08
-1.06497e-07
5.1762e-07
-1.15678e-07
-7.02127e-05
2.0746e-06
3.05175e-06
-3.56696e-06
6.99885e-05
-1.98727e-05
1.13064e-06
-7.82532e-07
-4.21937e-07
1.95944e-05
3.52108e-07
-8.70627e-06
-5.58658e-07
0.000144076
6.31618e-07
4.65194e-07
1.42899e-06
2.81195e-07
-1.40381e-06
-6.69189e-07
-1.21334e-06
-3.73623e-06
-1.65286e-06
0.000270696