/*--------------------------------*- C++ -*----------------------------------*\
| =========                 |                                                 |
| \\      /  F ield         | OpenFOAM: The Open Source CFD Toolbox           |
|  \\    /   O peration     | Version:  5.x                                   |
|   \\  /    A nd           | Web:      www.OpenFOAM.org                      |
|    \\/     M anipulation  |                                                 |
\*---------------------------------------------------------------------------*/
FoamFile
{
    version     2.0;
    format      ascii;
    class       volVectorField;
    location    "4";
    object      U;
}
// * * * * * * * * * * * * * * * * * * * * * * * * * * * * * * * * * * * * * //

dimensions      [0 1 -1 0 0 0 0];

internalField   nonuniform List<vector> 
10571
(
(0.154709 0.516141 1.93965)
(0.130432 0.143054 1.02148)
(1.04219 0.925682 2.8371)
(-1.26042 1.34785 3.85503)
(-0.683182 -0.260651 1.68028)
(0.171707 1.57071 2.77037)
(1.19144 0.678361 4.05308)
(-2.27435 0.424018 3.39478)
(-0.995387 0.132582 1.33933)
(-0.000762658 0.106543 1.68224)
(0.572357 0.576885 3.83109)
(-0.130071 -0.251657 3.29866)
(0.79891 -0.338644 4.26197)
(-1.91762 -0.123614 4.26287)
(-1.46497 0.70147 2.34777)
(-0.464121 1.01847 2.53899)
(0.0183523 -0.146997 2.80775)
(0.121989 -0.164536 2.33185)
(-0.112672 -0.779381 4.06086)
(-1.09706 0.586855 3.07583)
(-0.503918 0.425376 1.5912)
(-0.856014 -0.10047 2.31593)
(0.328556 -0.748113 2.68502)
(-0.00492239 -0.07051 1.93424)
(-0.0642862 0.0871137 0.515108)
(0.117908 -0.186934 0.699963)
(-0.306511 0.143145 1.88632)
(0.224177 1.0083 4.67118)
(-0.498582 0.301021 1.93646)
(0.357562 -0.154897 1.71439)
(0.745089 -1.67181 4.76869)
(1.80979 -0.384052 4.4792)
(-0.028321 0.332793 1.27454)
(-0.351658 0.17164 1.28816)
(0.135321 0.478046 3.07282)
(-0.496032 -0.822502 3.02239)
(0.593293 -0.202972 2.83991)
(2.75968 0.406091 5.18534)
(0.481337 0.26563 2.55)
(-0.344632 0.442886 1.29191)
(-0.0679653 0.239014 2.09008)
(0.283768 0.0566649 2.37179)
(2.10069 0.129834 4.65419)
(1.6736 -1.22536 4.8936)
(0.00569235 0.188145 1.29007)
(0.0759203 -0.512428 2.23318)
(0.199957 -0.388936 1.23084)
(0.287851 -0.158699 1.14078)
(-0.117527 -0.044763 0.266039)
(-0.392118 0.537621 1.18587)
(-1.48629 -0.210411 2.39671)
(1.10293 -0.207106 3.507)
(0.932858 0.268478 1.83391)
(-0.366609 -0.486466 2.17274)
(-0.192397 -0.35084 2.63629)
(1.17926 0.518925 2.67651)
(1.97239 1.82013 2.73249)
(0.0416083 0.453588 0.732064)
(-0.0174124 -0.96174 1.65846)
(0.666956 -0.583018 3.8586)
(0.095952 0.0334342 1.40025)
(1.09767 0.333403 2.26797)
(2.70695 0.100095 3.83056)
(0.667866 -0.0758961 2.62982)
(0.0190563 -0.0452775 1.78034)
(0.133745 0.247068 1.4605)
(1.33402 0.661624 2.68556)
(1.44215 0.0867253 2.389)
(1.15541 -0.583053 3.50558)
(0.145085 -0.116612 1.71434)
(0.634972 -0.117612 1.20351)
(1.50509 -0.0302215 2.74062)
(0.0420688 0.0749465 0.625156)
(-0.330078 0.193068 0.368323)
(-0.590029 -0.407924 2.61032)
(0.0648057 -0.381365 1.08133)
(0.2462 0.0744055 0.765405)
(-0.494047 -1.95831 3.92463)
(-0.0997409 0.43071 2.87097)
(0.654052 0.48929 2.09083)
(1.64049 1.03258 3.41359)
(0.240172 -0.462658 1.93972)
(-0.0115659 -0.233659 0.603034)
(1.21229 0.0207761 3.64262)
(0.152115 0.262653 1.29763)
(0.311725 0.18693 1.86712)
(1.9577 0.031143 3.70358)
(0.427788 -0.556561 2.74335)
(-0.0435579 0.116957 1.87907)
(0.170082 0.162186 1.01107)
(0.114903 0.196027 1.44244)
(1.39881 -0.0143163 3.56735)
(0.371186 -0.247294 5.18299)
(0.224817 0.0487787 1.52634)
(0.0651339 0.160234 0.806686)
(0.98371 0.0742954 4.12108)
(0.315303 0.00712801 -0.0270882)
(0.406989 -0.505815 1.24022)
(0.175729 -0.147482 2.09781)
(0.323607 0.481446 2.08767)
(0.0421102 0.0511573 0.694703)
(-0.255136 -1.1116 3.91789)
(0.137536 0.160298 1.58092)
(0.64539 0.594581 2.74279)
(0.678576 0.876041 3.15497)
(-0.463917 -1.00656 2.28378)
(0.0303789 0.213554 0.913937)
(-0.0332804 0.21518 2.88719)
(0.186266 0.40762 1.84234)
(-0.087349 0.167344 2.19265)
(0.519768 0.133111 3.70509)
(-0.0817296 -0.377256 2.73652)
(-0.0358028 0.129274 1.48387)
(0.368252 -0.0501332 1.7812)
(-0.536173 -0.390894 1.63699)
(0.522193 0.205407 3.09529)
(-0.00570065 0.116574 6.14822)
(0.608646 0.724421 2.01449)
(0.130792 -0.220483 0.718929)
(0.359156 0.120039 4.8527)
(0.191877 -0.13382 0.41795)
(0.322456 -0.38427 1.31088)
(0.241752 -0.289678 1.31612)
(0.717297 -0.0625577 1.75047)
(0.034906 -0.134491 1.07141)
(-0.149685 -0.250045 2.67579)
(0.220136 0.123857 1.92616)
(0.211484 0.573802 1.7398)
(0.357094 0.712543 3.00954)
(-0.419606 -0.716563 2.34182)
(-0.00805861 0.00238246 -0.00271078)
(0.0656098 0.460933 0.607965)
(0.0693055 0.45317 1.77947)
(0.229981 -0.240907 1.38722)
(-0.102151 0.110996 1.53971)
(0.452722 0.317296 3.65973)
(-0.317835 -0.394603 2.62326)
(0.0145413 0.00251582 0.00153005)
(0.247715 -0.238892 0.956769)
(0.406521 0.00758409 0.94285)
(-0.19323 -0.129091 0.915754)
(-0.114648 0.446654 3.17959)
(-0.0198671 0.350609 6.13909)
(0.765503 0.161871 2.01361)
(0.583169 -0.50751 0.848956)
(0.210289 0.139154 4.72279)
(0.228274 -0.00105141 0.778425)
(0.316116 -0.175705 0.752106)
(0.439113 -0.0492383 1.01614)
(0.661038 -0.0409505 1.9624)
(-0.090519 -0.0405539 1.33942)
(0.295124 0.174926 2.20126)
(0.277164 0.134412 1.32263)
(0.232562 0.457094 1.6705)
(0.188014 0.609166 3.06792)
(0.115905 -0.360776 2.19441)
(-0.220741 0.0653334 0.0253724)
(0.00912521 0.253726 0.462336)
(0.377349 0.161916 1.83451)
(0.191528 -0.131663 1.21011)
(-0.0211319 0.154878 1.63315)
(0.369521 0.425407 3.78515)
(-0.157894 -0.230823 2.57953)
(-0.135307 0.0877526 -0.0874454)
(0.0786112 0.0651802 1.05343)
(0.22547 0.138068 0.9272)
(-0.116482 -0.0326555 1.1607)
(-0.196571 0.489526 3.37876)
(0.220781 0.494013 5.90923)
(-0.888364 -0.00483534 0.0374482)
(0.550352 0.0786505 1.7033)
(0.483231 -0.237673 1.41837)
(0.0848435 0.190917 4.5973)
(0.233612 -0.0229984 1.04523)
(0.226846 -0.197611 0.497174)
(0.419138 -0.0877137 0.888448)
(0.564209 0.0145879 2.06227)
(-0.0412409 0.0203981 1.59525)
(0.270072 0.242644 1.77548)
(0.191198 0.0986747 1.27609)
(0.226369 0.366063 1.72797)
(0.0710518 0.52317 2.96781)
(0.167716 -0.0571084 2.19437)
(-0.00380062 0.127559 0.183749)
(0.00213906 0.196253 0.442511)
(0.333378 0.195118 1.82507)
(0.143078 -0.00704459 1.30998)
(-0.0260967 0.185687 1.85834)
(0.204592 0.426948 3.87993)
(-0.198015 -0.126561 2.22237)
(-0.118061 0.107269 -0.105124)
(0.168181 0.135419 1.08427)
(0.249361 0.117872 1.16377)
(-0.203058 -0.00624667 1.55345)
(-0.346289 0.512292 3.63756)
(0.0676789 0.413753 5.43189)
(0.926344 0.264663 0.654719)
(0.30882 0.137293 1.41241)
(0.309986 -0.153611 1.83797)
(0.0197552 0.171057 4.46326)
(0.154316 -0.004352 1.24011)
(0.169425 -0.105442 0.29567)
(0.337599 0.0728746 0.761005)
(0.47979 0.0995592 2.16272)
(-0.0267926 0.0628308 1.75854)
(0.503466 0.139471 1.38947)
(0.204537 0.101164 1.42186)
(0.146406 0.303184 1.73959)
(-0.0430953 0.453141 2.83233)
(0.0701145 -0.0053459 2.1737)
(0.149599 -0.0282209 0.136501)
(0.0442041 0.123323 0.426482)
(0.284509 0.201989 1.74317)
(0.0809651 -0.0202114 1.44321)
(-0.0881857 0.159427 1.95849)
(0.043596 0.400616 3.84661)
(-0.266939 -0.00882301 2.24265)
(0.0902379 -0.365099 0.101762)
(0.104603 0.0669242 0.973364)
(0.226142 0.0980015 1.14911)
(-0.251955 0.0211163 1.86817)
(-0.467248 0.52291 3.92085)
(-0.195023 0.225971 5.37381)
(0.240856 0.089417 1.34385)
(0.206319 -0.0842873 2.12129)
(-0.0320364 0.120803 4.23072)
(0.0770205 0.024425 1.30249)
(0.0597416 -0.0289009 0.25361)
(0.149166 0.12502 0.529071)
(0.3963 0.130348 2.23434)
(-0.0594764 0.068797 1.85754)
(0.419214 0.0601835 0.791531)
(0.154532 0.0540842 1.48348)
(0.0587549 0.251529 1.78475)
(-0.0445328 0.3337 2.6836)
(-0.196355 -0.149328 2.10963)
(-0.00948735 -0.0534846 0.15125)
(0.163178 0.104465 1.68636)
(0.035572 -0.0877869 1.44752)
(-0.130614 0.116353 2.08334)
(0.0319825 0.349295 3.7534)
(-0.327911 -0.0466761 2.42294)
(0.0211995 0.00344088 0.814868)
(0.195779 0.10152 1.20892)
(-0.298577 0.0301376 2.127)
(-0.45338 0.52315 4.08355)
(-0.0812504 0.304816 5.45415)
(0.153604 0.101305 1.35614)
(0.160382 -0.0147697 2.30703)
(-0.136638 0.162275 4.06034)
(0.0535618 0.0447048 1.27116)
(0.0615298 -0.0684273 0.164045)
(0.0707075 0.0224517 0.35759)
(0.34041 0.141473 2.28884)
(-0.0733248 0.0401795 1.92425)
(0.196718 0.0519599 0.484523)
(0.0978357 0.0289633 1.54331)
(-0.0443379 0.202533 1.80846)
(0.00190488 0.270946 2.63602)
(-0.181155 -0.139762 2.03782)
(-0.0120851 -0.0895688 0.129549)
(0.0520244 -0.0215097 1.70644)
(-0.0149845 -0.123603 1.47183)
(-0.146611 0.0617108 2.10513)
(0.0758761 0.263006 3.66908)
(-0.00478622 -0.118309 2.40757)
(-0.0297067 0.00276478 0.736134)
(0.103052 0.0698191 1.30079)
(-0.353523 0.00871152 2.33639)
(-0.412657 0.513493 4.08854)
(-0.0424228 0.264834 5.10537)
(0.0697763 0.0942019 1.33595)
(0.0578295 0.0198221 2.47325)
(-0.24373 0.216005 4.02772)
(-0.00455494 0.0342473 1.28773)
(0.0758047 -0.0879381 0.0973165)
(0.0721095 -0.0602561 0.327318)
(0.321647 0.136722 2.29064)
(-0.101848 -0.00032098 1.9205)
(0.146664 0.0351978 0.372148)
(-0.0029172 0.0248548 1.59268)
(-0.113604 0.175368 1.79209)
(0.0289955 0.209089 2.60136)
(-0.175526 -0.169483 1.92304)
(-0.0237102 -0.0976352 0.106575)
(-0.0525122 -0.109035 1.66763)
(-0.0524621 -0.135633 1.47783)
(-0.141392 0.00573282 2.12624)
(0.0975467 0.173716 3.57526)
(0.0875136 -0.135966 2.4247)
(-0.0752654 -0.0643288 0.776363)
(0.0162536 0.00502888 1.33074)
(-0.380507 -0.0267808 2.50307)
(-0.393841 0.477691 3.98482)
(-0.0347206 0.193051 4.87573)
(0.0066055 0.0759368 1.36422)
(-0.0340672 0.0428083 2.62935)
(-0.384215 0.291491 4.04477)
(-0.205777 -0.0216307 1.46916)
(0.0707458 -0.0996264 0.029845)
(0.0872738 -0.0594788 0.391927)
(0.295857 0.124303 2.27218)
(-0.125374 -0.0395978 1.86409)
(0.0895117 -0.0441881 0.301459)
(-0.0603403 -0.0219349 1.6813)
(-0.155917 0.164234 1.74928)
(0.0707512 0.151276 2.54553)
(-0.155928 -0.199327 1.86613)
(-0.0408858 -0.145124 0.20727)
(-0.125554 -0.149397 1.62451)
(-0.0684828 -0.129618 1.49877)
(-0.143607 -0.0402235 2.14976)
(0.0878648 0.0993301 3.46966)
(0.115069 -0.152655 2.51698)
(-0.0744067 -0.065564 0.779342)
(-0.0261303 -0.0570399 1.36722)
(-0.373334 -0.0666385 2.62881)
(-0.355209 0.382347 3.806)
(-0.0319225 0.116356 4.58301)
(-0.0169208 0.0702667 1.40381)
(-0.076624 -0.00696665 2.74188)
(-0.496562 0.34426 4.13386)
(-0.291971 -0.0268277 1.63115)
(0.0380597 -0.0567039 0.00365525)
(0.0693383 -0.0791918 0.52345)
(0.226408 0.0730362 2.2596)
(-0.162335 -0.0855015 1.74969)
(0.00713313 -0.0162135 0.307816)
(-0.0634222 -0.0201251 1.77901)
(-0.185418 0.141529 1.67651)
(0.101314 0.0860617 2.48002)
(-0.152662 -0.220044 1.84375)
(-0.0685712 -0.153305 0.336801)
(-0.181695 -0.162567 1.56908)
(-0.083563 -0.101322 1.51021)
(-0.150553 -0.082305 2.16391)
(0.0745362 0.0513603 3.35141)
(0.121921 -0.173977 2.63509)
(-0.0751755 -0.0540516 0.856565)
(-0.0363668 -0.0939453 1.40054)
(-0.350086 -0.106514 2.72773)
(-0.273333 0.210015 3.58382)
(-0.073546 0.0384205 4.03143)
(-0.0370647 0.05321 1.46083)
(-0.130191 -0.130553 2.87288)
(-0.554892 0.333093 4.12416)
(-0.26902 -0.0400686 1.68802)
(-0.000257823 -0.0273195 0.00172748)
(-0.0692154 -0.0869018 0.5964)
(0.118053 0.0094599 2.25534)
(-0.192789 -0.106676 1.62759)
(0.00880782 0.0255238 0.360406)
(-0.0463041 0.0494453 1.84217)
(-0.212414 0.103794 1.6521)
(0.0810065 0.0203186 2.42738)
(-0.15445 -0.240184 1.82137)
(-0.0438741 -0.162275 0.51222)
(-0.217092 -0.172613 1.57547)
(-0.0903455 -0.0600052 1.53256)
(-0.158022 -0.105324 2.21266)
(0.0603603 0.0346578 3.26234)
(0.139662 -0.174693 2.72361)
(-0.0705814 -0.0506689 0.829753)
(-0.0565294 -0.112667 1.4472)
(-0.304106 -0.147156 2.80284)
(-0.184106 0.0206277 3.36637)
(-0.0317842 -0.00880336 3.43894)
(-0.0554416 0.0304943 1.52665)
(-0.174421 -0.0958256 2.98046)
(-0.563076 0.281421 3.96738)
(-0.18862 -0.0519483 1.74103)
(-0.00839738 -0.0417954 0.0401063)
(-0.117789 0.0371132 0.618487)
(0.0775779 -0.0427956 2.25201)
(-0.203075 -0.120558 1.56608)
(0.0910523 0.00183164 0.43964)
(-0.0469767 0.0785858 1.87796)
(-0.222724 0.0523031 1.62016)
(0.0339634 -0.0461446 2.35296)
(-0.147686 -0.26845 1.77682)
(-0.0396154 -0.157445 0.551928)
(-0.234391 -0.163664 1.60827)
(-0.107388 -0.0441789 1.54487)
(-0.157111 -0.104109 2.25153)
(0.0450669 0.0278007 3.20371)
(0.115199 -0.181524 2.76101)
(-0.0563774 -0.048825 0.785398)
(-0.085915 -0.128901 1.49549)
(-0.249742 -0.18437 2.84818)
(-0.128148 -0.0808274 3.21016)
(0.0365755 -0.0288217 3.06379)
(-0.0594245 0.0137418 1.52988)
(-0.152933 -0.0606298 2.985)
(-0.480329 0.206296 3.64878)
(-0.110477 -0.0697395 1.8694)
(-0.0115706 -0.060564 0.12488)
(-0.00222508 0.00486912 0.628422)
(0.138187 -0.0775827 2.26222)
(-0.194066 -0.119176 1.58792)
(0.160824 -0.0202737 0.569007)
(-0.0802751 0.0746762 1.90899)
(-0.237879 0.00290748 1.64308)
(-0.0130743 -0.112102 2.27538)
(-0.139025 -0.285548 1.76643)
(-0.0135372 -0.148594 0.664059)
(-0.239963 -0.163891 1.6723)
(-0.13355 -0.0549718 1.57288)
(-0.159455 -0.0952172 2.29218)
(0.0116354 0.0211831 3.13784)
(0.0954784 -0.18366 2.72298)
(-0.0379101 -0.0289056 0.743744)
(-0.136666 -0.149324 1.52823)
(-0.197178 -0.211261 2.86241)
(-0.118307 -0.0977247 3.09862)
(0.0737479 -0.0537796 2.86246)
(-0.0580675 0.00671626 1.48857)
(-0.0898019 -0.061692 2.85566)
(-0.314039 0.129929 3.34034)
(-0.0597134 -0.0579713 1.95327)
(-0.026596 -0.0678777 0.205436)
(0.110321 -0.0837507 0.681338)
(0.198217 -0.0633571 2.2482)
(-0.10783 -0.096579 1.72143)
(0.170349 -0.0245265 0.768424)
(-0.136017 0.116256 1.92518)
(-0.241717 -0.0238245 1.65841)
(-0.0426805 -0.160139 2.20524)
(-0.128018 -0.281636 1.77146)
(0.0297579 -0.105284 0.55841)
(-0.23895 -0.135903 1.70316)
(-0.192267 -0.0968317 1.60728)
(-0.157467 -0.091383 2.32417)
(-0.0379513 0.0257406 3.05381)
(0.0543049 -0.198224 2.62626)
(-0.0446882 -0.00563714 0.775755)
(-0.188459 -0.161566 1.5787)
(-0.154226 -0.217127 2.86387)
(-0.126319 -0.0767641 3.03376)
(0.0352988 -0.112609 2.64711)
(-0.0827816 -0.00888853 1.40121)
(-0.0634482 -0.0896788 2.589)
(-0.210294 0.0908316 3.14445)
(-0.0559304 -0.0510784 1.94962)
(-0.0287877 -0.0136292 0.319385)
(0.1312 0.00306848 0.793893)
(0.150744 -0.0775715 2.21164)
(-0.0353679 -0.0597733 1.84572)
(0.0679424 -0.0261584 1.09217)
(-0.152445 0.150185 1.89511)
(-0.239115 -0.0274541 1.66739)
(-0.0555056 -0.177954 2.15997)
(-0.0907666 -0.237973 1.8017)
(0.0128758 -0.0551582 0.501429)
(-0.230756 -0.0624534 1.74546)
(-0.239398 -0.133942 1.64836)
(-0.145257 -0.103171 2.33706)
(-0.0637378 0.011454 2.96717)
(0.00253697 -0.217444 2.49928)
(-0.025704 0.0159103 0.857664)
(-0.209863 -0.152442 1.59253)
(-0.136511 -0.210595 2.85317)
(-0.144002 -0.0507075 3.00742)
(-0.00576447 -0.120488 2.27727)
(-0.0963003 -0.0139539 1.2891)
(-0.0505573 -0.0918146 2.31438)
(-0.142405 0.0729934 3.0296)
(-0.0855443 -0.0523865 1.88016)
(-0.0604655 0.0302795 0.494733)
(0.0436767 0.122101 0.947419)
(0.0985525 -0.16881 2.21212)
(0.0160903 -0.0392426 1.91364)
(-0.0647107 -0.0551338 1.30269)
(-0.137067 0.155874 1.89173)
(-0.227474 -0.0150211 1.66347)
(-0.0531522 -0.164358 2.12603)
(-0.0658909 -0.187831 1.83167)
(-0.00166088 0.00227094 0.509003)
(-0.226041 0.000841726 1.81846)
(-0.255543 -0.156065 1.68138)
(-0.126179 -0.133785 2.33815)
(-0.0457199 -0.0344238 2.88326)
(0.0176097 -0.200273 2.41231)
(0.00408934 0.0681466 0.984403)
(-0.21751 -0.136528 1.58433)
(-0.136226 -0.204047 2.82294)
(-0.155757 -0.0563631 2.99986)
(0.0315153 -0.136782 1.997)
(-0.0736957 -0.0139161 1.19452)
(-0.0507049 -0.0582948 2.14891)
(-0.160503 0.0978785 2.89997)
(-0.146464 -0.0620587 1.80734)
(-0.110509 0.0778574 0.691343)
(-0.0553495 0.188856 1.12688)
(0.0814648 -0.176148 2.24739)
(0.0613093 -0.00873338 1.91725)
(-0.207837 -0.154046 1.30899)
(-0.0312923 0.128842 1.8981)
(-0.177952 0.0174646 1.66229)
(-0.026 -0.126205 2.10705)
(-0.0459372 -0.160189 1.85972)
(0.0013563 0.0341422 0.604503)
(-0.161818 0.0825845 1.83633)
(-0.245097 -0.158359 1.6949)
(-0.116355 -0.145848 2.32658)
(-0.00529034 -0.0739147 2.81598)
(0.0617181 -0.155541 2.38305)
(0.0370191 0.162455 1.19379)
(-0.221836 -0.12773 1.58233)
(-0.136164 -0.198095 2.74878)
(-0.171241 -0.0882256 2.97059)
(0.0606083 -0.152012 1.8337)
(-0.0234736 -0.0198431 1.16256)
(-0.115514 -0.0110118 2.06974)
(-0.159202 0.115556 2.80832)
(-0.240756 -0.0528758 1.79528)
(-0.16201 0.0967431 0.889079)
(-0.176336 0.222965 1.30097)
(0.00205909 -0.103503 2.22309)
(0.0641456 0.077738 1.78498)
(-0.176458 -0.22538 1.0797)
(0.21057 0.0725891 1.89232)
(-0.0908985 0.0557208 1.71561)
(0.027569 -0.0861109 2.13725)
(-0.0374475 -0.165169 1.89999)
(-0.0187295 -0.0027216 0.643961)
(-0.0719517 0.229711 1.84249)
(-0.190925 -0.139932 1.71239)
(-0.112923 -0.137532 2.31935)
(0.035083 -0.114943 2.77184)
(0.0944069 -0.123956 2.38302)
(0.0391634 0.218749 1.35914)
(-0.211303 -0.128489 1.58333)
(-0.14565 -0.188354 2.67184)
(-0.184132 -0.131273 2.91672)
(0.0307655 -0.112337 1.74699)
(-0.00434023 -0.0341553 1.19645)
(-0.141115 0.0103541 2.03365)
(-0.179624 0.120001 2.65475)
(-0.256636 -0.0262088 1.76524)
(-0.221635 0.130802 1.04475)
(-0.301049 0.186651 1.44673)
(-0.20979 -0.04487 2.08459)
(0.0175881 0.0321944 1.63061)
(-0.0273493 -0.118946 0.949598)
(0.309538 0.0678489 1.88125)
(-0.0322444 0.0760654 1.80409)
(0.078572 -0.0875093 2.21561)
(-0.03508 -0.199366 1.93849)
(-0.0640655 -0.171078 0.67709)
(-0.132535 0.302637 1.92621)
(-0.067396 -0.0781646 1.75176)
(-0.102672 -0.113965 2.334)
(0.0647433 -0.177104 2.75081)
(0.0960792 -0.115654 2.38972)
(0.0205456 0.266395 1.54986)
(-0.172507 -0.156446 1.60571)
(-0.147083 -0.189909 2.62886)
(-0.194861 -0.172207 2.82473)
(0.0370043 -0.176403 1.61785)
(-0.0610881 -0.0777229 1.3068)
(-0.188692 0.0205358 2.00716)
(-0.248037 0.117638 2.47226)
(-0.174268 -0.0137549 1.73468)
(-0.247745 0.1703 1.15443)
(-0.376525 0.113258 1.55322)
(-0.218736 -0.0288155 1.89261)
(-0.0734159 -0.053279 1.58727)
(0.0674018 0.0404577 0.955045)
(0.304543 0.07652 1.87809)
(-0.0289693 0.0506982 1.8974)
(0.109025 -0.139861 2.30055)
(-0.0463802 -0.232038 1.95889)
(-0.0492569 -0.110242 0.58487)
(-0.11596 0.315681 1.94817)
(-0.0107198 -0.0500117 1.82227)
(-0.0883843 -0.120514 2.38186)
(0.0763689 -0.219612 2.72729)
(0.0895682 -0.0987069 2.40137)
(0.00348802 0.239746 1.66823)
(-0.142381 -0.208778 1.68415)
(-0.136222 -0.232327 2.60372)
(-0.197954 -0.186529 2.66703)
(-0.0475067 -0.0268275 1.46939)
(-0.133256 -0.131638 1.4514)
(-0.303919 -0.00982055 1.90416)
(-0.181981 0.0786559 2.18866)
(-0.0681163 -0.0248001 1.7504)
(-0.242209 0.181172 1.23316)
(-0.375572 0.0812446 1.5853)
(-0.169161 0.00120365 1.71134)
(-0.165761 -0.152596 1.6681)
(0.0588767 0.15698 0.986514)
(0.226333 0.0893199 1.88372)
(-0.0532926 -0.0341128 2.00504)
(0.102044 -0.214218 2.35979)
(-0.0677492 -0.243311 1.95152)
(-0.0185687 -0.0314537 0.516471)
(-0.00864972 0.214679 1.86575)
(0.00161942 -0.064573 1.90377)
(-0.0667765 -0.183147 2.45064)
(0.0773255 -0.237313 2.67695)
(0.0670213 -0.0866153 2.38811)
(-0.00612704 0.164292 1.82013)
(-0.115796 -0.214171 1.76969)
(-0.14753 -0.276754 2.54636)
(-0.161576 -0.181792 2.4802)
(-0.111436 0.106363 1.30229)
(-0.182926 -0.157692 1.6108)
(-0.385767 -0.0374397 1.68505)
(-0.207882 0.0524856 1.9474)
(-0.0190425 -0.0361496 1.78613)
(-0.211351 0.164969 1.28716)
(-0.339372 0.0865005 1.56162)
(-0.186436 0.0416661 1.59265)
(-0.231492 -0.205157 1.75767)
(0.047052 0.198438 1.02559)
(0.105434 0.0909623 1.90236)
(-0.0670099 -0.136918 2.11113)
(0.0510947 -0.268775 2.38579)
(-0.0767335 -0.22925 1.91098)
(-0.000705954 0.0324489 0.552036)
(0.0312805 0.124873 1.85769)
(0.00277195 -0.0929322 1.96998)
(-0.0421738 -0.21578 2.4807)
(0.0435115 -0.258325 2.62554)
(0.0789238 -0.12821 2.29942)
(-0.0116323 0.0902867 1.90475)
(-0.0597412 -0.179986 1.83493)
(-0.156217 -0.254016 2.50054)
(-0.168332 -0.177256 2.38592)
(-0.0692991 0.0661484 1.19814)
(-0.0636612 -0.119651 1.76138)
(-0.22564 0.026815 1.49209)
(-0.121572 -0.0571116 1.33156)
(-0.021969 -0.0341145 1.78485)
(-0.170676 0.139087 1.31448)
(-0.311346 0.0969426 1.52818)
(-0.207542 0.0645726 1.558)
(-0.259145 -0.223779 1.821)
(0.0437225 0.206381 1.06503)
(0.0427273 0.0839019 1.9313)
(-0.074861 -0.208004 2.19071)
(0.00298815 -0.279029 2.39312)
(-0.0963754 -0.246067 1.85211)
(0.00491103 0.0556164 0.621077)
(0.0288078 0.0983412 1.88128)
(0.00458574 -0.111667 2.00904)
(-0.0203796 -0.210187 2.48919)
(-0.0124228 -0.243284 2.5871)
(-0.0224502 -0.00936696 2.09791)
(-0.0137366 0.0811538 1.95275)
(0.00975532 -0.150422 1.8434)
(-0.120701 -0.217259 2.48389)
(-0.166063 -0.166975 2.27816)
(-0.0346181 0.0641475 1.11592)
(0.080747 -0.0401223 1.81611)
(0.0805232 -0.0298565 1.32257)
(0.0976783 -0.105324 1.05022)
(-0.0711336 -0.0236587 1.75577)
(-0.167129 0.137933 1.34853)
(-0.306987 0.103561 1.51607)
(-0.227223 0.068013 1.56831)
(-0.265787 -0.233008 1.8662)
(0.0465113 0.184149 1.09743)
(0.0202308 0.059812 1.96712)
(-0.0770842 -0.232718 2.24509)
(-0.0193084 -0.248907 2.39353)
(-0.131268 -0.218159 1.76802)
(0.00310753 0.051874 0.716152)
(0.0186778 0.0901208 1.90522)
(-0.00352225 -0.115311 2.03013)
(0.0171312 -0.189009 2.4747)
(-0.0344045 -0.155224 2.55354)
(-0.160104 0.0555783 1.76025)
(-0.0177293 0.0818028 1.9917)
(0.0466265 -0.145252 1.79096)
(-0.00728963 -0.169675 2.45554)
(-0.125724 -0.103175 2.26786)
(0.0209504 0.00425024 1.01173)
(0.12154 0.00207193 1.81697)
(0.1933 -0.0443786 1.19834)
(0.176639 -0.130904 0.945445)
(-0.138341 -0.0163582 1.71994)
(-0.196546 0.16655 1.39126)
(-0.310463 0.105667 1.51976)
(-0.245988 0.0468594 1.61418)
(-0.247759 -0.21476 1.88676)
(0.0295905 0.174145 1.1449)
(0.0105959 0.00288891 1.99852)
(-0.0681987 -0.23989 2.28461)
(-0.0554198 -0.178074 2.3682)
(-0.101718 -0.151374 1.62822)
(-0.0025327 0.0470644 0.772727)
(0.0128047 0.0793503 1.93601)
(-0.0182483 -0.120039 2.03113)
(0.0631659 -0.185184 2.44834)
(-0.0328797 -0.0775622 2.50266)
(-0.0793261 -0.0818507 1.57888)
(-0.0251645 0.0864485 2.05457)
(0.0243122 -0.157397 1.74643)
(0.03243 -0.184652 2.39332)
(-0.0510643 -0.0143698 2.32915)
(0.100046 -0.144352 0.958232)
(0.125063 0.010146 1.80075)
(0.170436 0.0364432 1.15921)
(0.139312 -0.076611 0.875283)
(-0.175669 -0.016771 1.67675)
(-0.237212 0.213663 1.42624)
(-0.306483 0.0788729 1.55466)
(-0.26188 -0.00699174 1.69276)
(-0.219617 -0.183352 1.88265)
(-0.00977751 0.176281 1.2151)
(-0.00739535 -0.0761091 2.02028)
(-0.0487585 -0.258011 2.32273)
(-0.0831159 -0.139726 2.31354)
(-0.041712 -0.176413 1.54052)
(-0.0132871 0.0448537 0.85271)
(0.0328007 0.05965 1.95412)
(-0.0503093 -0.155428 2.01456)
(0.0701874 -0.212487 2.44582)
(-0.0299628 -0.0896287 2.45212)
(0.0493392 -0.217925 1.62679)
(-0.051594 0.0891963 2.09971)
(-0.0991784 -0.185743 1.69238)
(0.0395637 -0.22218 2.24128)
(-0.0610161 0.0357593 2.18447)
(0.208445 -0.275343 1.00278)
(0.130762 0.0170705 1.80683)
(0.079775 0.144973 1.21135)
(0.0908651 0.00308921 0.922398)
(-0.200467 -0.00952146 1.61872)
(-0.275991 0.249751 1.47378)
(-0.294827 0.0236345 1.62092)
(-0.245157 -0.0709203 1.7961)
(-0.190144 -0.173635 1.86923)
(-0.0372442 0.177047 1.28172)
(-0.0297967 -0.137378 2.03897)
(-0.0220006 -0.288843 2.35775)
(-0.0593735 -0.152408 2.25946)
(-0.0101938 -0.226633 1.56005)
(-0.0152287 0.0459538 0.938572)
(0.0730403 0.0165192 1.97791)
(-0.0933255 -0.236965 1.98687)
(0.0881221 -0.286439 2.42436)
(0.0282006 -0.157863 2.36192)
(0.129433 -0.284959 1.71968)
(-0.101594 0.0693395 2.14806)
(-0.18763 -0.191214 1.552)
(0.0525103 -0.159189 1.85)
(0.266253 -0.0611099 1.84067)
(0.337861 -0.299267 1.2263)
(0.156777 0.0824715 1.85561)
(0.0280696 0.208092 1.2743)
(0.0712063 0.0199471 1.02723)
(-0.200979 -0.0185281 1.55785)
(-0.305722 0.276057 1.53767)
(-0.281553 -0.0254807 1.70066)
(-0.204638 -0.140442 1.93027)
(-0.156455 -0.158903 1.86353)
(-0.0656131 0.192934 1.35736)
(-0.0457887 -0.157695 2.05536)
(-0.000875426 -0.330947 2.36831)
(-0.00790874 -0.167466 2.22925)
(-0.0111546 -0.219245 1.64587)
(-0.00922936 0.0628123 1.02972)
(0.103363 -0.031524 1.98616)
(-0.105337 -0.280865 1.94705)
(0.143079 -0.311515 2.33527)
(0.101412 -0.192512 2.30016)
(0.151392 -0.250712 1.80084)
(-0.1136 0.050647 2.19688)
(-0.153181 -0.149433 1.36622)
(-0.000299338 -0.0353189 1.4738)
(0.350279 -0.100709 1.54306)
(0.226311 -0.209389 1.60279)
(0.166495 0.115411 1.93849)
(0.0152532 0.19827 1.35457)
(0.0688384 -0.0133426 1.02614)
(-0.204652 -0.0158812 1.55021)
(-0.319105 0.292382 1.59673)
(-0.277852 -0.0281075 1.7725)
(-0.169582 -0.206659 2.07039)
(-0.108463 -0.14798 1.87684)
(-0.105641 0.225459 1.43054)
(-0.0538195 -0.1513 2.06537)
(0.00516803 -0.362131 2.35291)
(0.0140941 -0.169359 2.22284)
(0.00459156 -0.140066 1.73381)
(0.00585317 0.118961 1.12143)
(0.131939 -0.0600748 2.0166)
(-0.0977944 -0.276967 1.88733)
(0.15277 -0.32 2.12755)
(0.116299 -0.206377 2.25192)
(0.0686555 -0.155815 1.85706)
(-0.0713459 0.0490864 2.25664)
(-0.0938466 -0.099493 1.20208)
(-0.117099 0.0238672 1.2445)
(0.191657 0.0105582 1.42806)
(-0.0273814 0.0420831 1.70027)
(0.157213 0.118349 1.99871)
(0.0339072 0.135223 1.45226)
(0.0458515 -0.0159543 0.964324)
(-0.243894 -0.0216038 1.57515)
(-0.334907 0.30941 1.63489)
(-0.279101 0.0419883 1.84421)
(-0.144655 -0.236557 2.18217)
(-0.0686789 -0.131154 1.91478)
(-0.144862 0.260857 1.49562)
(-0.0488585 -0.133146 2.07085)
(-0.00215552 -0.366808 2.33803)
(0.00913792 -0.167808 2.22132)
(0.0196157 -0.0312645 1.80095)
(0.0223475 0.177987 1.22383)
(0.154192 -0.044138 2.0353)
(-0.0657639 -0.241825 1.8522)
(0.0565107 -0.292967 1.92548)
(0.0878493 -0.188422 2.1928)
(-0.036255 -0.00738335 1.80975)
(-0.0260873 0.0627543 2.3094)
(-0.0753474 -0.0712079 1.0951)
(-0.206109 -0.00316826 1.12658)
(-0.0334165 0.042053 1.44415)
(-0.11707 0.232399 1.57605)
(0.150623 0.107912 2.02183)
(0.132911 0.0928135 1.58055)
(0.0511453 0.00684908 0.985213)
(-0.282509 -0.0642737 1.67452)
(-0.361849 0.340783 1.6557)
(-0.282573 0.112263 1.90905)
(-0.143764 -0.23503 2.24066)
(-0.0470442 -0.10371 1.94565)
(-0.168526 0.295431 1.58001)
(-0.0198697 -0.0948784 2.08348)
(-0.0105389 -0.353623 2.33236)
(-0.0112776 -0.148746 2.20911)
(-0.0205488 0.0441392 1.79788)
(0.0337845 0.216751 1.33343)
(0.193275 -0.0376257 1.97977)
(-0.0102381 -0.19863 1.87538)
(-0.0236523 -0.21277 1.77237)
(0.0897725 -0.11552 2.13284)
(-0.0557723 0.0935016 1.71201)
(0.00270169 0.0496366 2.35129)
(-0.102974 -0.0640423 1.0387)
(-0.23808 -0.0780655 1.06433)
(-0.156754 0.0387183 1.4942)
(-0.0835815 0.24754 1.52269)
(0.154451 0.0949646 2.04366)
(0.235672 0.0375299 1.66902)
(0.133473 -0.0644077 1.05809)
(-0.326579 -0.0831761 1.78456)
(-0.387748 0.369802 1.6738)
(-0.311421 0.136292 1.95303)
(-0.154944 -0.208269 2.2681)
(-0.0417347 -0.083343 1.93719)
(-0.171499 0.337316 1.69399)
(0.0132883 -0.0555134 2.10648)
(-0.0255002 -0.317231 2.31661)
(-0.0025961 -0.12543 2.18791)
(-0.0341949 0.0386105 1.72918)
(0.0355183 0.239856 1.42295)
(0.204594 -0.0217797 1.73589)
(0.0557389 -0.149277 1.95048)
(-0.023259 -0.117037 1.66458)
(0.131043 -0.0177603 2.04894)
(-0.00854299 0.0957002 1.68145)
(0.0167322 0.0540186 2.38466)
(-0.154623 -0.0684579 1.02966)
(-0.238755 -0.150647 1.02678)
(-0.152385 0.0770245 1.55489)
(-0.045371 0.211979 1.55359)
(0.164207 0.0793074 2.06319)
(0.243824 0.00894153 1.67431)
(0.196347 -0.173201 0.983009)
(-0.360704 -0.0771212 1.8211)
(-0.401398 0.376358 1.69486)
(-0.334827 0.125501 2.01321)
(-0.185115 -0.140854 2.28931)
(-0.0460785 -0.0682083 1.93573)
(-0.170188 0.364822 1.80157)
(0.0313283 -0.0385888 2.12794)
(-0.0512633 -0.253269 2.28026)
(0.0185255 -0.12904 2.14145)
(0.0057802 0.0326981 1.72211)
(0.0359453 0.240371 1.45549)
(0.173686 0.0442389 1.57934)
(0.102862 -0.105073 2.03671)
(0.0145805 -0.0477726 1.60332)
(0.153382 0.0246398 1.94806)
(0.0763801 0.0436481 1.73813)
(0.0201057 0.0793176 2.42843)
(-0.203226 -0.0726207 1.06403)
(-0.239168 -0.177265 1.01666)
(-0.0830896 0.0722023 1.59139)
(-0.0221317 0.183622 1.62936)
(0.20286 0.0772843 2.11442)
(0.210568 -0.0667061 1.63939)
(0.194889 -0.170653 0.801599)
(-0.345606 -0.0582821 1.82034)
(-0.392555 0.356408 1.72771)
(-0.345861 0.0814694 2.09869)
(-0.218458 -0.11098 2.3064)
(-0.0590013 -0.0788478 1.95271)
(-0.159831 0.337743 1.86046)
(0.0347375 -0.0442239 2.14008)
(-0.0680702 -0.209672 2.25111)
(-0.0200793 -0.143706 2.06313)
(0.0136904 0.0462197 1.79834)
(0.0344091 0.212529 1.44969)
(0.149938 0.11439 1.54031)
(0.12599 -0.0803399 2.1048)
(0.0338523 -0.000609603 1.58853)
(0.105485 -0.0101704 1.86975)
(0.0976584 -0.00242673 1.79682)
(0.00995245 0.0794809 2.48329)
(-0.221724 -0.0694175 1.13455)
(-0.250158 -0.156684 1.02636)
(-0.0977244 0.0276339 1.56833)
(-0.0643254 0.182334 1.69351)
(0.212896 0.0586587 2.15952)
(-0.0118756 -0.214806 1.45812)
(0.0680488 -0.0871471 0.741413)
(-0.246364 -0.0251601 1.81017)
(-0.386112 0.332485 1.77267)
(-0.36481 0.03413 2.18162)
(-0.262894 -0.111499 2.31057)
(-0.0994347 -0.0521717 1.95167)
(-0.148891 0.299927 1.89831)
(0.0317021 -0.0699057 2.15317)
(-0.0752145 -0.199693 2.23913)
(-0.0714791 -0.117378 2.00928)
(-0.0538979 -0.0239091 1.82917)
(0.0311992 0.171923 1.43343)
(0.145225 0.148771 1.55183)
(0.116456 -0.088903 2.13858)
(0.013654 0.0226652 1.60177)
(-0.0725134 -0.0588889 1.80127)
(0.0366942 -0.0425907 1.78678)
(-0.0221247 0.0529602 2.53802)
(-0.213243 -0.0800577 1.21721)
(-0.242093 -0.0729157 1.07055)
(-0.282914 -0.00802291 1.45739)
(-0.10898 0.187794 1.61602)
(0.201088 0.0620592 2.23142)
(-0.0382553 -0.125678 1.2073)
(-0.0635693 0.00744528 0.779686)
(-0.190396 -0.0157747 1.79509)
(-0.395683 0.325205 1.8289)
(-0.385345 -0.000694978 2.24107)
(-0.26573 -0.133269 2.30338)
(-0.0519211 0.0398098 1.87602)
(-0.156069 0.287373 1.9356)
(0.0195149 -0.114358 2.18401)
(-0.0822278 -0.198667 2.2228)
(-0.0811454 -0.00630655 1.98621)
(-0.0778011 -0.0421382 1.76696)
(0.0259941 0.133024 1.42254)
(0.145387 0.157992 1.59247)
(0.0736907 -0.107734 2.16798)
(-0.0928699 0.0627734 1.63441)
(-0.237535 -0.0103154 1.76679)
(-0.0100794 -0.00679993 1.82723)
(-0.0423744 0.017935 2.58679)
(-0.203764 -0.104601 1.29054)
(-0.215708 0.0180383 1.1245)
(-0.313259 -0.0160382 1.39234)
(-0.087015 0.11452 1.169)
(0.194936 0.027457 2.28816)
(0.0106219 -0.0495986 1.11052)
(-0.0807214 0.0394594 0.835587)
(-0.186958 -0.0253684 1.82309)
(-0.41433 0.325071 1.88986)
(-0.391355 -0.0251305 2.27357)
(-0.261494 -0.152915 2.27246)