/*--------------------------------*- C++ -*----------------------------------*\
| =========                 |                                                 |
| \\      /  F ield         | OpenFOAM: The Open Source CFD Toolbox           |
|  \\    /   O peration     | Version:  5.x                                   |
|   \\  /    A nd           | Web:      www.OpenFOAM.org                      |
|    \\/     M anipulation  |                                                 |
\*---------------------------------------------------------------------------*/
FoamFile
{
    version     2.0;
    format      ascii;
    class       volVectorField;
    location    "4";
    object      Us;
}
// * * * * * * * * * * * * * * * * * * * * * * * * * * * * * * * * * * * * * //

dimensions      [0 1 -1 0 0 0 0];

internalField   nonuniform List<vector> 
10571
(
(-0.250988 -0.0169781 0.0839747)
(0.0122551 0.0291558 -0.00457531)
(-0.131147 0.215753 0.125699)
(-0.531162 -0.0765783 0.150309)
(-0.292077 -0.157672 0.00263325)
(0.141301 0.1455 -0.0231305)
(-0.326318 0.0619558 0.163397)
(-0.561285 0.00012588 0.104361)
(-0.328447 -0.00398787 -0.0205468)
(-0.0721192 -0.0401053 -0.0142417)
(0.0230725 -0.0290367 -0.0650402)
(-0.0211618 0.0464563 0.198128)
(-0.36097 0.0398407 0.149721)
(-0.615417 0.143661 0.161461)
(-0.384343 0.123953 0.0836299)
(-0.104531 0.111812 0.0590763)
(0.0144935 -0.070402 0.0260325)
(-0.275571 -0.021046 0.154268)
(-0.58498 0.146597 0.173864)
(-0.341454 0.140219 0.131837)
(-0.0944686 0.119547 0.0489557)
(-0.204817 -0.138179 0.0204925)
(-0.139775 -0.0982151 0.0487822)
(-0.210431 0.11953 0.119857)
(-0.100282 0.000131032 0.0285191)
(0.0245578 -0.0624824 -0.126398)
(-0.388265 0.079223 0.231423)
(-0.259165 -0.121304 0.200305)
(-0.11485 -0.0191174 -0.0762731)
(0.147873 -0.0159998 -0.229465)
(-0.253899 0.0391082 0.372851)
(-0.0605993 0.0300116 0.203426)
(-0.0530927 0.0730134 -0.100665)
(-0.0432782 0.0647269 -0.150271)
(0.00560049 -0.0556785 -0.12577)
(-0.108544 0.00138123 0.290878)
(-0.300897 0.0782109 0.246655)
(-0.12639 0.115664 0.338987)
(-0.0371623 0.0364992 0.0824056)
(-0.0565529 0.102927 0.0508141)
(-0.14421 -0.00950566 0.121051)
(-0.357436 0.113574 0.339045)
(-0.180377 0.0642405 0.35774)
(-0.0373638 -0.0528525 0.197375)
(-0.00948429 0.0304444 0.0827514)
(-0.0286175 -0.0431289 0.119887)
(-0.145168 -0.0377406 0.166214)
(0.013461 -0.0266531 0.0532827)
(-0.0666239 -0.00309811 -0.0289383)
(-0.143588 -0.000996046 -0.216608)
(-0.454399 -0.029522 0.282551)
(-0.125008 -0.0792355 0.226581)
(0.0918157 0.0809051 0.0233632)
(0.058406 0.0155818 -0.177176)
(-0.232326 0.0357484 0.433949)
(0.0178769 0.0839231 0.297358)
(0.198076 0.141013 -0.150945)
(0.0134627 0.168727 -0.253424)
(0.00136461 -0.106814 -0.0550614)
(-0.0019972 -0.0492997 0.39445)
(-0.100631 0.0657517 0.282098)
(-0.0134822 0.107285 0.329829)
(0.134345 -0.00690202 0.0262425)
(-0.0157493 0.00632417 -0.414896)
(-0.12841 -0.00415616 0.27063)
(-0.130191 0.150448 0.341413)
(-0.0703696 0.166242 0.382304)
(0.0864499 0.0531935 0.246273)
(0.13824 0.0949875 -0.414306)
(0.0744188 0.0189542 0.138596)
(-0.0348086 0.0377289 0.24406)
(0.15066 -0.0567584 -0.0495261)
(-0.0266101 0.00924747 -0.180261)
(-0.10775 0.0245158 -0.313674)
(-0.235962 -0.0548134 0.276337)
(-0.0735799 -0.00345383 0.216577)
(0.0822968 0.058558 -0.0144789)
(0.0251304 -0.0682053 0.140696)
(-0.141597 0.0616394 0.499976)
(0.0822677 0.081221 0.18182)
(0.175774 0.0490968 -0.289283)
(0.0248382 0.0654121 -0.613696)
(0.00240963 -0.0306983 -0.0270369)
(0.0897452 0.0340052 0.27413)
(0.0132113 0.0820736 0.262703)
(0.0125786 0.0523178 0.248721)
(0.113159 -0.00902533 -0.256408)
(-0.073117 -0.0120461 -0.397783)
(-0.0516385 0.0496523 0.334314)
(-0.021411 0.082872 0.3207)
(-0.0504701 0.101245 0.323617)
(0.157746 -0.0236611 -0.0510035)
(0.046324 0.0761394 -0.326936)
(0.0444719 0.0473469 0.115113)
(-0.0125018 0.134423 0.307375)
(0.0997107 0.0339015 -0.112498)
(0.101553 -0.0108525 -0.413047)
(0.0422026 -0.0959655 -0.620919)
(0.0816332 -0.0303647 0.208133)
(0.129253 0.00479787 -0.301162)
(0.054665 0.0453936 -0.545999)
(-0.0882165 0.0852916 0.0691319)
(-0.0154824 0.0376262 0.221291)
(0.145967 0.0329582 -0.0802822)
(0.0667725 0.0817251 -0.453131)
(0.0139483 0.0340217 -0.530693)
(-0.0151726 0.000911771 -0.266853)
(-0.0435304 -0.00813808 0.184821)
(-0.000630348 0.139402 0.153137)
(0.0957196 0.0497389 -0.240289)
(0.102359 0.0393185 -0.346002)
(-0.0936407 -0.0137961 -0.294114)
(-0.0647625 0.00989916 0.127186)
(0.0304268 -0.00400338 0.262718)
(-0.0473432 0.0262982 0.254269)
(0.0766129 0.0682499 -0.337866)
(-0.0286236 0.0435684 -0.248928)
(0.0679614 0.0324569 -0.303829)
(-0.0296266 0.093802 0.152482)
(0.0477923 0.184623 -0.2666)
(0.13937 -0.0133538 -0.41273)
(0.0605414 -0.0853716 -0.618497)
(0.0661166 -0.0187503 -0.234283)
(0.158983 -0.0145635 -0.287587)
(0.0276218 0.0207971 -0.538115)
(-0.141021 0.114052 0.151584)
(0.0103794 0.0340609 0.115819)
(0.112955 0.0386678 -0.289492)
(0.0740614 0.0407885 -0.422457)
(-0.0436411 0.0538987 -0.190592)
(-0.00669976 0.00366533 -0.00321692)
(0.0385895 0.000531626 -0.387481)
(-0.137899 0.12033 0.157425)
(0.00204013 0.0614776 -0.0388162)
(0.0746945 -0.0293374 -0.314881)
(0.109291 0.0233459 -0.299384)
(-0.0980449 -0.0279499 -0.169584)
(-0.00556851 -0.000925751 -0.00286405)
(-0.0307427 -0.0200784 -0.306704)
(0.0146771 -0.00320764 -0.366195)
(0.0606698 -0.00155305 -0.31891)
(0.13608 -0.0187212 -0.254146)
(0.132235 0.0761157 -0.244996)
(0.0411792 0.0137846 -0.439695)
(0.0539007 0.0396173 -0.420612)
(0 0 0)
(0.211118 -0.105685 -0.544422)
(0.0806016 -0.0856954 -0.602429)
(0.102297 -0.0527647 -0.463444)
(0.158087 -0.0234543 -0.355032)
(0.173213 -0.0147084 -0.458872)
(-0.0621558 0.0431321 0.00104449)
(0.0904565 0.101214 -0.129373)
(0.123933 -0.0445928 -0.292406)
(0.0888244 -0.0438856 -0.365259)
(-0.0374121 -0.0745619 -0.68797)
(-0.00792497 0.00454127 -0.00691198)
(0.0233094 -0.0201716 -0.392692)
(-0.0722118 0.194993 -0.107924)
(0.00391477 -0.0823301 -0.349579)
(0.0770335 -0.0553451 -0.292724)
(0.145773 -0.0427264 -0.237142)
(0 0 0)
(-0.0122661 0.00041555 -0.00829455)
(-0.0925211 -0.0151447 -0.290119)
(-0.000955828 0.00108873 -0.361206)
(0.0875891 -0.013356 -0.25784)
(0.143336 -0.0580465 -0.234139)
(0 0 0)
(-0.0309766 -0.00728185 -0.0103734)
(0.0144198 0.0277925 -0.36643)
(0.0880669 0.109786 -0.344338)
(0 0 0)
(0 0 0)
(0.0842149 -0.0733576 -0.532299)
(0.163952 -0.0586386 -0.532903)
(0 0 0)
(0 0 0)
(-0.000493448 0.00635869 -0.130277)
(0.0624501 -0.0188188 -0.176678)
(0.0935003 -0.0954288 -0.297707)
(0.165331 -0.0500307 -0.264778)
(-0.0421633 -0.105393 -0.681831)
(0 0 0)
(0.00732246 0.00714122 -0.346494)
(-0.0898263 0.236033 0.0284348)
(0.00780442 -0.0845752 -0.304901)
(0.0690046 -0.062447 -0.247545)
(0.138978 -0.0402279 -0.143083)
(0 0 0)
(0 0 0)
(-0.0416308 -0.0119551 -0.249167)
(0.0342067 0.00513316 -0.318459)
(0.0893252 -0.0111255 -0.211058)
(0 0 0)
(0 0 0)
(0 0 0)
(0.0991822 0.0153957 -0.410246)
(0 0 0)
(0 0 0)
(0 0 0)
(0.0686541 -0.0470497 -0.501531)
(0.0996228 -0.0543507 -0.488135)
(0 0 0)
(0 0 0)
(0.0725826 -0.0476596 -0.408705)
(0.0590322 -0.066394 -0.24062)
(0.0877268 -0.0887212 -0.262385)
(0.108593 -0.0887111 -0.337745)
(0.0109907 -0.108295 -0.497079)
(0 0 0)
(0.005605 -0.0487338 -0.378924)
(-0.0242884 0.0802076 -0.144734)
(0.0144792 -0.0612596 -0.277876)
(0.0694672 -0.0677654 -0.2212)
(0.160911 -0.0781661 -0.144872)
(0 0 0)
(0 0 0)
(-0.0520821 0.0329789 -0.18072)
(0.0804945 0.0076615 -0.327337)
(0.101179 -0.0157701 -0.059486)
(0 0 0)
(0 0 0)
(0.106447 0.038903 -0.382509)
(0 0 0)
(0 0 0)
(0.106152 -0.163902 -0.362033)
(0.0845249 -0.0736006 -0.496244)
(0.11978 -0.0789396 -0.452439)
(0 0 0)
(0 0 0)
(0.0920401 -0.0490119 -0.362555)
(0.104895 0.00825442 -0.230171)
(0.093011 -0.013286 -0.268314)
(0.18589 0.00298919 -0.322334)
(0 0 0)
(-0.00897088 -0.0420665 -0.279353)
(0.048762 0.033564 -0.147937)
(0.0723444 0.0189785 -0.227227)
(0.0740636 -0.031524 -0.213109)
(0 0 0)
(0 0 0)
(0.00306298 0.0422004 -0.131181)
(0.13708 0.0204027 -0.304861)
(0 0 0)
(0 0 0)
(0 0 0)
(0.104977 0.0571244 -0.343397)
(0 0 0)
(0 0 0)
(0 0 0)
(0.0789561 -0.115661 -0.442012)
(0.121268 -0.0868428 -0.443318)
(0 0 0)
(0 0 0)
(0.041614 -0.0692722 -0.352344)
(0.137927 0.0258438 -0.203751)
(0.110361 0.00818832 -0.276615)
(0 0 0)
(0 0 0)
(-0.00112518 -0.0367624 -0.324523)
(0.0537259 -0.0094433 -0.19746)
(0 0 0)
(0.137602 0.0776706 -0.230204)
(0.175202 0.056339 -0.1272)
(0 0 0)
(0.0101604 0.027558 -0.0776971)
(0.137635 0.0210607 -0.266685)
(0 0 0)
(0 0 0)
(0 0 0)
(0.109139 0.0352822 -0.309478)
(0.107254 0.207961 -0.230837)
(0 0 0)
(0 0 0)
(0.0616439 -0.0812764 -0.425077)
(0.140018 -0.0597278 -0.372637)
(0 0 0)
(0.210095 -0.0971123 -0.200261)
(0.0606995 -0.0721312 -0.312857)
(0.0953705 -0.00847195 -0.140621)
(0.126798 0.0384352 -0.285937)
(0 0 0)
(0 0 0)
(-0.0235899 -0.013607 -0.317957)
(0.039542 -0.0139072 -0.133712)
(0.11865 0.150836 -0.224443)
(0.139631 0.0575307 -0.196948)
(0.175202 0.056339 -0.1272)
(0 0 0)
(0.0366808 0.0296692 0.0296083)
(0 0 0)
(0.133453 -0.0875862 -0.215183)
(0 0 0)
(0 0 0)
(0.121457 0.0689325 -0.241088)
(0.170687 0.0477737 -0.183267)
(0 0 0)
(0 0 0)
(0.0334209 -0.118554 -0.328873)
(0.226121 0.0550366 -0.398225)
(0.139776 -0.10541 -0.176329)
(0 0 0)
(0.0751473 -0.0734106 -0.288496)
(0.0791714 -0.0021389 -0.0682442)
(0.202793 0.0432742 -0.0137463)
(0 0 0)
(0 0 0)
(0.013658 -0.0327833 -0.297745)
(0.0517422 -0.035068 -0.15755)
(0.0757248 0.0660515 -0.134735)
(0.114722 0.0729273 -0.173577)
(0 0 0)
(0 0 0)
(0.0477783 0.0479207 -0.0277641)
(0.106273 0.0963653 -0.175662)
(0 0 0)
(0 0 0)
(0 0 0)
(0.122251 0.0305385 -0.213048)
(0.144335 0.112232 -0.163558)
(0 0 0)
(0 0 0)
(0.11884 -0.076478 -0.334334)
(4.7597e-15 -1.52682e-14 -2.94074e-14)
(0 0 0)
(0 0 0)
(0.0529135 -0.0988935 -0.235864)
(0.145558 -0.0192732 0.0117387)
(0.17931 0.0277978 -0.0937445)
(0 0 0)
(0 0 0)
(-0.0465846 -0.0615986 -0.220402)
(0.0355853 -0.0168828 -0.0361233)
(0.126627 0.0733484 -0.0909313)
(0.148111 0.0797375 -0.200472)
(0 0 0)
(0 0 0)
(0.0429062 0.0391137 0.00783576)
(0.145002 0.0433512 -0.0460677)
(0 0 0)
(0 0 0)
(0 0 0)
(0.120535 0.0417898 -0.189664)
(0 0 0)
(0 0 0)
(0 0 0)
(0.0455498 -0.1072 -0.237612)
(0.0612995 -0.159098 -0.1591)
(0 0 0)
(0 0 0)
(0.0757517 -0.0651354 -0.304796)
(0.0979811 -0.00916683 -0.0153407)
(0.154676 -0.01433 -0.0237553)
(0 0 0)
(0 0 0)
(-0.0441864 -0.0144567 -0.196689)
(0.043364 -0.0257284 0.0437444)
(0.156387 0.0327267 0.0779772)
(0 0 0)
(0 0 0)
(0 0 0)
(0.0430236 0.0152685 -0.0156066)
(0.121786 0.0357746 -0.025382)
(0.252797 0.168475 0.0747119)
(0 0 0)
(0 0 0)
(0 0 0)
(0 0 0)
(0 0 0)
(0 0 0)
(0.0734679 -0.116243 -0.225493)
(0.096558 -0.167408 -0.131906)
(0 0 0)
(0 0 0)
(0.0731897 -0.0792201 -0.225248)
(0.1182 0.0213187 0.00660394)
(0.155268 -0.0250396 -0.0332661)
(0.232068 0.00334548 -0.045375)
(0 0 0)
(-0.129674 -0.0594279 -0.157918)
(-0.00213737 -0.0215673 0.0787397)
(0.122544 0.0141616 0.0834386)
(0.1661 0.0533358 0.0408775)
(0 0 0)
(0 0 0)
(0.0267153 0.00424306 0.0191371)
(0.220694 0.102311 0.113445)
(0.327616 0.11264 -0.000727101)
(0 0 0)
(0 0 0)
(0 0 0)
(0 0 0)
(0 0 0)
(0 0 0)
(0.0094972 -0.164408 -0.0794577)
(0.0232938 -0.14424 -0.0565025)
(0 0 0)
(0 0 0)
(0.0428059 -0.0552372 -0.1641)
(0.0437214 -0.0578885 0.182317)
(0 0 0)
(0 0 0)
(0 0 0)
(-0.112417 0.0146565 0.0681697)
(-0.000658516 -0.0252284 -0.127651)
(0.100931 0.0101548 0.171105)
(0.161117 0.073928 -0.0194163)
(0 0 0)
(0 0 0)
(0.0350111 0.0175377 0.0204006)
(0.103013 0.0671976 0.0675796)
(0 0 0)
(0 0 0)
(0 0 0)
(0 0 0)
(0 0 0)
(0 0 0)
(0 0 0)
(0 0 0)
(0.0336998 -0.142767 0.0319771)
(0 0 0)
(0 0 0)
(0.117278 -0.0357931 -0.219497)
(0.0370223 -0.0688347 0.136799)
(0.145465 -0.0645694 0.056332)
(0 0 0)
(0 0 0)
(0.0454805 -0.00238799 -0.0307196)
(-0.0411494 0.00709175 0.277441)
(0.0788854 0.0340509 0.147144)
(0.18698 -0.0329882 0.123818)
(0 0 0)
(0 0 0)
(0.0524505 0.0511193 0.10208)
(0.0108775 0.149122 0.0316751)
(0.131151 0.0949809 0.136926)
(0 0 0)
(0 0 0)
(0.107161 -0.00612107 -0.00385935)
(0 0 0)
(0 0 0)
(0 0 0)
(0.117119 0.000311527 -0.072802)
(0 0 0)
(0 0 0)
(0 0 0)
(0.0344968 -0.0796804 -0.00454932)
(0.0854886 -0.0632809 0.140689)
(0 0 0)
(0 0 0)
(0 0 0)
(0.0889611 -0.0131258 0.0192563)
(0.0199945 0.00610684 0.0708226)
(0.180439 0.0452391 0.312275)
(0.165897 0.0129314 0.171754)
(0 0 0)
(0 0 0)
(-0.0234507 0.0481644 0.234948)
(0.13155 0.0641118 0.223104)
(0 0 0)
(0 0 0)
(0 0 0)
(0 0 0)
(0 0 0)
(0 0 0)
(0 0 0)
(0 0 0)
(0 0 0)
(0 0 0)
(0 0 0)
(-0.0213756 -0.124197 0.209398)
(0.136923 -0.0787165 0.195943)
(0 0 0)
(0 0 0)
(0 0 0)
(0.00105524 -0.020997 -0.0148428)
(0.0233416 -0.0252346 0.409397)
(0.0128786 -0.0179437 0.420858)
(0.206031 0.0523891 0.235955)
(0.206031 0.0523891 0.235955)
(0 0 0)
(0.0565023 0.000750378 0.29718)
(0.175354 0.0165201 0.171159)
(0 0 0)
(0 0 0)
(0 0 0)
(0 0 0)
(0 0 0)
(0 0 0)
(0 0 0)
(0 0 0)
(0 0 0)
(0 0 0)
(0 0 0)
(-0.0162669 -0.0781837 0.224296)
(0.0906891 -0.0191049 0.283028)
(0 0 0)
(0 0 0)
(0 0 0)
(0.0282607 -0.0122304 -0.0338665)
(-0.0311583 -0.0286688 0.396319)
(0.11354 0.00362329 0.34369)
(0 0 0)
(0 0 0)
(0 0 0)
(-0.0299817 0.0391041 0.25387)
(0.134482 0.0591022 0.321017)
(0.230717 0.103788 0.160172)
(0 0 0)
(0 0 0)
(0 0 0)
(0 0 0)
(0 0 0)
(0 0 0)
(0 0 0)
(0 0 0)
(0 0 0)
(0 0 0)
(0.00466177 -0.0895445 0.153131)
(0.0614086 -0.0639039 0.325637)
(0 0 0)
(0 0 0)
(0 0 0)
(-0.0823804 -0.034834 0.340266)
(0.0492118 -4.77283e-05 0.222102)
(0.116769 0.0147554 0.276795)
(0 0 0)
(0 0 0)
(0 0 0)
(0.0327177 0.0819045 0.326997)
(0.188516 0.125442 0.522023)
(0 0 0)
(0 0 0)
(0 0 0)
(0 0 0)
(0 0 0)
(0 0 0)
(0 0 0)
(0 0 0)
(0 0 0)
(0 0 0)
(0 0 0)
(-0.0143609 -0.0912528 0.167524)
(0.0462914 -0.0434437 0.373728)
(0 0 0)
(0 0 0)
(0 0 0)
(0 0 0)
(0.132409 -0.0631334 0.195526)
(0.11063 0.0223867 0.313964)
(0 0 0)
(0 0 0)
(0 0 0)
(0 0 0)
(0.160767 0.0769553 0.311816)
(0 0 0)
(0 0 0)
(0 0 0)
(0 0 0)
(0 0 0)
(0 0 0)
(0 0 0)
(0 0 0)
(0 0 0)
(0 0 0)
(0 0 0)
(0 0 0)
(0.105297 -0.0404628 0.358289)
(0 0 0)
(0 0 0)
(0 0 0)
(-0.0441326 -0.00849176 0.139683)
(0.0720495 -0.0615301 0.174039)
(0.155155 -0.0407349 0.439417)
(0 0 0)
(0 0 0)
(0 0 0)
(-0.0249076 0.02584 0.416124)
(0.0550547 0.187045 0.450922)
(0 0 0)
(0 0 0)
(0 0 0)
(0 0 0)
(0 0 0)
(0 0 0)
(0 0 0)
(0 0 0)
(0 0 0)
(0 0 0)
(0 0 0)
(0 0 0)
(0 0 0)
(0 0 0)
(0 0 0)
(0 0 0)
(0 0 0)
(0.00956361 -0.0413541 0.395839)
(0.0779013 -0.00831364 0.380952)
(0 0 0)
(0 0 0)
(0 0 0)
(0 0 0)
(0.0838401 0.068003 0.629027)
(0 0 0)
(0 0 0)
(0 0 0)
(0.155579 -0.0106806 0.32864)
(0 0 0)
(0 0 0)
(0 0 0)
(0 0 0)
(0 0 0)
(0 0 0)
(0 0 0)
(0 0 0)
(0 0 0)
(0 0 0)
(0 0 0)
(0 0 0)
(-0.0392904 -0.0412619 0.219023)
(0 0 0)
(0 0 0)
(0 0 0)
(0 0 0)
(0 0 0)
(0 0 0)
(0 0 0)
(0 0 0)
(0 0 0)
(0 0 0)
(0 0 0)
(0 0 0)
(0 0 0)
(0 0 0)
(0 0 0)
(0 0 0)
(0 0 0)
(0 0 0)
(0 0 0)
(0 0 0)
(0 0 0)
(0 0 0)
(0 0 0)
(0 0 0)
(0.0915473 -0.0724676 0.294302)
(0 0 0)
(0 0 0)
(0 0 0)
(0 0 0)
(-0.0293133 0.0382318 0.586195)
(0 0 0)
(0 0 0)
(0 0 0)
(0 0 0)
(0 0 0)
(0 0 0)
(0 0 0)
(0 0 0)
(0 0 0)
(0 0 0)
(0 0 0)
(0 0 0)
(0 0 0)
(0 0 0)
(0 0 0)
(0 0 0)
(0 0 0)
(0 0 0)
(0 0 0)
(0 0 0)
(0 0 0)
(0 0 0)
(0 0 0)
(0.0580785 -0.0350392 0.508019)
(0 0 0)
(0 0 0)
(0 0 0)
(0 0 0)
(0 0 0)
(0 0 0)
(0 0 0)
(0 0 0)
(0 0 0)
(0 0 0)
(0 0 0)
(0 0 0)
(0 0 0)
(0 0 0)
(0 0 0)
(0 0 0)
(0 0 0)
(0 0 0)
(0 0 0)
(0 0 0)
(0 0 0)
(0 0 0)
(0 0 0)
(0 0 0)
(0 0 0)
(0 0 0)
(0 0 0)
(0 0 0)
(0 0 0)
(0 0 0)
(0 0 0)
(0 0 0)
(0 0 0)
(0 0 0)
(0 0 0)
(0 0 0)
(0 0 0)
(0 0 0)
(0 0 0)
(0 0 0)
(0 0 0)
(0 0 0)
(0 0 0)
(0 0 0)
(0 0 0)
(0 0 0)
(0 0 0)
(0 0 0)
(0 0 0)
(0 0 0)
(0 0 0)
(0 0 0)
(0 0 0)
(0 0 0)
(0 0 0)
(0 0 0)
(0 0 0)
(0 0 0)
(0 0 0)
(0 0 0)
(0 0 0)
(0 0 0)
(0 0 0)
(0 0 0)
(0 0 0)
(0 0 0)
(0 0 0)
(0 0 0)
(0 0 0)
(0 0 0)
(0 0 0)
(0 0 0)
(0 0 0)
(0 0 0)
(0 0 0)
(0 0 0)
(0 0 0)
(0 0 0)
(0 0 0)
(0 0 0)
(0 0 0)
(0 0 0)
(0 0 0)
(0 0 0)
(0 0 0)
(0 0 0)
(0 0 0)
(0 0 0)
(0 0 0)
(0 0 0)
(0 0 0)
(0 0 0)
(0 0 0)
(0 0 0)
(0 0 0)
(0 0 0)
(0 0 0)
(0 0 0)
(0 0 0)
(0 0 0)
(0 0 0)
(0 0 0)
(0 0 0)
(0 0 0)
(0 0 0)
(0 0 0)
(0 0 0)
(0 0 0)
(0 0 0)
(0 0 0)
(0 0 0)
(0 0 0)
(0 0 0)
(0 0 0)
(0 0 0)
(0 0 0)
(0 0 0)
(0 0 0)
(0 0 0)
(0 0 0)
(0 0 0)
(0 0 0)
(0 0 0)
(0 0 0)
(0 0 0)
(0 0 0)
(0 0 0)
(0 0 0)
(0 0 0)
(0 0 0)
(0 0 0)
(0 0 0)
(0 0 0)
(0 0 0)
(0 0 0)
(0 0 0)
(0 0 0)
(0 0 0)
(0 0 0)
(0 0 0)
(0 0 0)
(0 0 0)
(0 0 0)
(0 0 0)
(0 0 0)
(0 0 0)
(0 0 0)
(0 0 0)
(0 0 0)
(0 0 0)
(0 0 0)
(0 0 0)
(0 0 0)
(0 0 0)
(0 0 0)
(0 0 0)
(0 0 0)
(0 0 0)
(0 0 0)
(0 0 0)
(0 0 0)
(0 0 0)
(0 0 0)
(0 0 0)
(0 0 0)
(0 0 0)
(0 0 0)
(0 0 0)
(0 0 0)
(0 0 0)
(0 0 0)
(0 0 0)
(0 0 0)
(0 0 0)
(0 0 0)
(0 0 0)
(0 0 0)
(0 0 0)
(0 0 0)
(0 0 0)
(0 0 0)
(0 0 0)
(0 0 0)
(0 0 0)
(0 0 0)
(0 0 0)
(0 0 0)
(0 0 0)
(0 0 0)
(0 0 0)
(0 0 0)
(0 0 0)
(0 0 0)
(0 0 0)
(0 0 0)
(0 0 0)
(0 0 0)
(0 0 0)
(0 0 0)
(0 0 0)
(0 0 0)
(0 0 0)
(0 0 0)
(0 0 0)
(0 0 0)
(0 0 0)
(0 0 0)
(0 0 0)
(0 0 0)
(0 0 0)
(0 0 0)
(0 0 0)
(0 0 0)
(0 0 0)
(0 0 0)
(0 0 0)
(0 0 0)
(0 0 0)
(0 0 0)
(0 0 0)
(0 0 0)
(0 0 0)
(0 0 0)
(0 0 0)
(0 0 0)
(0 0 0)
(0 0 0)
(0 0 0)
(0 0 0)
(0 0 0)
(0 0 0)
(0 0 0)
(0 0 0)
(0 0 0)
(0 0 0)
(0 0 0)
(0 0 0)
(0 0 0)
(0 0 0)
(0 0 0)
(0 0 0)
(0 0 0)
(0 0 0)
(0 0 0)
(0 0 0)
(0 0 0)
(0 0 0)
(0 0 0)
(0 0 0)
(0 0 0)
(0 0 0)
(0 0 0)
(0 0 0)
(0 0 0)
(0 0 0)
(0 0 0)
(0 0 0)
(0 0 0)
(0 0 0)
(0 0 0)
(0 0 0)
(0 0 0)
(0 0 0)
(0 0 0)
(0 0 0)
(0 0 0)
(0 0 0)
(0 0 0)
(0 0 0)
(0 0 0)
(0 0 0)
(0 0 0)
(0 0 0)
(0 0 0)
(0 0 0)
(0 0 0)
(0 0 0)
(0 0 0)
(0 0 0)
(0 0 0)
(0 0 0)
(0 0 0)
(0 0 0)
(0 0 0)
(0 0 0)
(0 0 0)
(0 0 0)
(0 0 0)
(0 0 0)
(0 0 0)
(0 0 0)
(0 0 0)
(0 0 0)
(0 0 0)
(0 0 0)
(0 0 0)
(0 0 0)
(0 0 0)
(0 0 0)
(0 0 0)
(0 0 0)
(0 0 0)
(0 0 0)
(0 0 0)
(0 0 0)
(0 0 0)
(0 0 0)
(0 0 0)
(0 0 0)
(0 0 0)
(0 0 0)
(0 0 0)
(0 0 0)
(0 0 0)
(0 0 0)
(0 0 0)
(0 0 0)
(0 0 0)
(0 0 0)
(0 0 0)
(0 0 0)
(0 0 0)
(0 0 0)
(0 0 0)
(0 0 0)
(0 0 0)
(0 0 0)
(0 0 0)
(0 0 0)
(0 0 0)
(0 0 0)
(0 0 0)
(0 0 0)
(0 0 0)
(0 0 0)
(0 0 0)
(0 0 0)
(0 0 0)
(0 0 0)
(0 0 0)
(0 0 0)
(0 0 0)
(0 0 0)
(0 0 0)
(0 0 0)
(0 0 0)
(0 0 0)
(0 0 0)
(0 0 0)
(0 0 0)
(0 0 0)
(0 0 0)
(0 0 0)
(0 0 0)
(0 0 0)
(0 0 0)
(0 0 0)
(0 0 0)
(0 0 0)
(0 0 0)
(0 0 0)
(0 0 0)
(0 0 0)
(0 0 0)
(0 0 0)
(0 0 0)
(0 0 0)
(0 0 0)
(0 0 0)
(0 0 0)
(0 0 0)
(0 0 0)
(0 0 0)
(0 0 0)
(0 0 0)
(0 0 0)
(0 0 0)
(0 0 0)
(0 0 0)
(0 0 0)
(0 0 0)
(0 0 0)
(0 0 0)
(0 0 0)
(0 0 0)
(0 0 0)
(0 0 0)
(0 0 0)
(0 0 0)
(0 0 0)
(0 0 0)
(0 0 0)
(0 0 0)
(0 0 0)
(0 0 0)
(0 0 0)
(0 0 0)
(0 0 0)
(0 0 0)
(0 0 0)
(0 0 0)
(0 0 0)
(0 0 0)
(0 0 0)
(0 0 0)
(0 0 0)
(0 0 0)
(0 0 0)
(0 0 0)
(0 0 0)
(0 0 0)
(0 0 0)
(0 0 0)
(0 0 0)
(0 0 0)
(0 0 0)
(0 0 0)
(0 0 0)
(0 0 0)
(0 0 0)
(0 0 0)
(0 0 0)
(0 0 0)
(0 0 0)
(0 0 0)
(0 0 0)
(0 0 0)
(0 0 0)
(0 0 0)
(0 0 0)
(0 0 0)
(0 0 0)
(0 0 0)
(0 0 0)
(0 0 0)
(0 0 0)
(0 0 0)
(0 0 0)
(0 0 0)
(0 0 0)
(0 0 0)
(0 0 0)
(0 0 0)
(0 0 0)
(0 0 0)
(0 0 0)
(0 0 0)
(0 0 0)
(0 0 0)
(0 0 0)
(0 0 0)
(0 0 0)
(0 0 0)
(0 0 0)
(0 0 0)
(0 0 0)
(0 0 0)
(0 0 0)
(0 0 0)
(0 0 0)
(0 0 0)
(0 0 0)
(0 0 0)
(0 0 0)
(0 0 0)
(0 0 0)
(0 0 0)
(0 0 0)
(0 0 0)
(0 0 0)
(0 0 0)
(0 0 0)
(0 0 0)
(0 0 0)
(0 0 0)
(0 0 0)
(0 0 0)
(0 0 0)
(0 0 0)
(0 0 0)
(0 0 0)
(0 0 0)
(0 0 0)
(0 0 0)
(0 0 0)
(0 0 0)
(0 0 0)
(0 0 0)
(0 0 0)
(0 0 0)
(0 0 0)
(0 0 0)
(0 0 0)
(0 0 0)
(0 0 0)
(0 0 0)
(0 0 0)
(0 0 0)
(0 0 0)
(0 0 0)
(0 0 0)
(0 0 0)
(0 0 0)
(0 0 0)
(0 0 0)
(0 0 0)
(0 0 0)
(0 0 0)
(0 0 0)
(0 0 0)
(0 0 0)
(0 0 0)
(0 0 0)
(0 0 0)
(0 0 0)
(0 0 0)
(0 0 0)
(0 0 0)
(0 0 0)
(0 0 0)
(0 0 0)
(0 0 0)
(0 0 0)
(0 0 0)
(0 0 0)
(0 0 0)
(0 0 0)
(0 0 0)
(0 0 0)
(0 0 0)
(0 0 0)
(0 0 0)
(0 0 0)
(0 0 0)
(0 0 0)
(0 0 0)
(0 0 0)
(0 0 0)
(0 0 0)
(0 0 0)
(0 0 0)
(0 0 0)
(0 0 0)
(0 0 0)
(0 0 0)
(0 0 0)
(0 0 0)
(0 0 0)
(0 0 0)
(0 0 0)
(0 0 0)
(0 0 0)
(0 0 0)
(0 0 0)
(0 0 0)
(0 0 0)
(0 0 0)
(0 0 0)
(0 0 0)
(0 0 0)
(0 0 0)
(0 0 0)
(0 0 0)
(0 0 0)
(0 0 0)
(0 0 0)
(0 0 0)
(0 0 0)
(0 0 0)
(0 0 0)
(0 0 0)
(0 0 0)
(0 0 0)
(0 0 0)
(0 0 0)
(0 0 0)
(0 0 0)
(0 0 0)
(0 0 0)
(0 0 0)
(0 0 0)
(0 0 0)
(0 0 0)
(0 0 0)
(0 0 0)
(0 0 0)
(0 0 0)
(0 0 0)
(0 0 0)
(0 0 0)
(0 0 0)
(0 0 0)
(0 0 0)
(0 0 0)
(0 0 0)
(0 0 0)
(0 0 0)
(0 0 0)
(0 0 0)
(0 0 0)
(0 0 0)
(0 0 0)
(0 0 0)
(0 0 0)
(0 0 0)
(0 0 0)
(0 0 0)
(0 0 0)
(0 0 0)
(0 0 0)
(0 0 0)
(0 0 0)
(0 0 0)
(0 0 0)
(0 0 0)
(0 0 0)
(0 0 0)
(0 0 0)
(0 0 0)
(0 0 0)
(0 0 0)
(0 0 0)
(0 0 0)
(0 0 0)
(0 0 0)
(0 0 0)
(0 0 0)
(0 0 0)
(0 0 0)
(0 0 0)
(0 0 0)
(0 0 0)
(0 0 0)
(0 0 0)
(0 0 0)
(0 0 0)
(0 0 0)
(0 0 0)
(0 0 0)
(0 0 0)
(0 0 0)
(0 0 0)
(0 0 0)
(0 0 0)
(0 0 0)
(0 0 0)
(0 0 0)
(0 0 0)
(0 0 0)
(0 0 0)
(0 0 0)
(0 0 0)
(0 0 0)
(0 0 0)
(0 0 0)
(0 0 0)
(0 0 0)
(0 0 0)
(0 0 0)
(0 0 0)
(0 0 0)
(0 0 0)
(0 0 0)
(0 0 0)
(0 0 0)
(0 0 0)
(0 0 0)
(0 0 0)
(0 0 0)
(0 0 0)
(0 0 0)
(0 0 0)
(0 0 0)
(0 0 0)
(0 0 0)
(0 0 0)
(0 0 0)
(0 0 0)
(0 0 0)
(0 0 0)
(0 0 0)
(0 0 0)
(0 0 0)
(0 0 0)
(0 0 0)
(0 0 0)
(0 0 0)
(0 0 0)
(0 0 0)
(0 0 0)
(0 0 0)
(0 0 0)
(0 0 0)
(0 0 0)
(0 0 0)
(0 0 0)
(0 0 0)
(0 0 0)
(0 0 0)
(0 0 0)
(0 0 0)
(0 0 0)
(0 0 0)
(0 0 0)
(0 0 0)
(0 0 0)
(0 0 0)
(0 0 0)
(0 0 0)
(0 0 0)
(0 0 0)
(0 0 0)
(0 0 0)
(0 0 0)
(0 0 0)
(0 0 0)
(0 0 0)
(0 0 0)
(0 0 0)
(0 0 0)
(0 0 0)
(0 0 0)
(0 0 0)
(0 0 0)
(0 0 0)
(0 0 0)
(0 0 0)
(0 0 0)
(0 0 0)
(0 0 0)
(0 0 0)
(0 0 0)
(0 0 0)
(0 0 0)
(0 0 0)
(0 0 0)
(0 0 0)
(0 0 0)
(0 0 0)
(0 0 0)
(0 0 0)
(0 0 0)
(0 0 0)
(0 0 0)
(0 0 0)
(0 0 0)
(0 0 0)
(0 0 0)
(0 0 0)
(0 0 0)
(0 0 0)
(0 0 0)
(0 0 0)
(0 0 0)
(0 0 0)
(0 0 0)
(0 0 0)
(0 0 0)
(0 0 0)
(0 0 0)
(0 0 0)
(0 0 0)
(0 0 0)
(0 0 0)
(0 0 0)
(0 0 0)
(0 0 0)
(0 0 0)
(0 0 0)
(0 0 0)
(0 0 0)
(0 0 0)
(0 0 0)
(0 0 0)
(0 0 0)
(0 0 0)
(0 0 0)
(0 0 0)
(0 0 0)
(0 0 0)
(0 0 0)
(0 0 0)
(0 0 0)
(0 0 0)
(0 0 0)
(0 0 0)
(0 0 0)
(0 0 0)
(0 0 0)
(0 0 0)
(0 0 0)
(0 0 0)
(0 0 0)
(0 0 0)
(0 0 0)
(0 0 0)
(0 0 0)
(0 0 0)
(0 0 0)
(0 0 0)
(0 0 0)
(0 0 0)
(0 0 0)
(0 0 0)
(0 0 0)
(0 0 0)
(0 0 0)
(0 0 0)
(0 0 0)
(0 0 0)
(0 0 0)
(0 0 0)
(0 0 0)
(0 0 0)
(0 0 0)
(0 0 0)
(0 0 0)
(0 0 0)
(0 0 0)
(0 0 0)
(0 0 0)
(0 0 0)
(0 0 0)
(0 0 0)
(0 0 0)
(0 0 0)
(0 0 0)
(0 0 0)
(0 0 0)
(0 0 0)
(0 0 0)
(0 0 0)
(0 0 0)
(0 0 0)
(0 0 0)
(0 0 0)
(0 0 0)
(0 0 0)
(0 0 0)
(0 0 0)
(0 0 0)
(0 0 0)
(0 0 0)
(0 0 0)
(0 0 0)
(0 0 0)
(0 0 0)
(0 0 0)
(0 0 0)
(0 0 0)
(0 0 0)
(0 0 0)
(0 0 0)
(0 0 0)
(0 0 0)
(0 0 0)
(0 0 0)
(0 0 0)
(0 0 0)
(0 0 0)
(0 0 0)
(0 0 0)
(0 0 0)
(0 0 0)
(0 0 0)
(0 0 0)
(0 0 0)
(0 0 0)
(0 0 0)
(0 0 0)
(0 0 0)
(0 0 0)
(0 0 0)
(0 0 0)
(0 0 0)
(0 0 0)
(0 0 0)
(0 0 0)
(0 0 0)
(0 0 0)
(0 0 0)
(0 0 0)
(0 0 0)
(0 0 0)
(0 0 0)
(0 0 0)
(0 0 0)
(0 0 0)
(0 0 0)
(0 0 0)
(0 0 0)
(0 0 0)
(0 0 0)
(0 0 0)
(0 0 0)
(0 0 0)
(0 0 0)
(0 0 0)
(0 0 0)
(0 0 0)
(0 0 0)
(0 0 0)
(0 0 0)
(0 0 0)
(0 0 0)
(0 0 0)
(0 0 0)
(0 0 0)
(0 0 0)
(0 0 0)
(0 0 0)
(0 0 0)
(0 0 0)
(0 0 0)
(0 0 0)
(0 0 0)
(0 0 0)
(0 0 0)
(0 0 0)
(0 0 0)
(0 0 0)
(0 0 0)
(0 0 0)
(0 0 0)
(0 0 0)
(0 0 0)
(0 0 0)
(0 0 0)
(0 0 0)
(0 0 0)
(0 0 0)
(0 0 0)
(0 0 0)
(0 0 0)
(0 0 0)
(0 0 0)
(0 0 0)
(0 0 0)
(0 0 0)
(0 0 0)
(0 0 0)
(0 0 0)
(0 0 0)
(0 0 0)
(0 0 0)
(0 0 0)
(0 0 0)
(0 0 0)
(0 0 0)
(0 0 0)
(0 0 0)
(0 0 0)
(0 0 0)
(0 0 0)
(0 0 0)
(0 0 0)
(0 0 0)
(0 0 0)
(0 0 0)
(0 0 0)
(0 0 0)
(0 0 0)
(0 0 0)
(0 0 0)
(0 0 0)
(0 0 0)
(0 0 0)
(0 0 0)
(0 0 0)
(0 0 0)
(0 0 0)
(0 0 0)
(0 0 0)
(0 0 0)
(0 0 0)
(0 0 0)
(0 0 0)
(0 0 0)
(0 0 0)
(0 0 0)
(0 0 0)
(0 0 0)
(0 0 0)
(0 0 0)
(0 0 0)
(0 0 0)
(0 0 0)
(0 0 0)
(0 0 0)
(0 0 0)
(0 0 0)
(0 0 0)
(0 0 0)
(0 0 0)
(0 0 0)
(0 0 0)
(0 0 0)
(0 0 0)
(0 0 0)
(0 0 0)
(0 0 0)
(0 0 0)
(0 0 0)
(0 0 0)
(0 0 0)
(0 0 0)
(0 0 0)
(0 0 0)
(0 0 0)
(0 0 0)
(0 0 0)
(0 0 0)
(0 0 0)
(0 0 0)
(0 0 0)
(0 0 0)
(0 0 0)
(0 0 0)
(0 0 0)
(0 0 0)
(0 0 0)
(0 0 0)
(0 0 0)
(0 0 0)
(0 0 0)
(0 0 0)
(0 0 0)
(0 0 0)
(0 0 0)
(0 0 0)
(0 0 0)
(0 0 0)
(0 0 0)
(0 0 0)
(0 0 0)
(0 0 0)
(0 0 0)
(0 0 0)
(0 0 0)
(0 0 0)
(0 0 0)
(0 0 0)
(0 0 0)
(0 0 0)
(0 0 0)
(0 0 0)
(0 0 0)
(0 0 0)
(0 0 0)
(0 0 0)
(0 0 0)
(0 0 0)
(0 0 0)
(0 0 0)
(0 0 0)
(0 0 0)
(0 0 0)
(0 0 0)
(0 0 0)
(0 0 0)
(0 0 0)
(0 0 0)
(0 0 0)
(0 0 0)
(0 0 0)
(0 0 0)
(0 0 0)
(0 0 0)
(0 0 0)
(0 0 0)
(0 0 0)
(0 0 0)
(0 0 0)
(0 0 0)
(0 0 0)
(0 0 0)
(0 0 0)
(0 0 0)
(0 0 0)
(0 0 0)
(0 0 0)
(0 0 0)
(0 0 0)
(0 0 0)
(0 0 0)
(0 0 0)
(0 0 0)
(0 0 0)
(0 0 0)
(0 0 0)
(0 0 0)
(0 0 0)
(0 0 0)
(0 0 0)
(0 0 0)
(0 0 0)
(0 0 0)
(0 0 0)
(0 0 0)
(0 0 0)
(0 0 0)
(0 0 0)
(0 0 0)
(0 0 0)
(0 0 0)
(0 0 0)
(0 0 0)
(0 0 0)
(0 0 0)
(0 0 0)
(0 0 0)
(0 0 0)
(0 0 0)
(0 0 0)
(0 0 0)
(0 0 0)
(0 0 0)
(0 0 0)
(0 0 0)
(0 0 0)
(0 0 0)
(0 0 0)
(0 0 0)
(0 0 0)
(0 0 0)
(0 0 0)
(0 0 0)
(0 0 0)
(0 0 0)
(0 0 0)
(0 0 0)
(0 0 0)
(0 0 0)
(0 0 0)
(0 0 0)
(0 0 0)
(0 0 0)
(0 0 0)
(0 0 0)
(0 0 0)
(0 0 0)
(0 0 0)
(0 0 0)
(0 0 0)
(-0.0749319 0.111021 -0.0198361)
(0.0037949 0.0245037 -0.0103632)
(-0.0548185 0.15674 -0.0114102)
(-0.0354967 0.0713301 0.0238948)
(-0.0162778 0.0201059 -0.00345051)
(-0.2239 0.00627552 0.0389457)
(-0.289577 -0.0970919 0.022273)
(-0.225105 -0.110531 0.00545699)
(0.0279656 0.0780326 -0.0840504)
(0.0224791 0.0497643 -0.002667)
(-0.0104953 0.177243 0.0403983)
(0.0979697 0.101467 -0.0278818)
(-0.0127996 0.119176 0.0777461)
(0.00616442 0.230017 0.0651392)
(-0.150163 0.132199 0.0370359)
(-0.153556 0.113195 0.0374023)
(-0.484025 0.0680308 0.0514795)
(-0.587342 -0.083029 0.0753073)
(-0.473175 -0.157255 0.0102408)
(-0.666342 -0.0510589 0.0505235)
(-0.522107 -0.0773387 0.00412835)
(-0.30529 -0.175011 -0.0235804)
(-0.172304 -0.136478 -0.026972)
(-0.351852 -0.120251 -0.0306127)
(-0.178818 -0.12374 -0.0375799)
(-0.0762733 -0.0611914 -0.0386841)
(0.0425734 0.192131 -0.0248928)
(0.0214424 0.00121492 -0.0206423)
(0.0485818 0.0854293 0.0256733)
(0.0558368 0.237472 0.0223485)
(-0.149669 0.0551969 0.0388526)
(0.00526294 0.148299 0.0470318)
(-0.091598 0.0189175 0.0263854)
(-0.220047 -0.00353206 0.0255596)
(-0.526826 -0.0327848 0.0306344)
(-0.148237 -0.0176287 0.0131603)
(-0.291721 -0.00249736 0.0386372)
(-0.671703 0.020586 0.0262081)
(-0.537069 0.0107487 -0.00274018)
(-0.681651 0.11919 0.0247986)
(-0.567919 0.12714 0.00586034)
(-0.380689 -0.0118521 -0.0335329)
(-0.214822 -0.0448551 -0.040445)
(-0.410299 0.110925 -0.0177857)
(-0.19583 0.0701391 -0.0389396)
(-0.0727402 -0.0257958 -0.0296524)
(-0.0692761 0.0572966 -0.0487773)
(-0.00818662 0.0648931 -0.0358549)
(-0.00381002 -0.000429381 -0.00405281)
(-0.0115691 0.00019021 0.0111893)
(0.00173243 -0.0603868 0.020395)
(-0.00879028 0.0317598 0.0246201)
(-0.0235726 0.00990997 0.0111861)
(-0.00356785 -0.0208975 0.00944694)
(-0.0100698 -0.0287609 -0.000968669)
(-0.124269 0.0137544 0.00657771)
(-0.255397 0.0620618 0.0265587)
(-0.0744526 -0.0552839 -0.00774078)
(-0.157099 0.0727074 0.0122785)
(-0.604263 0.152984 0.041686)
(-0.578552 0.179051 0.0343968)
(-0.485211 0.174643 0.0413994)
(-0.574795 0.217252 0.0440486)
(-0.422057 0.159293 0.0110859)
(-0.218579 0.135851 -0.032116)
(-0.415958 0.207254 0.0158809)
(-0.241903 0.198069 -0.0252708)
(-0.0708343 0.12534 -0.0422562)
(-0.00856665 0.0927816 -0.0406456)
(-0.111794 0.162708 -0.0228004)
(0.0314471 -0.0667135 -0.0286064)
(0.022893 -0.0548567 0.00835853)
(-0.024891 -0.0401484 0.00437299)
(0.00753095 -0.0229873 -0.0156554)
(-0.0279367 -0.00979845 0.00487825)
(-0.08799 -0.028694 0.0183043)
(-0.163867 0.0129615 0.0194528)
(-0.120896 -0.0493829 0.0238061)
(-0.160814 -0.127135 0.00690019)
(-0.405556 0.000690454 0.0384466)
(-0.538615 0.223918 0.0652745)
(-0.258152 -0.0836169 0.00284461)
(-0.350644 0.114556 0.0476825)
(-0.395317 0.2544 0.0306558)
(-0.242593 0.242734 -0.00301783)
(-0.299527 0.203178 0.0296616)
(-0.193384 0.170629 0.0070459)
(-0.129981 0.152377 -0.0250337)
(-0.0224615 -0.00455495 0.00264151)
(-0.146364 -0.0948391 -0.00925601)
(-0.142804 -0.110108 -0.0279924)
(-0.0811437 -0.0423327 -0.0503843)
(-0.0881544 -0.0924919 -0.0329347)
(-0.12606 0.0349344 -0.000152383)
(-0.0583887 -0.0439152 -0.0338732)
(-0.11774 0.0624572 0.0108812)
(-0.13938 0.105126 -0.0568315)
(-0.153587 0.0820493 -0.0539554)
(-0.193247 0.0256514 0.0436143)
(-0.160749 0.124573 -0.058763)
(-0.222088 0.0628695 0.120469)
(-0.182362 0.0188437 0.034892)
(-0.222522 0.0888885 -0.0706478)
(-0.25914 0.0692622 0.0942543)
(-0.351689 -0.0455738 0.130336)
(-0.342885 -0.127544 0.0899886)
(-0.192128 -0.00695882 0.0747122)
(-0.276806 -0.0205911 0.125395)
(-0.240404 -0.0806588 0.0815015)
(-0.273612 -0.149947 0.0449067)
(-0.196027 -0.0963263 0.0226339)
(0.0329196 0.0235455 -0.217638)
(0.020434 0.0165145 -0.314693)
(-0.062751 0.163479 0.0404681)
(0.0974598 0.0548049 -0.0988637)
(0.0964069 0.180812 0.15613)
(0.0410842 -0.0152937 -0.0243501)
(-0.105719 0.0855532 0.0962828)
(0.0930116 0.0128965 -0.18743)
(0.0551702 0.112673 0.193662)
(-0.194467 -0.161439 -0.00607791)
(-0.307521 -0.0892765 -0.0358497)
(-0.178214 -0.113589 -0.0484027)
(-0.217793 -0.0876991 -0.0479691)
(-0.156508 -0.102227 -0.0720738)
(-0.219919 -0.035687 -0.0727524)
(-0.155188 -0.0489168 -0.111521)
(-0.0737786 -0.0957285 -0.0185242)
(-0.0524673 -0.0520593 -0.077324)
(0.071276 0.0517686 -0.194482)
(0.022267 -0.0565489 -0.157716)
(0.082776 0.0221286 0.013393)
(0.0552069 0.00500792 -0.283869)
(0.000786396 -0.0409782 -0.206924)
(0.082468 -0.00829327 -0.0445921)
(-0.063313 0.051036 0.00706714)
(-0.00676279 0.062442 0.100697)
(-0.0623572 0.00345511 -0.0693731)
(-0.0651622 0.0556246 -0.0266593)
(-0.00627667 0.0517771 0.0917159)
(0.00285067 -0.0168797 0.137396)
(0.0210623 -0.0947 0.0667248)
(-0.00315769 -0.0440232 -0.121317)
(0.00915878 -0.0390743 0.151746)
(-0.00236592 -0.056075 0.0221435)
(-0.00736084 0.097968 0.119485)
(-0.115863 0.142444 0.088984)
(-0.0925993 0.100244 0.0743174)
(-0.0268196 0.0750097 0.155983)
(-0.0699902 0.0928871 0.090893)
(0.00264293 -0.0534352 -0.119293)
(-0.0356941 -0.0647177 -0.208442)
(-0.112511 -0.0546065 0.155976)
(-0.0022232 -0.04477 -0.0905045)
(-0.129714 -0.0641129 0.156567)
(-0.0592081 -0.0352589 0.000700505)
(-0.262689 -0.00860985 0.191508)
(-0.077997 -0.0775532 -0.0396255)
(-0.165646 -0.073904 0.17947)
(-0.187122 0.127116 0.0617948)
(-0.267709 0.150086 0.106657)
(-0.159491 0.134584 0.0503925)
(-0.173956 -0.00254054 0.132962)
(-0.0860477 -4.29915e-05 0.0356939)
(-0.122255 -0.0213887 0.148708)
(-0.0277212 -0.00971011 0.0171109)
(-0.0397917 0.0478715 0.0578396)
(-0.167336 -0.0691091 0.111423)
(-0.150646 -0.0963601 0.118406)
(-0.156063 -0.111666 -0.00788805)
(-0.0822716 -0.0414943 -0.0812604)
(-0.0999445 -0.0699235 0.0905281)
(-0.125454 -0.0607207 0.0474587)
(-0.0499386 -0.0145421 -0.0591823)
(-0.23676 0.0947277 0.143096)
(-0.0866545 -0.0281213 -0.0588142)