/*--------------------------------*- C++ -*----------------------------------*\
| =========                 |                                                 |
| \\      /  F ield         | OpenFOAM: The Open Source CFD Toolbox           |
|  \\    /   O peration     | Version:  5.x                                   |
|   \\  /    A nd           | Web:      www.OpenFOAM.org                      |
|    \\/     M anipulation  |                                                 |
\*---------------------------------------------------------------------------*/
FoamFile
{
    version     2.0;
    format      ascii;
    class       volScalarField;
    location    "4.5";
    object      p;
}
// * * * * * * * * * * * * * * * * * * * * * * * * * * * * * * * * * * * * * //

dimensions      [0 2 -2 0 0 0 0];

internalField   nonuniform List<scalar> 
10571
(
32.6942
41.4632
34.3589
33.4792
35.8322
41.5123
36.7898
38.5471
53.7799
52.8703
41.2765
40.9046
46.9561
52.671
63.4331
64.5677
49.7985
84.0621
78.9221
93.4419
87.12
70.8119
70.0972
90.5056
34.1894
32.7692
32.5292
34.3966
34.6772
36.5837
34.272
35.1861
44.6276
48.617
40.8047
38.6997
36.0569
45.4704
57.6624
61.6157
42.2977
59.1358
67.0567
68.8879
65.467
68.4406
70.0871
71.4659
31.9227
30.5358
30.596
31.6071
31.3143
32.381
30.4717
29.9861
33.4987
42.7985
36.0751
34.795
32.9453
33.8821
33.3823
49.3228
35.1272
36.3764
47.9522
37.1807
39.5966
64.1899
68.4795
51.8598
30.042
28.9041
29.0646
28.7764
28.7623
29.6587
26.2967
26.1424
18.5941
29.8585
32.5163
33.5014
31.0604
25.6826
14.0301
18.352
31.0407
29.5414
20.1822
16.4569
14.1723
42.1323
50.3838
20.6419
28.0057
26.7337
26.9934
25.8849
26.4461
20.0274
22.9529
20.6876
13.7453
13.6815
23.7695
33.505
19.0739
14.5504
13.7431
13.9852
28.0893
16.1078
13.6168
13.6527
14.0408
25.2087
23.8523
14.1417
26.1338
22.7973
22.8777
22.4359
17.664
13.001
18.6891
15.0646
13.8075
13.8881
13.7683
12.8086
12.6202
12.5341
13.1109
13.6888
13.8396
13.7536
13.2802
13.2367
13.6132
13.6637
13.7632
14.676
14.0773
13.5949
20.0461
16.021
18.6989
18.8657
13.479
13.3481
14.2897
13.6459
13.8465
13.8277
13.7575
13.3296
13.2756
13.1332
13.5069
13.6211
13.762
13.731
13.2807
13.463
13.6124
13.6118
13.7371
13.7172
13.4661
13.5623
13.5949
13.2575
12.6586
18.33
14.181
13.5539
13.4203
12.6735
13.5938
13.7755
13.7483
13.6907
13.4693
13.4352
13.3562
13.5172
13.5337
13.6849
13.6958
13.2918
13.5617
13.6761
13.6137
13.7352
13.6843
13.5147
13.5961
13.6094
13.3629
12.9844
12.7771
13.2577
13.5005
12.9084
12.6408
13.4675
13.5822
13.652
13.6752
13.6645
13.6699
13.3061
13.4587
13.403
13.6067
13.6792
13.5256
13.5526
13.6726
13.586
13.6898
13.5674
13.6092
13.6063
13.4262
13.1647
13.5276
13.4488
13.5019
13.4479
13.2864
13.3519
13.4848
13.5725
13.765
13.7234
13.3487
13.4064
13.3348
13.5497
13.7679
13.605
13.6596
13.5631
13.5798
13.6446
13.6355
13.6156
13.4435
13.2809
13.3549
13.459
13.4743
13.586
13.3753
13.2423
13.4221
13.5129
13.8574
13.8318
13.4759
13.3445
13.3699
13.5197
13.9343
13.7325
13.6719
13.582
13.5554
13.7501
13.6841
13.6501
13.4416
13.465
13.3062
13.3922
13.435
13.7595
13.3617
13.1675
13.3778
13.4927
13.9068
13.8346
13.6504
13.4034
13.4395
13.5468
13.9819
13.8541
13.7087
13.6105
13.5766
13.8529
13.7482
13.6928
13.4062
13.6046
13.2909
13.3433
13.429
13.7781
13.4052
13.191
13.3908
13.5161
13.9185
13.8462
13.7786
13.5901
13.575
13.6312
13.9956
13.9385
13.7539
13.6626
13.6386
13.9363
13.813
13.7588
13.3525
13.5882
13.2889
13.2362
13.4313
13.7233
13.5221
13.3896
13.4897
13.5913
13.9177
13.89
13.9289
13.84
13.7311
13.7195
14.0108
13.9712
13.8001
13.7298
13.7313
13.9804
13.8699
13.8266
13.4474
13.6655
13.4237
13.3237
13.5236
13.7616
13.6621
13.6591
13.6218
13.6771
13.9548
13.9427
14.1261
14.0063
13.8457
13.7983
13.9235
13.9907
13.8569
13.7961
13.8065
13.9723
13.9051
13.8599
13.6648
13.8115
13.6168
13.5938
13.6968
13.8552
13.832
13.8504
13.7267
13.77
13.9414
13.8998
14.2105
13.9895
13.8951
13.8543
13.8198
13.9412
13.8938
13.8417
13.8639
13.947
13.9096
13.8779
13.852
13.9386
13.808
13.8188
13.8552
13.8925
13.9565
13.9328
13.8037
13.8468
13.8484
13.8235
14.116
13.9451
13.9028
13.8884
13.883
13.9232
13.9026
13.8605
13.8947
13.9225
13.9003
13.884
13.9356
13.9952
13.9347
13.913
13.9458
13.835
13.9116
13.9295
13.8477
13.896
13.766
13.6353
13.9152
13.9079
13.8956
13.9054
13.9424
13.8753
13.897
13.8708
13.9102
13.8901
13.8916
13.8862
13.9548
13.9663
13.9443
13.9355
13.9731
13.6798
13.7352
13.8841
13.8626
13.9241
13.6922
13.3643
13.7357
13.8871
13.8945
13.918
13.3552
13.7457
13.89
13.89
13.9229
13.8819
13.8981
13.9262
13.961
13.8939
13.9174
13.9415
13.9731
13.636
13.6352
13.8659
13.8801
13.9458
13.8325
13.4832
13.8005
13.909
13.9161
13.9353
12.9206
13.8646
13.9116
13.9162
13.9396
13.9706
13.9384
13.9545
13.9705
13.8575
13.8933
13.9462
13.9735
13.7423
13.6406
13.8862
13.9121
13.9671
14.1598
13.9705
13.9419
13.9286
13.9414
13.9574
13.9216
13.9645
13.9484
13.9398
13.9593
14.0086
13.9915
13.9773
13.9709
13.8202
13.8673
13.9463
13.9812
13.8544
13.7122
13.9197
13.9508
13.9871
14.3074
14.2931
13.9304
13.9406
13.967
13.9818
14.3432
13.9773
13.9625
13.9559
13.979
13.9619
14.0089
13.9787
13.9625
13.8317
13.8475
13.932
13.9947
13.823
13.7941
13.9519
13.9826
14.0075
14.0341
13.964
13.8694
13.9509
13.9921
14.0045
14.1444
13.9893
13.9744
13.9755
13.9995
13.9371
13.9956
13.9846
13.9866
13.9057
13.8581
13.9552
14.02
13.8175
13.9134
13.9804
14.008
14.0223
13.8539
13.7647
13.9074
13.9716
14.0151
14.0244
14.0265
14.0038
13.9966
14.0008
14.0182
13.9311
13.9867
13.9791
14.0371
13.91
14.006
14.0226
14.0461
13.938
14.0335
14.0234
14.0354
14.0276
14.0205
13.931
13.9857
13.9956
14.0301
14.037
14.0192
14.0082
13.9829
14.0155
14.0304
13.9506
13.96
13.9642
14.07
14.0556
14.0952
14.0623
14.0567
14.1724
14.0828
14.0502
14.0345
14.0291
14.1182
14.0491
14.0352
14.0191
14.0376
14.0414
14.0302
14.0293
13.9988
14.0254
14.0386
14.0358
14.0078
14.0105
14.0793
14.1127
14.0937
14.069
14.0513
14.1604
14.0647
14.0552
14.0234
14.0259
14.102
14.0556
14.0456
14.0214
14.0346
14.042
14.033
14.0364
14.0146
14.0289
14.0418
14.0865
14.0729
14.0413
14.0773
14.09
14.0744
14.0628
14.0393
14.1154
14.0308
14.0425
14.0252
14.0408
14.0657
14.0292
14.036
14.0053
14.0246
14.0412
14.0355
14.0363
13.9867
14.0185
14.0367
14.0535
14.0422
14.0299
14.0779
14.0765
14.0644
14.0572
14.0317
14.0856
14.0103
14.0245
14.0479
14.0753
14.0544
14.023
14.0273
13.9931
14.0072
14.0428
14.0365
14.0633
13.9842
14.007
14.029
14.0261
14.0208
14.0255
14.0777
14.0548
14.0624
14.0544
14.0305
14.0573
14.005
14.0092
14.0579
14.0846
14.0482
14.0349
14.0689
14.0038
13.9868
14.0331
14.0603
14.1036
13.9988
13.9986
14.0209
14.0456
14.0134
14.0296
14.0666
14.0161
14.0332
14.0421
14.025
14.0205
14.0079
14.008
14.039
14.0665
14.0217
14.016
14.0941
14.0131
13.9939
14.0339
14.0556
14.1429
14.0041
13.9866
14.0174
14.0709
13.9966
14.0358
14.0324
13.9674
13.9651
14.0071
14.0068
13.9802
13.9807
13.9755
14.0005
14.0404
13.9735
13.9722
14.0427
13.9908
13.9762
14.0268
14.019
14.103
14.0052
13.9925
14.0262
14.0434
13.9783
14.0281
13.976
13.9175
13.8751
13.9501
13.9697
13.9278
13.9209
13.9295
13.9506
13.9969
13.9128
13.911
13.9585
13.922
13.9347
13.988
13.9673
13.9871
13.9445
13.9513
14.0131
13.968
13.9263
13.9863
13.9046
13.8714
13.8031
13.876
13.9191
13.8639
13.8614
13.8765
13.9075
13.9467
13.867
13.8646
13.8913
13.8482
13.8712
13.9296
13.9161
13.8862
13.8445
13.8854
13.9592
13.8888
13.8655
13.9134
13.8553
13.862
13.807
13.8252
13.8782
13.8425
13.842
13.8285
13.8727
13.9042
13.8589
13.866
13.8459
13.791
13.8201
13.8752
13.8813
13.8145
13.7535
13.8201
13.8915
13.8181
13.7946
13.8383
13.8563
13.8759
13.8563
13.8336
13.8613
13.8649
13.8553
13.7906
13.8422
13.8758
13.8704
13.8775
13.8196
13.7664
13.8068
13.8479
13.8638
13.7777
13.7253
13.7826
13.8422
13.7752
13.7308
13.787
13.8824
13.9048
13.9093
13.8697
13.8643
13.8921
13.8775
13.7887
13.8112
13.8557
13.8925
13.8755
13.8072
13.7652
13.8026
13.8337
13.857
13.7823
13.7425
13.7816
13.8291
13.7799
13.7174
13.7853
13.9128
13.9336
13.9484
13.9112
13.8762
13.9228
13.9004
13.8076
13.794
13.8446
13.9109
13.8824
13.8139
13.7844
13.8102
13.8368
13.854
13.8179
13.7807
13.8016
13.8408
13.8284
13.777
13.8211
13.9354
13.9438
13.9538
13.9602
13.9059
13.934
13.8955
13.8225
13.8099
13.8536
13.9181
13.8894
13.8345
13.8256
13.8375
13.8603
13.8493
13.8559
13.8399
13.8373
13.8683
13.8944
13.8671
13.8713
13.9557
13.938
13.934
13.9897
13.9392
13.929
13.8914
13.8363
13.8468
13.8789
13.9157
13.889
13.862
13.8719
13.8813
13.8936
13.8452
13.8879
13.9003
13.8794
13.9066
13.9461
13.9574
13.9226
13.9507
13.9354
13.9181
13.9425
13.9337
13.9324
13.8773
13.8498
13.8725
13.9058
13.9041
13.8755
13.8877
13.9104
13.9123
13.9294
13.8434
13.9105
13.9175
13.9272
13.95
13.9772
13.9789
13.9564
13.9551
13.9454
13.9267
13.9144
13.9184
13.9201
13.8819
13.8755
13.8892
13.9299
13.8934
13.8521
13.9032
13.9368
13.962
13.9707
13.8467
13.9248
13.9373
14.009
14.0168
13.9892
14.0223
14.0506
13.9644
13.9625
13.9516
13.9319
13.9142
13.9136
13.8907
13.8814
13.9235
13.9515
13.8902
13.8296
13.9111
13.9557
14.0271
14.0178
13.8637
13.9386
13.9857
14.0644
14.0834
13.9924
14.0436
14.0808
13.9793
13.9719
13.968
13.9415
13.9217
13.9047
13.8947
13.8744
13.9517
13.9746
13.9
13.8144
13.9123
13.9739
14.0533
14.0362
13.8938
13.9469
13.9868
14.0801
14.0725
13.9909
14.0397
14.0577
13.9866
13.9887
13.9824
13.9511
13.9422
13.9248
13.9064
13.8775
13.9526
13.9919
13.9322
13.8412
13.9196
13.9849
14.0693
14.0199
13.9375
13.9517
13.9819
14.0329
14.0313
13.9889
14.0282
14.035
13.9896
14.0077
13.9958
13.9545
13.9601
13.9498
13.9204
13.8896
13.9469
14.0052
13.9916
13.9126
13.9504
13.9802
14.0832
14.0499
13.9832
13.953
13.9811
14.006
14.0216
13.9881
14.018
14.0193
13.9924
14.0078
14.0053
13.9563
13.9699
13.9673
13.9531
13.9074
13.9581
14.0019
14.0475
13.9894
13.9786
13.9707
14.0519
13.9961
14.0129
13.9524
13.9811
14.0008
14.0101
13.9965
14.0113
14.0102
14.0022
14.0363
14.014
13.9713
13.978
14.0173
13.9902
13.9186
13.9902
14.0059
14.0731
14.0245
13.9876
13.9613
14.03
13.9667
14.0185
13.9572
13.9803
14.0017
14.0023
14.0138
14.0067
14.005
14.0098
14.0436
14.0218
13.986
13.9724
14.0342
14.0173
13.938
14.0191
14.0206
14.0479
14.0228
13.9896
13.9536
14.0153
13.9996
14.0001
13.968
13.979
14.0016
14.0076
14.0235
14.0029
14.0006
14.0107
14.029
14.0181
13.9811
13.9632
14.0225
14.039
13.9635
14.0038
14.0165
14.0232
14.0117
13.9993
13.9472
13.9891
13.9999
13.9929
13.9763
13.979
13.9944
14.0014
14.0274
13.9998
13.9961
14.0012
14.0143
14.005
13.9713
13.9587
14.0098
14.0278
13.9828
13.972
13.996
14.0012
13.9957
13.9968
13.9553
13.9582
13.9721
13.9904
13.976
13.9788
13.9819
13.9828
14.0255
13.9952
13.9904
13.9809
13.9966
13.9838
13.9398
13.9553
13.9946
13.9876
13.9924
13.9252
13.9425
13.9942
13.9801
13.9827
13.9542
13.9262
13.9256
13.9902
13.9721
13.9738
13.9678
13.9587
14.0159
13.9875
13.983
13.94
13.9719
13.9538
13.8896
13.9339
13.9742
13.9404
13.9725
13.893
13.907
14.0054
13.979
13.9645
13.9445
13.9084
13.8809
13.9979
13.9642
13.9636
13.9585
13.9377
13.9995
13.9786
13.9734
13.8961
13.9414
13.9208
13.8428
13.9081
13.9504
13.8936
13.9759
13.9034
13.8999
13.9852
13.9645
13.9409
13.9425
13.8988
13.8692
13.9885
13.9551
13.9534
13.9469
13.9273
13.9836
13.9692
13.96
13.874
13.9068
13.8922
13.8138
13.8744
13.9328
13.8872
13.9881
13.8956
13.9064
13.9654
13.9474
13.9175
13.9238
13.8909
13.8829
13.9746
13.9444
13.9408
13.9354
13.9195
13.9697
13.9576
13.9472
13.8688
13.8746
13.8614
13.81
13.8261
13.9195
13.8871
13.9337
13.9049
13.8975
13.9546
13.9373
13.8998
13.9044
13.8806
13.8854
13.9626
13.9321
13.9284
13.9215
13.9056
13.9576
13.9463
13.9337
13.8619
13.8539
13.8268
13.7912
13.7919
13.9137
13.8803
13.896
13.9118
13.8718
13.9559
13.9378
13.895
13.8892
13.8528
13.864
13.9561
13.9363
13.9193
13.9027
13.8782
13.9505
13.9382
13.9187
13.8576
13.8644
13.8056
13.7638
13.762
13.925
13.8674
13.8675
13.8629
13.798
13.9723
13.952
13.9063
13.8668
13.8178
13.8127
13.9702
13.9629
13.9198
13.8778
13.8365
13.9645
13.9379
13.904
13.86
13.9159
13.8269
13.7626
13.7354
13.9603
13.8494
13.8209
13.742
13.6768
14.0057
13.9832
13.9269
13.8451
13.7509
13.7097
13.9991
13.9867
13.9184
13.8422
13.7741
14.0017
13.9448
13.8873
13.8888
14.0183
13.9183
13.7953
13.6785
14.0244
13.8386
13.7393
13.5972
13.5049
14.0562
14.0301
13.9527
13.8125
13.6366
13.5098
14.0363
14.0019
13.9041
13.7853
13.67
14.03
13.9494
13.8698
14.0137
14.1729
14.1217
13.8879
13.5733
14.1136
13.8817
13.6011
13.3847
13.0856
14.1124
14.0884
13.9944
13.7678
13.4493
13.0662
14.0795
14.0247
13.8981
13.711
13.4912
14.0458
13.955
13.8541
14.1628
14.2979
14.3886
14.0121
13.4425
14.1993
14.007
13.4919
13.0683
12.1648
14.18
14.1532
14.0203
13.7303
13.2154
12.011
14.1295
14.0407
13.9102
13.6364
13.1541
14.0617
13.9709
13.8515
14.2679
14.3799
14.4725
14.2024
13.4146
14.2832
14.116
13.5566
12.7211
9.85566
14.2596
14.2293
14.0413
13.7048
12.9738
10.5065
-6.61331
14.182
14.0499
13.9322
13.5602
12.3642
14.0773
13.9834
13.8687
14.3886
14.4239
14.4561
14.3717
13.6438
14.3729
14.1529
13.7949
12.8055
8.64432
-0.134027
14.3332
14.3084
14.0685
13.7989
12.9998
10.2993
1.0142
14.2281
14.0548
13.962
13.5345
11.2123
14.0854
14.003
13.913
14.4683
14.481
14.4452
14.3747
14.1825
14.3937
14.138
13.9
13.1629
10.4331
2.65415
14.3536
14.2834
14.0515
13.9164
13.4629
10.6526
3.48036
14.1751
14.0485
14.0042
13.7261
11.985
4.05801
14.0797
14.0274
14.0057
14.5758
14.4607
14.4629
14.4431
14.479
14.3108
14.0994
14.0213
13.6673
11.2917
3.3176
14.2411
14.15
13.9865
14.0054
13.8651
11.7607
3.38676
14.0185
13.9918
14.085
13.9146
12.996
14.0235
14.0586
14.1001
14.5598
14.3756
14.394
14.4498
14.5053
14.1785
14.0183
14.1
14.0617
12.9303
14.1021
14.0081
13.9457
14.0779
14.1047
12.9984
-2.44695
13.922
13.939
14.1263
14.0807
14.233
13.979
14.0708
14.1332
14.4671
14.2595
14.2696
14.3324
14.4033
14.0659
13.9689
14.1062
14.1788
14.1537
14.0279
13.9211
13.9268
14.104
14.187
14.2256
13.909
13.9346
14.1234
14.165
14.3118
13.9282
14.069
14.1455
14.3545
14.1749
14.142
14.2054
14.3072
14.0269
13.9111
14.041
14.1787
14.2935
14.0318
13.9257
13.9162
14.0769
14.1483
14.3608
13.9397
13.9379
14.0541
14.1258
14.2874
13.9548
14.065
14.1372
14.2219
14.1503
14.0572
14.0798
14.2057
14.0506
13.9068
14.009
14.147
14.2725
14.0873
13.9931
13.946
14.0745
14.1537
14.3531
13.9968
13.9358
14.0487
14.1267
14.2606
13.9341
14.0727
14.1341
14.1508
14.1926
14.0657
14.0166
14.1177
14.1232
13.9547
14.0104
14.1292
14.2291
14.1739
14.0845
14.0214
14.1062
14.1856
14.3304
14.0815
13.9939
14.1183
14.174
14.2745
13.9668
14.1269
14.184
14.1344
14.2577
14.1175
14.0243
14.0619
14.2171
14.0575
14.0501
14.1394
14.2147
14.2772
14.1911
14.1235
14.1588
14.2405
14.3218
14.1913
14.0944
14.2033
14.2484
14.3209
14.1336
14.2281
14.2666
14.1428
14.3195
14.1723
14.0672
14.0566
14.3053
14.1564
14.1477
14.1838
14.2366
14.384
14.2956
14.1957
14.2238
14.314
14.3482
14.3091
14.2046
14.2956
14.3305
14.3838
14.2697
14.3024
14.3536
14.1447
14.3494
14.2002
14.1025
14.0901
14.3675
14.2337
14.1732
14.1899
14.2851
14.4839
14.3688
14.2552
14.2481
14.3325
14.4098
14.4016
14.2759
14.3102
14.4005
14.4648
14.3671
14.3606
14.433
14.1612
14.3853
14.2137
14.1501
14.1359
14.4146
14.2573
14.2038
14.2319
14.367
14.5725
14.4152
14.2872
14.2939
14.3824
14.486
14.4612
14.324
14.3618
14.4422
14.5306
14.4105
14.4057
14.478
47.2209
35.9246
40.4886
37.2833
36.4139
38.2707
39.5567
48.6115
79.5394
74.1878
50.2032
73.7543
46.9275
41.5447
40.0398
41.6765
46.8002
41.0993
50.5921
51.0529
63.3381
78.2766
89.846
87.1499
76.2868
62.79
57.8248
46.3781
47.0617
49.831
45.0244
45.0025
46.0917
49.757
58.6286
73.8516
88.3961
69.4173
63.1677
74.4338
66.7132
62.7398
62.312
70.2917
74.049
62.4819
80.1836
71.2132
46.0365
46.9816
49.6899
45.3685
62.7889
51.844
94.1199
107.299
70.4483
115.123
86.8964
69.5564
77.6288
102.313
104.913
77.2229
82.9297
101.661
123.23
78.7587
71.9308
104.128
73.3875
99.5016
138.042
107.909
134.201
128.924
96.5087
112.296
88.608
108.073
118.4
105.503
123.089
135.703
165.717
135.941
144.935
142.148
124.526
103.271
84.4494
80.4916
85.1874
106.714
80.5264
125.048
33.8504
33.3479
32.7764
32.5332
33.3307
34.419
33.5372
34.3722
33.3702
32.6843
34.9686
34.9922
35.5244
33.0287
36.061
48.9177
41.6429
36.9407
42.9485
39.0632
35.7281
34.1136
38.1712
36.0906
44.7647
47.5008
51.0463
35.5245
39.4999
38.3561
46.2731
50.1636
49.5233
43.7394
41.5222
42.0189
41.1714
41.5831
41.3295
59.8552
59.8154
53.5897
59.1602
62.3019
42.3913
41.6106
42.0121
42.1924
42.5833
63.5177
71.8017
65.8729
65.4514
69.6067
44.5106
43.4519
75.5216
63.0504
74.9926
44.7078
50.059
53.5828
60.5905
102.897
101.565
106.71
80.7992
79.8995
85.7519
87.201
73.6861
71.9209
64.9053
69.7274
66.5832
68.8651
70.536
70.6407
76.6443
68.1359
70.6879
72.1733
70.9829
78.0699
31.8489
30.7308
33.6159
32.6661
33.5555
32.5595
31.6935
32.4305
34.0643
34.3477
32.9297
32.8249
32.8303
34.5654
32.9426
37.5763
34.297
31.418
35.2392
33.0879
31.2863
30.0483
32.7506
30.8484
37.6262
35.57
43.3005
33.0552
35.1996
33.2003
39.8292
46.4996
43.6614
38.8377
39.8778
39.545
35.5401
36.8542
36.4477
54.1048
57.6306
44.8514
48.6144
51.3308
40.673
40.8371
38.513
38.6164
39.0774
62.504
64.1347
56.5884
56.9554
56.2348
41.5927
39.2894
41.8056
51.9087
57.4278
39.0254
37.3794
47.2019
51.8515
68.3654
73.8506
72.6673
55.114
55.0609
59.2288
56.9941
54.6789
63.8308
61.6896
69.6681
69.4692
68.579
69.4552
69.2795
69.8909
70.1772
69.4518
67.3137
69.4141
63.8114
30.1726
29.8882
31.7171
30.9904
31.5275
31.0485
30.4985
30.8392
31.6864
31.6262
30.9654
30.6668
30.6776
31.4186
30.1332
31.7282
29.7833
29.4303
30.8743
29.4728
29.8597
29.0645
29.5321
28.5854
33.0902
31.0936
36.1139
29.8657
31.318
29.1068
32.7637
40.754
36.456
32.7765
34.0061
33.6721
30.5692
32.0047
31.6259
43.5599
45.4643
38.0619
35.3597
35.5655
36.2708
36.785
34.0016
34.1264
33.6741
48.6417
45.2988
34.8285
35.1963
29.0889
36.2487
33.516
33.9023
40.0089
42.2685
32.9306
32.0546
34.5078
34.9009
38.227
40.0183
37.7335
21.497
19.4194
21.3638
18.7296
23.4971
54.067
43.6463
67.7862
69.1741
51.9573
60.8159
66.2928
63.8032
68.5843
65.4423
53.2278
67.2107
34.4771
29.5503
29.183
30.5156
30.0543
30.2363
30.0659
29.6092
29.4828
29.7094
29.8642
29.0612
28.7182
29.0906
29.2705
28.6106
27.8981
25.9845
28.6911
27.5762
27.747
27.8677
28.1532
25.4852
26.5635
29.5998
27.0419
29.2341
27.889
27.7831
25.1746
24.7564
30.5453
21.5796
28.7235
30.7092
30.3902
26.3916
29.5347
30.3731
24.0663
23.1906
16.0908
13.8899
13.9283
32.436
31.3018
31.0631
31.7261
30.1907
20.2222
14.5465
13.7242
13.7936
13.7028
31.2468
29.6841
31.3727
31.4481
32.5606
30.6782
31.0377
29.1942
30.8932
14.2002
15.5525
14.4257
14.4449
13.9312
14.2539
14.0975
13.9808
36.6704
31.299
47.8305
52.4857
32.8654
35.4692
37.532
38.4943
54.7549
34.2258
25.5982
37.3212
16.0212
28.7965
28.2114
28.77
29.0695
28.2252
26.9944
27.9791
26.7189
27.6814
28.2955
27.0598
26.5329
27.4233
27.7427
26.4493
23.6686
21.4105
27.4825
22.8995
24.857
25.2448
26.5099
20.6188
22.9473
23.9802
22.0423
16.141
23.7614
16.1035
18.2828
13.6665
13.8621
13.8398
22.0198
24.459
26.5821
17.7981
17.0768
17.2477
13.8915
13.873
13.9172
13.9299
13.8973
26.2386
26.032
14.5554
14.4825
16.223
13.9229
13.9491
13.8774
13.8104
13.8207
24.9562
14.6795
28.2706
24.7049
25.504
16.6497
17.9154
16.1461
17.6416
13.886
13.6182
13.8554
13.6915
13.7863
13.5542
13.7287
13.87
25.0677
18.5851
26.054
26.8414
19.1323
19.427
19.8114
17.9018
25.9739
17.5364
13.6258
18.8621
13.6963
26.246
22.3791
25.3021
25.6575
25.052
23.1308
22.5443
22.9701
25.1345
26.0422
24.269
22.9133
22.274
22.7062
14.8635
19.0709
16.5744
24.4759
17.8884
20.6759
19.3174
21.0655
15.4492
18.0918
13.8459
14.4293
13.6901
13.6614
13.7292
13.5954
13.7834
13.8656
13.7863
15.1431
13.2471
13.5275
14.2714
13.0927
13.0058
13.8304
13.9164
13.833
13.8621
13.8041
13.9336
13.8027
13.7629
13.7705
13.7693
13.7686
13.7721
13.7758
13.797
12.6068
12.9564
13.3342
13.3125
13.0922
13.7782
13.7786
13.7571
13.8115
13.7545
13.7715
13.7489
13.7617
13.7414
13.7561
13.7478
13.7841
13.7292
13.7612
13.244
13.2129
13.0867
13.5701
13.4163
13.252
13.2387
13.2148
13.1678
13.7206
13.5686
13.6858
13.6309
13.6864
13.5685
13.6614
13.7176
13.8601
13.2551
15.1768
15.5676
13.1741
13.1785
13.0552
12.8672
14.9086
13.4217
13.7017
13.1175
13.6101
18.1642
14.4744
20.1305
18.9805
20.1827
16.001
14.244
16.4675
18.6608
14.2145
14.436
14.1968
13.023
13.4981
13.535
14.3909
12.2582
17.6932
13.7226
16.0384
13.1956
15.1032
12.7436
15.0727
13.692
13.5358
13.6634
13.5549
13.6649
13.7323
13.7131
13.7587
13.7755
13.7568
13.7515
13.759
13.7639
13.7326
13.7362
13.6953
13.225
13.1596
13.2416
13.3615
13.3243
13.7853
13.8431
13.7712
13.802
13.7445
13.8072
13.7285
13.7532
13.7469
13.7485
13.7253
13.7331
13.7163
13.7361
13.3724
13.2707
13.3761
13.3806
13.3231
13.7311
13.7675
13.7423
13.722
13.7018
13.7216
13.7038
13.74
13.7334
13.7512
13.7067
13.7322
13.7032
13.7325
13.2547
13.309
13.2675
13.3182
13.3478
13.2493
13.1925
13.3342
13.3297
13.6799
13.5476
13.6254
13.6112
13.6956
13.5417
13.622
13.7185
13.74
13.7043
13.7443
13.6904
13.7257
13.3971
13.401
13.4959
13.5427
13.4495
13.4882
13.5246
13.5823
13.583
13.5651
13.594
13.5704
13.5896
12.8361
13.2754
13.3038
12.5293
13.3801
13.2403
13.1849
13.1821
13.2605
13.331
13.265
13.2705
13.3707
13.5176
13.4919
13.2493
13.1855
13.504
12.8557
15.5693
12.9625
12.9769
12.9967
14.1604
13.6718
13.8443
13.7944
13.4912
13.6105
13.702
13.73
13.75
13.7404
13.6977
13.7109
13.7196
13.7211
13.696
13.7041
13.2108
13.4813
13.4639
13.3095
13.5541
13.5482
13.7115
13.7463
13.6993
13.7015
13.6843
13.6927
13.6714
13.7134
13.6953
13.7225
13.6682
13.6922
13.6793
13.7054
13.4661
13.4369
13.583
13.5767
13.5819
13.6854
13.7008
13.6843
13.6475
13.6528
13.6814
13.6792
13.7189
13.6995
13.7258
13.6851
13.7044
13.6976
13.7147
13.4306
13.5677
13.2112
13.3952
13.39
13.3949
13.3372
13.4683
13.4649
13.7157
13.5711
13.6663
13.6137
13.7113
13.5897
13.6833
13.6887
13.7306
13.684
13.7204
13.6871
13.7133
13.456
13.5148
13.5567
13.5929
13.5405
13.5748
13.6016
13.6112
13.6066
13.6076
13.6174
13.6187
13.6133
13.0821
13.0837
13.2776
13.2238
13.1939
13.3312
13.2816
13.2805
13.3462
13.4067
13.4106
13.4116
13.4422
13.513
13.5081
13.2781
13.3595
12.8992
13.0783
12.1222
13.0678
12.9861
13.2099
12.7107
13.5765
13.6135
13.6484
13.5092
13.5542
13.6022
13.5969
13.645
13.6127
13.4129
13.6085
13.5957
13.4777
13.6454
13.6263
13.6652
13.6309
13.6267
13.6095
13.6503
13.5871
13.6352
13.6901
13.6692
13.7006
13.6682
13.6874
13.6587
13.6994
13.6599
13.7086
13.7177
13.7112
13.8086
13.6046
13.6456
13.6353
13.5622
13.5925
13.5597
13.5789
13.7064
13.6923
13.7148
13.6464
13.6901
13.6559
13.6984
13.6968
13.8095
13.4571
13.5641
13.5433
13.6541
13.5817
13.6638
13.6322
13.6686
13.5742
13.6452
13.5693
13.6099
13.5691
13.6094
13.61
13.5807
13.6529
13.6001
13.6284
13.6016
13.6276
13.6498
13.6169
13.6263
13.6202
13.6265
13.6337
13.6043
13.1718
13.2457
13.3823
13.3291
13.3615
13.4035
13.3647
13.3967
13.4296
13.4503
13.4332
13.4531
13.4562
13.4944
13.4889
13.4151
13.472
13.0705
13.2663
13.1307
13.219
13.1082
13.3129
13.2071
13.5348
13.5767
13.5592
13.4882
13.5054
13.5323
13.5188
13.5779
13.5367
13.5427
13.6774
13.6577
13.6057
13.7144
13.6955
13.5649
13.5837
13.5348
13.5291
13.5396
13.754
13.8898
13.8115
13.7952
13.9563
13.5375
13.5222
13.5269
13.5311
13.4963
13.9084
13.9895
13.7047
13.7644
13.7158
13.8624
13.8256
13.8516
13.7929
13.5783
13.576
13.5877
13.5701
13.5611
13.5858
13.5803
13.5581
13.7238
13.7912
13.6587
13.6813
13.6926
13.6929
13.7099
13.6372
13.6473
13.6575
13.6529
13.6653
13.629
13.2985
13.3381
13.4136
13.3848
13.413
13.4204
13.4
13.4167
13.4696
13.4578
13.445
13.4537
13.4437
13.4845
13.4626
13.5297
13.5998
13.1474
13.3879
13.2161
13.3552
13.1814
13.4711
13.2696
13.4824
13.4887
13.4906
13.452
13.4602
13.4439
13.4677
13.5074
13.4802
13.6634
13.7677
13.7429
13.7212
13.8095
13.7884
13.5055
13.5097
13.4922
13.4904
13.4936
13.8359
14.0042
13.8894
13.8723
14.0207
13.5245
13.4933
13.5168
13.5198
13.4977
14.0374
14.0463
13.9242
13.9179
13.8576
13.972
13.9886
13.956
13.8991
13.5591
13.6128
13.5904
13.5948
13.5654
13.6311
13.6018
13.5543
13.8489
13.891
13.735
13.7533
13.801
13.7745
13.7915
13.6742
13.6917
13.7149
13.6983
13.7225
13.6702
13.3675
13.3928
13.4177
13.4033
13.4102
13.4078
13.3998
13.4004
13.4385
13.4178
13.4318
13.4276
13.3908
13.4386
13.4243
13.6604
13.6998
13.2029
13.5797
13.3804
13.5717
13.2457
13.6841
13.5157
13.4458
13.4034
13.4512
13.4279
13.4336
13.3693
13.4405
13.4681
13.4592
13.7594
13.8289
13.8211
13.7765
13.8323
13.8311
13.4876
13.4935
13.4917
13.4896
13.4967
13.8972
14.0091
13.9178
13.9099
13.9904
13.5482
13.5343
13.5725
13.569
13.5653
14.0337
14.0201
13.9906
13.9707
13.923
13.9788
13.9651
13.9839
13.9418
13.5803
13.666
13.6315
13.6312
13.5982
13.6938
13.653
13.5916
13.9191
13.9435
13.8158
13.8356
13.8972
13.8541
13.8744
13.7263
13.755
13.7789
13.7557
13.7878
13.718
13.4324
13.4781
13.394
13.4006
13.3889
13.378
13.4109
13.3732
13.4044
13.3686
13.371
13.3637
13.3467
13.4203
13.4155
13.7283
13.717
13.3535
13.7015
13.6352
13.5962
13.4566
13.674
13.674
13.431
13.3431
13.4444
13.4243
13.4379
13.3295
13.45
13.4707
13.4853
13.7856
13.8323
13.8338
13.7948
13.8343
13.8363
13.5146
13.5196
13.5333
13.5371
13.5432
13.911
13.9709
13.9125
13.9042
13.98
13.6271
13.6292
13.6546
13.6493
13.6705
14.0181
14.0217
13.9514
14.0076
13.9613
14.0108
13.9415
14.0223
13.9728
13.6274
13.7501
13.7006
13.6946
13.6574
13.7838
13.7232
13.6658
13.9673
13.9805
13.8918
13.9128
13.9641
13.9228
13.94
13.7889
13.8214
13.8442
13.8216
13.8536
13.7987
13.5194
13.5627
13.3736
13.4278
13.3685
13.3986
13.4625
13.3991
13.336
13.3491
13.3719
13.3552
13.3879
13.4314
13.4712
13.7101
13.7198
13.5241
13.6456
13.6646
13.6063
13.5743
13.6486
13.6398
13.4705
13.3472
13.4829
13.4599
13.5108
13.4017
13.5254
13.527
13.5693
13.8042
13.8391
13.8386
13.8087
13.8474
13.8461
13.5968
13.6111
13.6225
13.637
13.6431
13.9118
14.044
13.938
13.9341
14.0718
13.7244
13.7435
13.7586
13.7535
13.7859
14.0241
14.0433
13.9269
14.0061
13.9729
13.9843
13.9015
13.9842
13.957
13.7006
13.8159
13.7686
13.7642
13.7399
13.8305
13.792
13.7622
13.9849
13.9807
13.943
13.9511
13.9807
13.9523
13.9538
13.8539
13.8814
13.888
13.8732
13.9019
13.8486
13.6152
13.676
13.4648
13.5224
13.4692
13.557
13.5961
13.5577
13.4327
13.4748
13.5505
13.5387
13.5827
13.5444
13.6349
13.7364
13.7748
13.6286
13.6831
13.6427
13.7374
13.6855
13.7414
13.6794
13.5796
13.4711
13.5854
13.6053
13.6489
13.5611
13.6489
13.6339
13.6914
13.8224
13.8562
13.8542
13.8432
13.8727
13.8694
13.6942
13.717
13.7233
13.743
13.7554
13.9531
14.0495
13.9557
13.9566
13.972
13.7967
13.8275
13.8294
13.8267
13.8596
14.01
13.9436
13.8712
13.9683
13.9536
13.8554
13.8518
13.9559
13.9411
13.782
13.8419
13.8222
13.8217
13.8174
13.8479
13.8451
13.837
13.973
13.9537
13.9548
13.9603
13.9591
13.9518
13.9604
13.8907
13.9162
13.9106
13.8988
13.9209
13.8678
13.7452
13.8242
13.6634
13.683
13.6592
13.769
13.776
13.7619
13.6582
13.6966
13.7701
13.7692
13.7997
13.7291
13.8157
13.8296
13.8859
13.7465
13.8157
13.7265
13.8863
13.8105
13.8893
13.7702
13.7292
13.6502
13.7129
13.7824
13.8022
13.7345
13.7744
13.7543
13.8096
13.8708
13.8913
13.8903
13.9035
13.9033
13.9102
13.7884
13.8102
13.8114
13.8246
13.8422
13.9338
13.862
13.903
13.8852
13.7742
13.8568
13.882
13.8746
13.8783
13.8986
13.8884
13.8519
13.844
13.9569
13.9148
13.8371
13.8222
13.9065
13.892
13.846
13.8589
13.8679
13.8552
13.8673
13.8755
13.8875
13.8816
13.934
13.9237
13.9434
13.9523
13.9379
13.9341
13.9407
13.9002
13.9232
13.9063
13.9009
13.9219
13.8868
13.8994
13.9574
13.8597
13.8685
13.8538
13.9247
13.9396
13.9222
13.8554
13.8821
13.9062
13.9127
13.941
13.8866
13.9383
13.9347
13.9623
13.8767
13.9313
13.8191
13.9752
13.9293
13.957
13.8564
13.8661
13.8032
13.8285
13.9101
13.9149
13.8591
13.8728
13.8593
13.8974
13.915
13.9012
13.9123
13.9059
13.8841
13.8823
13.855
13.8765
13.875
13.8775
13.8956
13.8235
13.7459
13.8044
13.7694
13.7439
13.8959
13.9092
13.899
13.9081
13.918
13.8496
13.8806
13.8394
13.9469
13.8924
13.9516
13.8418
13.9946
13.8741
13.8799
13.891
13.9019
13.8652
13.8884
13.9065
13.9121
13.9031
13.9173
13.9098
13.915
13.9234
13.909
13.8923
13.9015
13.8883
13.9187
13.8949
13.8735
13.913
13.8812
13.989
13.9926
13.9629
13.9799
13.9623
13.9757
13.9926
13.9772
13.9461
13.9776
13.9514
13.9605
13.9974
13.9708
13.9881
13.9636
13.936
13.9601
13.9601
13.8713
13.9956
13.9691
13.9375
13.8604
13.9491
13.8929
13.904
13.9652
13.9698
13.912
13.9251
13.9258
13.9427
13.8777
13.8411
13.823
13.8368
13.7867
13.7607
13.8945
13.9149
13.9128
13.9089
13.9255
13.7199
13.7394
13.7241
13.6817
13.7082
13.9181
13.9234
13.912
13.9255
13.9291
13.8816
13.7605
13.8239
13.9361
13.8518
13.7545
13.7813
13.8559
13.9076
13.8948
13.9216
13.9224
13.8797
13.9015
13.9376
13.9288
13.9162
13.8928
13.8958
13.8719
13.8809
13.8864
13.8605
13.8668
13.8637
13.9065
13.8933
13.8641
13.9018
13.9072
13.9784
13.956
13.9744
13.9867
13.9739
13.9661
13.9752
13.957
13.9635
14.0055
13.9586
13.9626
14.0072
13.9949
13.9958
13.893
13.8617
13.9573
13.9002
13.8283
13.925
13.9308
13.8689
13.7846
13.9814
13.9185
13.9376
13.9741
13.9868
13.923
13.9465
13.9531
13.9599
13.7917
13.7497
13.7194
13.7648
13.7493
13.7102
13.9196
13.9367
13.9356
13.9301
13.9433
13.6515
13.652
13.729
13.6701
13.6154
13.9333
13.9345
13.9257
13.9407
13.9416
13.5291
13.3017
13.6523
13.6968
13.9124
12.9276
13.5329
13.4221
13.856
13.9085
13.9386
13.9305
13.9019
13.9165
13.9354
13.9335
13.9305
13.887
13.9208
13.8557
13.8621
13.9068
13.87
13.8747
13.8765
13.9017
13.9132
13.9027
13.9107
13.9288
13.9416
13.9328
13.9595
13.9663
13.9456
13.9635
13.958
13.9569
13.9599
14.0035
13.9643
13.96
13.9976
13.9954
13.9939
13.8501
13.8635
13.9077
13.8277
13.7295
13.8757
13.8984
13.8068
13.6796
13.9889
13.9268
13.9537
13.9723
13.9888
13.9333
13.9608
13.9656
13.9713
13.782
13.8084
13.7795
13.8432
13.8671
13.876
13.9393
13.9527
13.9564
13.9495
13.9604
13.7684
13.6617
13.9251
13.8895
13.8446
13.9501
13.9507
13.9458
13.9596
13.9604
13.2576
13.5979
13.5031
13.3618
13.8668
13.4269
13.6599
13.6268
13.9139
13.9258
13.945
13.9426
13.9295
13.936
13.9539
13.9524
13.9492
13.9858
14.0165
13.9189
13.9126
14.0096
13.9622
13.9469
13.9366
13.9329
13.9681
13.9624
13.9574
13.9778
13.9176
13.9157
13.969
13.9499
13.9737
13.97
13.9504