/*--------------------------------*- C++ -*----------------------------------*\
| =========                 |                                                 |
| \\      /  F ield         | OpenFOAM: The Open Source CFD Toolbox           |
|  \\    /   O peration     | Version:  5.x                                   |
|   \\  /    A nd           | Web:      www.OpenFOAM.org                      |
|    \\/     M anipulation  |                                                 |
\*---------------------------------------------------------------------------*/
FoamFile
{
    version     2.0;
    format      ascii;
    class       volScalarField;
    location    "1.7";
    object      p;
}
// * * * * * * * * * * * * * * * * * * * * * * * * * * * * * * * * * * * * * //

dimensions      [0 2 -2 0 0 0 0];

internalField   nonuniform List<scalar> 
10571
(
74.2765
130.532
74.4072
73.2014
77.4754
113.046
49.8325
75.9424
84.8071
118.928
97.7848
52.2223
40.4664
51.7041
81.926
106.165
39.9225
37.9798
41.212
53.2814
107.946
35.8639
37.9633
42.638
74.6722
69.6641
61.5076
72.9338
78.1292
43.2778
43.6066
49.2583
80.977
73.5319
44.854
39.5651
39.445
37.127
54.8319
75.3985
38.6929
38.9465
39.6234
47.0622
55.7871
39.1955
40.1991
41.2441
68.3233
48.2296
56.6263
67.6638
70.7786
36.123
34.3416
31.1707
32.5861
50.0803
35.9219
36.2102
35.7304
31.14
18.0914
40.2526
36.7419
37.2406
35.6486
34.7819
27.8546
37.962
39.4128
37.3835
46.4656
36.1986
43.5034
45.9564
45.6852
33.3485
36.1309
20.8983
16.7204
26.3756
30.5548
33.3366
35.0207
19.1663
15.0833
15.6226
35.5447
35.4468
17.1612
14.1183
14.6726
36.0975
33.5423
14.33
25.5403
29.9224
34.8526
22.96
24.131
31.3486
22.8597
13.9462
15.6721
20.3802
17.7588
31.401
20.9634
14.0864
14.739
15.113
28.7321
18.827
12.872
14.247
14.5828
25.5684
13.543
14.3997
11.7954
18.6948
15.3445
13.1818
13.2995
17.7903
10.9831
13.17
13.5968
13.5514
13.5996
13.2011
11.8886
10.4416
13.4834
13.6814
13.5221
13.573
11.4903
10.8245
13.8449
14.0608
13.952
12.5949
13.9842
14.1198
13.3346
13.2052
13.2008
13.2837
13.3644
13.2021
13.2179
13.6888
13.3527
13.5373
13.5953
13.238
13.0836
13.8778
13.8623
13.688
13.5948
13.5911
13.3875
13.7472
13.6336
13.8829
13.8968
13.5236
13.7506
13.817
13.9315
13.4069
13.2356
13.2398
13.2851
13.3627
13.0138
13.3422
13.5975
13.4393
13.518
13.5907
13.2355
13.0085
13.8891
13.7476
13.6946
13.4219
13.5238
13.3513
13.5053
13.5139
13.7742
13.8643
13.4431
13.3893
13.6748
13.7836
13.586
13.3028
13.4444
13.5118
13.5026
12.8128
13.3987
13.5774
13.5404
13.6445
13.621
13.367
13.2181
13.6237
13.7062
13.7308
13.5895
13.6206
13.5407
13.358
13.5612
13.7073
13.8448
13.1089
13.5807
13.702
13.8055
13.5447
13.6635
13.7274
13.6717
13.2261
13.5465
13.6992
13.6824
13.8522
13.5768
13.4492
13.6638
13.8136
13.8102
13.8203
13.6769
13.4809
13.6747
13.687
13.7943
13.1153
13.5965
13.6922
13.9997
13.8238
13.8503
13.8941
13.8077
13.5917
13.6634
13.8267
13.8061
13.9279
13.7795
13.6975
13.7604
13.8847
13.8763
13.9111
13.7806
13.7568
13.8249
13.7657
13.8792
13.3986
13.7243
13.7602
14.1149
14.0317
13.9741
13.9986
13.8935
13.853
13.7125
13.8713
13.8827
13.9695
13.9319
13.8645
13.7563
13.886
13.8955
13.9582
13.7423
13.7899
13.9328
13.887
13.9835
13.8183
13.8548
13.8408
14.1293
14.0752
13.9854
14.0045
13.9221
13.9675
13.6487
13.8335
13.8798
13.9601
14.019
13.9989
13.6928
13.8603
13.8779
13.9621
13.6897
13.7939
13.9179
13.9044
14.0186
13.9461
13.9082
13.8886
14.0308
13.8374
13.8668
13.9098
13.8914
13.8708
13.6341
13.761
13.8308
13.9028
14.1355
14.0804
13.7979
13.8359
13.8214
13.9216
13.8822
13.8297
13.8734
13.8803
13.9886
13.9588
13.9156
13.8832
13.8857
13.6213
13.7006
13.7477
13.8415
13.5754
13.5983
13.673
13.7621
13.8308
14.0987
14.0044
13.789
13.8096
13.7738
13.8794
13.9851
13.8545
13.8225
13.809
13.8569
13.9681
13.8985
13.8237
13.7619
13.5788
13.6228
13.6087
13.8051
13.3838
13.5178
13.6089
13.7032
13.7629
13.9877
13.8975
13.7607
13.7851
13.7582
13.8376
13.9599
13.8706
13.7958
13.7522
13.797
13.9627
13.8796
13.7789
13.7747
13.77
13.6882
13.6427
13.7879
13.6336
13.4871
13.5962
13.6924
13.7282
13.9462
13.8784
13.7819
13.7627
13.7492
13.7977
13.9363
13.892
13.8027
13.7351
13.7776
13.9322
13.8733
13.8103
13.9462
14.0231
13.9478
13.8151
13.7816
13.8918
13.6359
13.6426
13.7073
13.7418
13.934
13.8982
13.824
13.7514
13.7421
13.783
13.915
13.9158
13.824
13.7612
13.7468
13.9185
13.8714
13.8491
14.2123
14.1286
14.1399
13.9056
13.7882
13.9847
13.8089
13.6766
13.7139
13.7458
13.9148
13.8944
13.8403
13.7492
13.7498
13.7674
13.8982
13.9176
13.8376
13.8067
13.7816
13.9116
13.8655
13.8523
14.1738
14.03
14.0517
14.0149
13.7975
13.9438
13.7889
13.6997
13.7204
13.6834
13.8886
13.8749
13.8031
13.7689
13.7648
13.7361
13.8806
13.8928
13.8376
13.7982
13.7861
13.8945
13.8577
13.8482
13.9722
13.9355
13.9274
14.0232
13.8046
13.8881
13.7227
13.7282
13.6754
13.666
13.8736
13.8538
13.7588
13.8002
13.7882
13.7209
13.8663
13.8606
13.8419
13.7933
13.7864
13.8793
13.8541
13.8421
13.8157
13.8696
13.8485
13.824
13.7789
13.8496
13.6637
13.6765
13.7047
13.7016
13.8721
13.8428
13.754
13.8431
13.8229
13.754
13.8585
13.841
13.8556
13.8004
13.8084
13.869
13.8589
13.8515
13.8214
13.8297
13.8051
13.7721
13.8909
13.8367
13.6634
13.702
13.769
13.7657
13.8823
13.847
13.7784
13.8838
13.8531
13.8324
13.8601
13.8359
13.8673
13.8345
13.851
13.8664
13.8693
13.8714
13.8418
13.8072
13.7847
13.8062
14.0733
13.8405
13.7005
13.7658
13.8537
13.8651
13.8956
13.8596
13.8116
13.8841
13.889
13.9115
13.8678
13.8405
13.8801
13.8618
13.893
13.8736
13.8831
13.8951
13.8436
13.7933
13.7647
13.8261
13.8847
13.8369
13.7463
13.8204
13.8251
13.9007
13.9015
13.8637
13.8477
13.8839
13.8923
13.9616
13.8753
13.8507
13.8896
13.8741
13.9189
13.8888
13.8996
13.9144
13.8496
13.7768
13.7444
13.8542
13.8515
13.8109
13.7666
13.9604
13.8507
13.9178
13.8963
13.8534
13.8583
13.9237
13.8809
13.9603
13.8832
13.8643
13.8894
13.883
13.9169
13.9037
13.9166
13.9249
13.8651
13.7673
13.7262
13.8649
13.8796
13.7722
13.7652
14.0476
13.8914
13.9394
13.8854
13.836
13.844
13.9387
13.8752
13.9251
13.885
13.8712
13.905
13.886
13.9079
13.9088
13.925
13.9248
13.8861
13.7799
13.7316
13.8642
13.8996
13.7577
13.7403
13.9727
13.9545
13.9543
13.8764
13.8219
13.8272
13.8765
13.8861
13.9129
13.8845
13.8718
13.8933
13.8924
13.9052
13.9058
13.9108
13.9169
13.9021
13.8224
13.7675
13.8733
13.9028
13.771
13.7222
13.9078
14.0176
13.908
13.8797
13.822
13.8417
13.8335
13.9028
13.9108
13.8881
13.8643
13.8823
13.8917
13.914
13.9041
13.8973
13.9042
13.915
13.884
13.8227
13.8915
13.8987
13.8052
13.7323
13.8871
14.0504
13.9737
13.8976
13.8453
13.8661
13.8467
13.8992
13.9173
13.8949
13.8627
13.8766
13.8969
13.9434
13.9068
13.8974
13.9054
13.9206
13.9311
13.8891
13.9035
13.8894
13.8431
13.7409
13.8763
14.0037
13.9971
13.9205
13.8692
13.8786
13.8627
13.8724
13.9028
13.9004
13.8612
13.8791
13.9073
13.9731
13.9107
13.8948
13.9104
13.921
13.9723
13.9409
13.9036
13.881
13.8811
13.7446
13.87
13.9382
14.0055
13.942
13.8903
13.8735
13.8657
13.8512
13.9056
13.9102
13.8658
13.8815
13.8998
13.9655
13.9191
13.8962
13.913
13.9161
14.0058
13.9694
13.9028
13.8705
13.918
13.7415
13.8685
13.8975
13.9909
13.96
13.9104
13.8618
13.8516
13.8286
13.8997
13.9249
13.8743
13.882
13.8893
13.9318
13.9337
13.9069
13.9089
13.9017
14.0163
13.9781
13.8885
13.8578
13.9554
13.7632
13.8634
13.8779
13.9752
13.9765
13.9368
13.8443
13.8399
13.8349
13.839
13.9477
13.8858
13.8789
13.8869
13.9013
13.9508
13.9208
13.9117
13.8825
14.01
13.9638
13.8577
13.848
13.9921
13.8246
13.8516
13.8678
13.9506
14.0053
13.9673
13.8365
13.8499
13.8544
13.7818
13.975
13.894
13.8623
13.8912
13.8844
13.9665
13.9318
13.9239
13.8645
13.9854
13.9353
13.8347
13.8398
13.9882
13.8748
13.8364
13.8723
13.9192
14.0306
14.0005
13.8719
13.8666
13.849
13.8026
14.0084
13.8988
13.8766
13.9216
13.8918
13.9731
13.9359
13.9379
13.8533
13.9538
13.9059
13.8284
13.8311
13.9621
13.8892
13.8348
13.88
13.9149
14.0359
14.0092
13.9212
13.8804
13.896
13.8895
14.0592
13.9006
13.8723
13.9185
13.9265
13.9587
13.9253
13.9331
13.8483
13.9289
13.8844
13.8256
13.8273
13.9388
13.8685
13.8285
13.8748
13.9118
14.0057
13.9841
13.9071
13.8565
13.9119
13.9287
14.0789
13.9331
13.8656
13.9077
13.9732
13.9459
13.8978
13.9083
13.8521
13.9072
13.8718
13.8244
13.829
13.9109
13.842
13.8037
13.8552
13.9004
13.9689
13.9459
13.855
13.8086
13.8879
13.9134
14.025
13.9228
13.8649
13.887
13.9276
13.9236
13.8725
13.8772
13.8632
13.8932
13.8662
13.8329
13.8405
13.8872
13.8162
13.7896
13.8371
13.8864
13.935
13.9117
13.8189
13.7629
13.8634
13.8971
13.9745
13.8952
13.8511
13.8689
13.9012
13.9193
13.8572
13.8657
13.8737
13.8843
13.8644
13.8476
13.8585
13.8723
13.8071
13.8044
13.8338
13.8782
13.9058
13.8825
13.7926
13.7557
13.8473
13.8853
13.9238
13.8532
13.8285
13.863
13.8891
13.9347
13.8536
13.8574
13.8789
13.8746
13.8635
13.8581
13.878
13.8593
13.8098
13.8255
13.8483
13.8796
13.8794
13.8608
13.7858
13.7697
13.8354
13.875
13.8808
13.8113
13.8118
13.8521
13.8836
13.8947
13.8459
13.8504
13.8758
13.8631
13.8548
13.8562
13.8769
13.8455
13.8106
13.8336
13.8686
13.8917
13.8543
13.8419
13.785
13.7888
13.8309
13.8662
13.8637
13.7763
13.7883
13.8419
13.8779
13.8561
13.8314
13.845
13.8661
13.8497
13.8504
13.8525
13.8668
13.831
13.8094
13.8313
13.8707
13.894
13.8303
13.825
13.7768
13.8046
13.8342
13.8605
13.8502
13.7341
13.7609
13.8387
13.8673
13.8062
13.8065
13.8393
13.8599
13.8335
13.8409
13.8503
13.8529
13.814
13.7997
13.8331
13.8545
13.87
13.7998
13.7986
13.7661
13.8121
13.8372
13.8511
13.8241
13.6809
13.7438
13.824
13.8504
13.7632
13.777
13.8221
13.8469
13.8154
13.8237
13.8397
13.8422
13.7927
13.7828
13.8265
13.8368
13.8419
13.7627
13.7618
13.7583
13.8085
13.8442
13.8388
13.7846
13.636
13.7435
13.8073
13.8346
13.7249
13.754
13.8049
13.8291
13.7981
13.8069
13.8244
13.8301
13.771
13.7668
13.8139
13.8207
13.8307
13.7311
13.7247
13.744
13.8022
13.8515
13.8291
13.7435
13.6394
13.7563
13.8058
13.8232
13.7061
13.7484
13.7997
13.815
13.7861
13.7943
13.8117
13.8196
13.7568
13.7558
13.8026
13.8137
13.8263
13.7205
13.7011
13.7192
13.7951
13.8344
13.8164
13.7187
13.6689
13.7564
13.8074
13.8166
13.7002
13.7496
13.7968
13.8061
13.7828
13.7883
13.8028
13.8116
13.7559
13.7529
13.7919
13.8092
13.8189
13.7326
13.702
13.6989
13.7764
13.8062
13.8156
13.7236
13.69
13.7778
13.8083
13.8109
13.69
13.7737
13.797
13.8018
13.789
13.789
13.7983
13.8038
13.7708
13.7702
13.7889
13.7999
13.8024
13.7681
13.7268
13.7002
13.7612
13.7954
13.8095
13.7485
13.7379
13.7801
13.8024
13.8099
13.7218
13.7842
13.8054
13.8021
13.8029
13.7977
13.7976
13.7948
13.7972
13.7999
13.7965
13.7815
13.7783
13.8134
13.7711
13.7337
13.7664
13.7949
13.8064
13.7857
13.7852
13.787
13.7933
13.8177
13.7795
13.8003
13.8114
13.8053
13.8202
13.8102
13.7998
13.7881
13.8261
13.8308
13.8028
13.7548
13.7634
13.8546
13.8219
13.7704
13.7973
13.794
13.8032
13.8359
13.8054
13.8087
13.7905
13.8159
13.821
13.8181
13.8009
13.8106
13.8355
13.8218
13.8036
13.787
13.8465
13.8476
13.8027
13.7333
13.7673
13.8753
13.8639
13.8297
13.8282
13.7924
13.7998
13.8832
13.8176
13.8182
13.8001
13.8175
13.8593
13.8264
13.8175
13.8134
13.8442
13.8288
13.807
13.7921
13.8548
13.8521
13.7969
13.7212
13.7755
13.8764
13.8716
13.8766
13.8397
13.7698
13.7949
13.9173
13.8565
13.8301
13.8062
13.8293
13.8746
13.8485
13.8248
13.8126
13.8441
13.8275
13.8071
13.7991
13.853
13.8383
13.7904
13.7291
13.789
13.87
13.8641
13.8752
13.8191
13.7339
13.7842
13.8924
13.8626
13.8232
13.8005
13.8311
13.88
13.8521
13.846
13.8067
13.8356
13.8188
13.8021
13.8012
13.843
13.821
13.7911
13.7518
13.8148
13.8632
13.8557
13.8434
13.7993
13.6975
13.7839
13.8644
13.8376
13.8023
13.7829
13.8184
13.8697
13.8406
13.8426
13.7972
13.8201
13.8037
13.7946
13.7939
13.8258
13.8043
13.794
13.7763
13.8221
13.8511
13.8392
13.8171
13.7827
13.6712
13.7797
13.8562
13.8111
13.7887
13.7566
13.7957
13.8561
13.8236
13.8258
13.7836
13.8047
13.7922
13.7844
13.7716
13.8071
13.7889
13.7869
13.7691
13.8001
13.833
13.8172
13.7992
13.7645
13.6659
13.7624
13.8449
13.7968
13.7703
13.7213
13.7585
13.8353
13.8075
13.7994
13.7738
13.7993
13.7879
13.7702
13.7367
13.7954
13.7727
13.7599
13.7268
13.7589
13.8149
13.7965
13.7857
13.741
13.6648
13.7024
13.827
13.7864
13.7438
13.6713
13.6973
13.818
13.7902
13.7678
13.7816
13.8067
13.7908
13.7655
13.7046
13.7972
13.7608
13.7333
13.6509
13.7181
13.8089
13.792
13.7775
13.7167
13.6542
13.5662
13.8141
13.7793
13.7183
13.619
13.5872
13.806
13.7714
13.7333
13.796
13.8368
13.8143
13.7734
13.6469
13.8155
13.7536
13.7065
13.5409
13.6929
13.8208
13.8023
13.7663
13.6797
13.5985
13.2433
13.8146
13.7742
13.6912
13.5506
13.3827
13.7991
13.7553
13.6957
13.8288
13.8732
13.8465
13.7949
13.5406
13.8526
13.7646
13.7078
13.3387
13.2022
13.8528
13.8293
13.7605
13.6484
13.4534
12.4435
13.8249
13.7766
13.6641
13.4517
12.9116
13.8014
13.7437
13.6579
13.8944
13.9188
13.8913
13.865
13.6911
13.9076
13.796
13.7237
13.2764
11.4334
13.9069
13.8795
13.7755
13.6346
13.3044
11.0459
-8.265
13.8536
13.7963
13.6488
13.293
11.8234
13.821
13.7477
13.6392
14.0128
13.9806
13.9487
13.9673
13.8891
13.9834
13.8865
13.7658
13.3148
10.0456
1.32632
13.9834
13.9527
13.8293
13.7032
13.1926
10.4475
0.585224
13.9319
13.8639
13.6959
13.2556
10.6525
13.8836
13.8085
13.6735
14.1665
14.0739
14.0472
14.0926
13.9629
14.075
14.0307
13.8669
13.3452
10.4301
2.60474
14.0724
14.0456
13.9263
13.7803
12.9738
10.1915
2.47822
14.044
14.0691
13.8854
13.3966
11.295
3.93726
13.9971
13.927
13.7858
14.2769
14.1808
14.1693
14.1989
13.9708
14.1748
14.1628
13.9409
13.4376
9.85101
1.81506
14.1707
14.1481
14.0663
13.8152
13.025
10.0553
1.37951
14.1638
14.2538
14.2412
13.705
12.664
14.1778
14.0833
13.9732
14.3182
14.2851
14.2741
14.2606
14.0875
14.2758
14.295
14.1894
13.6953
11.0218
14.2582
14.2395
14.2137
14.0456
13.3846
10.1181
-5.30017
14.2421
14.323
14.4163
13.9286
13.4249
14.335
14.2382
14.2035
14.3699
14.3631
14.3809
14.3532
14.2301
14.352
14.3962
14.3251
13.9729
13.2873
14.3277
14.3115
14.2979
14.1721
13.6573
12.902
14.2852
14.2607
14.2675
13.9906
14.1118
14.3488
14.3132
14.3309
14.4356
14.4357
14.459
14.4357
14.3541
14.4129
14.4425
14.4039
14.2132
14.0915
14.3795
14.3797
14.328
14.2181
13.8495
13.9541
14.2969
14.1826
14.1175
14.0651
14.3286
14.2776
14.2816
14.3036
14.4878
14.4884
14.5296
14.4921
14.4474
14.4664
14.4859
14.4759
14.3868
14.4099
14.4217
14.4361
14.3774
14.3623
14.1041
14.3576
14.3272
14.3066
14.288
14.1352
14.4877
14.3408
14.3827
14.3557
14.5133
14.5129
14.5235
14.5145
14.5132
14.5012
14.5215
14.5134
14.5032
14.5517
14.4711
14.51
14.45
14.4704
14.3792
14.6088
14.4061
14.4306
14.3975
14.3902
14.6724
14.413
14.5067
14.6281
14.5155
14.5243
14.4813
14.4985
14.5537
14.5033
14.4905
14.5073
14.5414
14.6029
14.5261
14.5137
14.462
14.4669
14.4838
14.6701
14.4976
14.503
14.5054
14.5551
14.7414
14.5259
14.5579
14.7757
14.5071
14.428
14.3631
14.4206
14.5873
14.4898
14.4865
14.4497
14.5301
14.6386
14.6108
14.5251
14.4914
14.4586
14.4559
14.6601
14.5907
14.5415
14.4301
14.4769
14.6738
14.5857
14.4791
14.5716
14.5617
14.3986
14.3102
14.3376
14.6366
14.511
14.4408
14.3915
14.4201
14.6856
14.7867
14.6224
14.5014
14.4633
14.4228
14.6638
14.7459
14.5944
14.4882
14.5048
14.7281
14.6987
14.5266
14.627
14.8043
14.4899
14.4505
14.4983
14.7715
14.6654
14.4964
14.4468
14.495
14.813
14.9718
14.7688
14.558
14.5009
14.5048
14.824
14.8943
14.6356
14.5485
14.5884
14.8641
14.7852
14.6315
14.7261
130.315
78.67
90.5753
79.8073
79.1154
79.5878
81.3227
87.7971
176.111
174.452
167.672
196.616
173.393
118.624
77.1827
124.281
78.3867
79.0558
81.8499
84.7567
87.7631
89.3072
121.852
102.161
173.257
179.563
171.638
145.519
176.21
192.537
153.592
168.855
119.767
80.6796
96.6853
61.2563
74.3951
100.972
112.79
107.238
127.718
122.462
159.473
104.513
110.85
195.058
174.119
175.068
158.339
177.54
153.74
146.193
97.5429
125.764
87.3942
53.2542
57.2292
49.162
49.6264
74.862
103.245
58.1171
87.4217
94.1347
110.573
96.4969
148.714
181.499
176.004
204.204
111.612
97.1491
73.5613
59.4849
53.7159
49.1762
48.8591
50.3079
46.4137
51.724
59.5751
49.0829
63.2011
79.0878
156.365
86.0994
120.048
175.169
48.7115
52.5376
51.9686
51.7331
48.5048
62.3519
49.5593
80.8734
80.3821
72.6845
72.6382
72.7286
73.4653
73.6447
72.1255
73.0268
75.4557
76.3398
75.8784
76.0878
77.716
77.1454
79.3053
123.666
86.9978
106.2
138.032
109.823
90.812
74.0802
88.3674
60.3524
81.318
77.2031
92.5508
79.8109
79.1787
79.9897
80.5612
121.602
86.781
110.805
96.6572
106.149
78.5151
70.6259
66.5495
98.4342
101.762
84.0157
88.0737
87.3373
97.6778
73.8839
59.4981
48.7783
41.5625
103.587
117.564
89.8908
87.7153
83.7994
53.5568
38.8302
37.7576
36.3764
36.1694
38.2138
38.6109
38.9819
39.4149
76.417
48.9233
62.6359
50.1174
52.6692
43.8766
46.3735
71.0167
35.9494
39.7647
37.6207
35.0194
40.0158
40.3491
40.525
37.8264
34.7587
41.0653
40.6155
41.0498
42.1295
70.1456
62.9127
71.3489
68.1373
70.8309
67.9468
60.4619
66.3532
75.2759
76.3276
73.2452
73.9226
74.9284
77.3989
75.2995
65.7658
50.2732
65.9638
59.8495
48.9306
56.781
59.6143
47.6405
43.031
76.7946
79.5387
75.9535
75.6201
73.4047
76.2243
70.9686
77.5572
68.8624
60.2986
53.8172
48.9001
46.6155
43.1633
40.6448
82.8951
80.8193
64.3688
69.7511
68.155
40.516
38.7931
39.5468
37.5198
37.4961
77.0922
65.8105
59.3602
62.5261
49.3469
38.726
37.8458
38.8665
38.6966
38.9167
37.9535
37.8508
38.0751
38.0438
46.1141
42.2777
42.5658
42.9512
40.5593
39.2291
38.8405
42.9757
38.7995
38.4659
39.6005
39.321
38.6113
39.0714
39.4507
39.8015
40.0754
39.6806
39.2251
39.778
39.2408
52.7279
44.5455
60.4616
50.968
57.9143
52.3197
44.9381
50.9522
70.346
70.4353
57.7627
59.5331
59.4924
69.6717
59.6449
41.8935
36.741
50.797
41.9769
38.6171
41.3072
42.0826
37.76
35.2761
65.2627
68.2742
61.0389
61.1701
54.3903
55.6897
49.577
56.4059
43.2982
38.3253
36.6073
35.5971
34.2674
33.1117
32.8012
48.7021
49.3049
35.2957
26.2153
28.5492
35.0364
36.0417
33.2984
33.2176
34.7345
43.2161
32.1566
20.0246
23.8633
16.3249
36.5613
35.8971
36.7568
37.2321
37.3072
36.048
35.9506
36.5997
36.4829
28.5135
36.0546
30.2374
16.3767
15.057
18.8331
15.5337
15.5073
37.8218
36.9829
38.6147
39.1093
37.1167
37.9281
38.4171
39.3302
39.7246
39.1298
38.3012
39.3778
29.1254
38.4233
33.9787
45.1789
40.9257
45.0418
37.2531
36.6539
38.1393
46.9089
46.7147
35.3541
35.3561
34.1472
46.7957
34.5396
33.693
31.7225
35.0228
35.1227
32.8802
32.8371
31.1779
33.8991
31.6349
41.7999
37.0177
37.0651
33.2101
31.7879
24.7907
26.5825
30.8526
24.4009
31.8845
30.8526
31.1931
30.4984
28.8499
30.673
19.8094
20.0678
23.0256
18.9031
17.9606
30.9106
32.9517
26.243
28.5679
27.7381
16.262
14.9937
15.9032
15.8247
15.5201
35.8382
32.2257
35.1404
36.0374
35.5441
35.4084
34.4509
36.1737
35.3043
14.6296
14.0688
14.5273
14.2447
15.1529
14.3624
15.2052
15.285
35.8412
34.4738
36.7844
36.4531
35.3987
29.5794
23.0372
19.6947
35.338
15.5316
13.5702
16.2146
14.245
29.814
24.2612
28.965
30.7159
29.7532
20.7333
23.3355
21.413
25.1458
23.2414
17.0498
16.4586
14.0054
24.3723
16.3822
29.1124
24.1442
29.697
32.0397
30.6162
25.1558
26.0674
26.7914
28.3619
23.5714
19.0278
19.6988
17.5406
17.6156
14.8257
15.0414
20.3844
16.0497
28.6874
24.158
28.8033
23.8765
14.9986
20.5805
17.669
16.1105
15.1552
13.9093
13.4989
19.766
15.7283
14.0486
13.4472
12.9912
15.0484
14.2751
13.8378
13.5585
13.7922
15.9491
12.8312
32.183
30.2428
31.6636
13.3049
18.3317
14.1693
16.9003
14.6875
14.3319
14.6036
14.2145
14.3228
14.2846
14.2875
14.1772
30.2164
17.4888
14.6988
14.0536
12.3213
14.0284
14.5343
14.4028
13.541
14.2977
14.2211
14.3037
14.2405
18.1026
13.1322
13.6973
16.4667
13.9203
13.7104
13.0426
13.4163
12.7491
12.8567
13.5315
13.3737
13.4091
13.2441
13.3786
17.307
13.3048
18.7232
18.7442
18.541
13.8896
13.3597
13.4084
13.102
13.7865
12.9993
13.7824
13.3006
13.3418
13.1752
13.3271
13.6085
13.4999
14.6234
13.0864
13.352
13.1872
12.8162
12.8493
13.5606
13.4264
13.5693
13.5749
13.5823
13.5875
13.5937
13.6302
13.606
13.6643
13.5817
13.6396
13.5985
13.6869
12.9116
13.5294
13.1624
13.1331
13.4643
13.6822
13.6692
13.6653
13.653
13.6076
13.7081
13.6285
13.6885
13.6069
13.7055
13.5985
13.7447
13.5744
13.7586
13.2357
13.3894
11.3822
11.0706
10.8586
13.0571
13.2491
13.1085
13.0279
14.0916
14.1044
14.2171
13.9535
14.0131
14.0173
14.1035
13.8785
11.1158
13.2145
14.1254
14.2122
13.5822
13.9276
13.8749
14.0959
13.9765
13.8965
13.993
13.9034
14.0362
13.3165
13.2669
13.4417
13.3102
13.3447
13.419
13.3398
13.3669
13.3684
13.4351
13.3527
13.331
13.4333
13.4377
13.4475
13.0655
13.102
13.1664
13.1143
12.9812
13.2066
13.2262
13.1467
13.0152
13.3485
13.3705
13.4231
13.3478
13.3391
13.3574
13.3537
13.4141
13.5491
13.4229
13.5357
13.5868
13.6299
13.573
13.6112
13.0981
13.079
13.1007
13.0816
13.0046
12.9654
13.5784
13.5237
13.5918
13.5448
13.5651
13.5166
13.5359
13.6332
13.6067
13.6442
13.59
13.6292
13.573
13.6342
13.1832
13.3524
13.2531
13.1819
13.3062
13.6133
13.7409
13.6161
13.4794
13.5199
13.5759
13.4072
13.6535
13.6167
13.7012
13.5399
13.6355
13.4904
13.6427
13.4025
13.3766
14.0563
13.7114
13.9691
13.3347
13.7775
13.4582
13.6837
13.9592
13.9203
13.9588
13.8233
13.8867
13.8419
13.869
13.5379
13.8738
13.4968
13.6585
13.4126
13.6127
14.0263
13.7272
13.8143
13.8609
13.5672
13.686
13.744
13.8722
13.8342
13.7399
13.7917
13.7478
13.8467
13.3062
13.3392
13.4544
13.3648
13.3994
13.5131
13.4317
13.463
13.3672
13.4583
13.4772
13.4385
13.5132
13.4667
13.5194
13.0788
13.0932
13.231
13.1355
12.9257
13.2388
13.2629
13.1396
12.9541
13.4066
13.382
13.3833
13.4164
13.4896
13.4383
13.454
13.4471
13.5631
13.4954
13.5372
13.572
13.6103
13.5724
13.6241
13.0104
12.9393
12.8938
12.9707
12.9862
12.9252
13.5764
13.4617
13.5153
13.5271
13.6179
13.4433
13.5406
13.6266
13.5637
13.6301
13.6036
13.6567
13.5839
13.6366
13.1947
13.3045
13.2744
13.2337
13.3207
13.488
13.5433
13.4342
13.4739
13.5173
13.6031
13.5504
13.6331
13.4965
13.6412
13.5594
13.6497
13.5978
13.6577
13.3669
13.4067
13.5473
13.3429
13.4346
13.4444
13.4878
13.3914
13.4269
13.8237
13.7899
13.8138
13.7389
13.7843
13.7416
13.7707
13.5458
13.8684
13.623
13.6331
13.5333
13.6451
13.4356
13.3117
13.5367
13.5737
13.2218
13.4317
13.4876
13.7224
13.6749
13.6193
13.6709
13.6209
13.7372
13.4251
13.5316
13.61
13.5279
13.5665
13.6986
13.6254
13.6538
13.5585
13.5971
13.6957
13.6789
13.7008
13.5967
13.6958
13.1766
13.3064
13.3455
13.2026
13.0865
13.4074
13.4514
13.2976
13.2347
13.5818
13.5131
13.5761
13.5883
13.6662
13.5947
13.6733
13.6225
13.7259
13.0682
13.1182
13.0659
13.23
13.2789
13.2366
13.6509
13.566
13.6385
13.7113
13.7129
13.6956
13.7216
13.6877
13.629
13.7097
13.6114
13.682
13.6554
13.7092
13.3131
13.3693
13.4731
13.4159
13.4495
13.6297
13.7093
13.6705
13.7053
13.7294
13.7657
13.7893
13.7173
13.6015
13.6815
13.6508
13.7264
13.6227
13.6892
13.464
13.5302
13.5347
13.492
13.4839
13.6099
13.5984
13.553
13.4862
13.7692
13.7031
13.747
13.6902
13.7547
13.6747
13.7358
13.7823
13.2992
13.3143
13.3306
13.3999
13.0663
13.3054
13.3734
13.642
13.586
13.5659
13.6387
13.5779
13.6822
13.6513
13.7764
13.7998
13.7415
13.7553
13.8951
13.8379
13.8487
13.7938
13.8057
13.9101
13.8993
13.9021
13.79
13.8769
13.4707
13.6339
13.5755
13.4392
13.3887
13.6872
13.6973
13.5723
13.5298
13.7419
13.6752
13.7577
13.7459
13.8044
13.7481
13.8235
13.8211
13.8825
13.4277
13.4384
13.4043
13.6067
13.5837
13.5605
13.8166
13.8026
13.8897
13.8397
13.8699
13.5255
13.5271
13.6797
13.6352
13.6169
13.9021
13.8255
13.8708
13.9263
13.8589
13.5938
13.679
13.628
13.6766
13.5262
13.7372
13.6186
13.8869
13.7126
13.755
13.659
13.744
13.7061
13.7718
13.6666
13.7647
13.8268
13.311
13.4419
13.3755
13.4391
13.2271
13.494
13.5381
13.6695
13.608
13.65
13.7104
13.6521
13.7138
13.8863
13.9772
13.981
13.9264
13.9318
14.052
14.0006
14.0024
13.9876
13.9797
14.0697
14.055
14.0296
13.9455
13.9893
13.783
13.9105
13.8112
13.7045
13.6363
13.9421
13.9088
13.825
13.7056
13.8599
13.8159
13.8788
13.8569
13.9054
13.8714
13.9225
13.9231
13.9539
13.7599
13.7061
13.6914
13.8855
13.805
13.7881
13.8767
13.918
13.9521
13.9094
13.9447
13.7435
13.7071
13.863
13.8309
13.7896
13.9659
13.8953
13.9376
13.9882
13.921
13.7597
13.7993
13.662
13.9804
13.8301
13.7573
13.8275
13.9424
14.0259
13.8063
13.6964
13.8075
13.8367
13.8532
13.7388
13.8524
13.9352
13.6252
13.9183
13.6399
13.6787
13.6193
13.7876
13.7942
13.7665
13.7296
13.7946
13.8214
13.799
13.7981
14.0486
14.0976
14.1055
14.0539
14.0571
14.1373
14.0824
14.0883
14.0947
14.0517
14.137
14.1096
14.0516
14.0099
14.0148
14.0044
14.0505
13.9875
13.9184
13.786
14.0814
14.0402
13.9712
13.8607
13.9406
13.9122
13.9548
13.9168
13.9571
13.9388
13.9691
13.9733
13.9812
13.9708
13.8877
13.8706
14.0242
13.9567
13.9474
13.9361
13.9599
13.9708
13.9449
13.9654
13.9064
13.8485
13.9888
13.9718
13.893
13.987
13.9396
13.9671
13.9849
13.9528
13.7981
13.7642
14.02
13.9825
14.186
13.7133
14.0649
13.8851
14.1168
13.8997
13.8004
13.9091
13.9008
13.9333
13.8387
13.9458
14.0114
14.1363
14.147
13.875
13.873
13.917
13.9238
13.9108
13.8698
13.8613
13.8883
13.8958
13.8969
13.8703
14.1051
14.057
14.1367
14.0804
14.0841
14.0947
14.0391
14.0412
14.0953
14.0266
14.0891
14.0573
13.9807
13.9996
13.9724
14.0395
13.9778
14.0509
13.9528
13.8888
13.9856
14.0061
13.8716
13.8525
13.9555
13.949
13.9639
13.9133
13.939
13.9413
13.9437
13.9745
13.9534
14.064
14.0106
14.0062
14.0372
14.0566
14.051
13.9398
13.9558
13.937
13.9185
13.9324
14.0039
13.9338
14.0737
14.0728
14.0141
13.9723
13.9513
13.9452
13.9523
13.9312
13.772
13.8491
14.0056
13.8374
14.0255
13.7641
13.9571
13.8725
13.9816
13.9474
13.8662
13.965
13.898
13.9407
13.8756
13.9607
14.0119
14.0913
14.0626
13.9577
13.9434
13.948
13.9734
13.9526
13.9128
13.9198
13.9156
13.9175
13.9282
13.892
13.9605
13.8626
14.0216
13.9691
13.9719
13.9407
13.8912
13.8972
14.0055
13.922
13.9626
13.9419
13.8565
13.9373
13.8985
13.9033
13.777
13.9108
13.7452
13.7734
13.703
13.8005
13.5999
13.6701
13.9107
13.9177
13.9144
13.8682
13.8798
13.8801
13.8787
13.9229
13.887
14.0019
14.1084
14.0935
13.9375
14.1133
14.0887
13.8857
13.8959
13.8671
13.8499
13.8562
14.1267
14.1146
14.1515
14.1203
14.1379
13.92
13.9015
13.9022
13.8859
13.8607
14.0145
14.1065
13.9649
13.9313
13.9683
13.9735
13.9736
13.9785
13.9705
13.9151
13.8675
13.9278
13.8489
13.8711
13.8373
13.8799
13.9338
14.0479
14.0389
13.9884
13.9665
13.9646
13.9924
13.965
13.913
13.9292
13.9094
13.9005
13.9223
13.8577
13.7893
13.7461
13.866
13.8317
13.8225
13.7937
13.791
13.7654
13.8695
13.7934
13.8107
13.8019
13.7467
13.8593
13.826
13.6025
13.4167
13.7082
13.4309
13.5744
13.5646
13.6548
13.3178
13.5209
13.8462
13.8454
13.8398
13.8214
13.8141
13.8211
13.8033
13.8485
13.8127
13.8235
14.0436
14.0045
13.7123
13.9491
13.9128
13.814
13.8135
13.7953
13.7789
13.7749
14.0752
14.0964
14.0353
14.0254
14.0483
13.8573
13.8425
13.8595
13.8373
13.8582
14.0774
14.0365
13.9576
13.9988
13.968
13.9729
13.9372
13.9947
13.9538
13.8078
13.7953
13.8197
13.7697
13.7519
13.7534
13.7781
13.805
14.0253
14.0005
13.9855
13.9627
13.9696
13.9712
13.9518
13.8825
13.9096
13.8885
13.8659
13.8962
13.7946
13.7369
13.7652
13.7468
13.7708
13.731
13.7478
13.7847
13.7323
13.7534
13.7319
13.7476
13.7478
13.7479
13.8037
13.8053
13.3646
13.4547
13.6528
13.3196
13.533
13.6597
13.6961
13.4196
13.566
13.7888
13.7894
13.7747
13.7941
13.7746
13.7584
13.7564
13.7813
13.7604
13.646
13.9011
13.8611
13.653
13.9044
13.8544
13.7456
13.7438
13.7354
13.7365
13.7416
13.9787
14.0047
13.9577
13.9452
13.9721
13.8139
13.8636
13.8142
13.7898
13.8475
14.0005
13.9738
13.9215
13.9774
13.9444
13.9473
13.9112
13.9578
13.9375
13.7493
13.7376
13.7612
13.7399
13.7583
13.7566
13.7628
13.7918
13.9807
13.9628
13.953
13.9394
13.9485
13.9374
13.9281
13.8569
13.8858
13.8755
13.8555
13.8789
13.7882
13.8281
13.9453
13.7776
13.8377
13.7734
13.8699
13.9464
13.8496
13.7812
13.7833
13.8391
13.8497
13.8174
13.8156
13.8306
13.631
13.8384
13.7589
13.569
13.6323
13.8797
13.8724
13.793
13.7668
13.77
13.7513
13.7465
13.7821
13.7646
13.7489
13.7351
13.7522
13.7489
13.7416
13.9254
13.8792
13.8549
13.9443
13.9133
13.7602
13.7684
13.7361
13.8246
13.8118
13.9314
13.9505
13.939
13.9233
13.9365
13.7874
13.8151
13.7909
13.7927
13.7723
13.9547
13.9401
13.9065
13.9418
13.9322
13.925
13.9036
13.9294
13.9268
13.7584
13.7861
13.7771
13.7426
13.756
13.8185
13.7913
13.7539
13.9459
13.9319
13.9261
13.9224
13.9192
13.9228
13.9213
13.8615
13.8763
13.8719
13.8656
13.8747
13.8331
14.1154
14.2265
14.1213
14.0821
14.0527
14.3476
14.2025
14.2605
13.9392
13.8693
14.1164
14.0204
13.9405
13.8422
13.8608
13.9964
14.0685
14.0406
14.011
13.9378
14.1426
14.1437
14.0935
14.0538
13.7658
13.742
13.7198
13.7885
13.7726
13.7322
13.7078
13.7418
13.7377
13.9388
13.9546
13.9445
13.9893
13.9529
13.9514
13.8647
13.8263
13.7564
13.8309
13.8304
13.9152
13.9252
13.9267
13.9087
13.9147
13.801
13.7396
13.7799
13.8039
13.735
13.9267
13.914
13.9006
13.9176
13.92
13.9066
13.894
13.9078
13.9102
13.7568
13.8412
13.8044
13.792
13.7773
13.8563
13.8314
13.7613
13.9213
13.9108
13.9249
13.9228
13.9135
13.923
13.923
13.8667
13.8752
13.8688
13.8615
13.8726
13.8544
14.2042
14.1265
14.3485
14.2589
14.3197
14.2512
14.1915
14.2635
14.1005
14.0059
14.2393
14.1347
14.0012
13.8631
13.8704
14.0704
14.031
14.1387
14.0947
14.0735
14.0842
14.094
14.0541
14.0482
13.7775
13.726
13.7054
13.793
13.7813
13.7271
13.7119
13.7308
13.7223
13.9922
13.9429
13.9436
13.9738
13.9282
13.9289
13.7824
13.7947
13.7208
13.7218
13.7364
13.9022
13.9026
13.9007
13.8946
13.8891
13.7842
13.7454
13.7527
13.7598
13.7484
13.9016
13.8897
13.8857
13.8984
13.8996
13.8892
13.8765
13.8899
13.8887
13.7993
13.8495
13.8491
13.8022
13.8139
13.8335
13.8359
13.7841
13.9036
13.896
13.9219
13.9201
13.9051
13.9155
13.9145
13.8573
13.8684
13.862
13.8562
13.866
13.8503
14.0546
13.9968
14.163
14.0977
14.1397
14.0544
14.0149
14.021
14.118
13.9311
14.055
14.0562
13.8176
13.8553
13.8349
13.9916
13.9576
14.0355
14.0046
14.0002
13.9792
13.9794
13.961
13.9438
13.7854
13.7316
13.7227
13.7978
13.7823
13.7192
13.7291
13.7147
13.7083
13.9499
13.9113
13.9131
13.9269
13.8963
13.8983
13.6469
13.6669
13.6643
13.5803
13.606
13.8864
13.878
13.8803
13.8792
13.8693
13.7378
13.7464
13.7219
13.7167
13.7437
13.879
13.8707
13.8671
13.8803
13.8786
13.8731
13.8579
13.8721
13.8695
13.8056
13.83
13.813
13.7977
13.7985
13.8228
13.8076
13.7848
13.8879
13.8807
13.9074
13.9074
13.8871
13.898
13.8971
13.8575
13.8659
13.8552
13.8616
13.8658
13.8432
13.9551