# Probe 0 (0 0 0.01)
#       Probe             0
#        Time
       0.0001        4432.2
       0.0002       13.5873
       0.0003       31.0469
       0.0004       32.9156
       0.0005         35.01
       0.0006       36.7478
       0.0007       37.9577
       0.0008       38.6756
       0.0009       39.0693
        0.001        39.013
       0.0011       32.7228
       0.0012       29.8721
       0.0013       27.9169
       0.0014       26.4033
       0.0015        25.186
       0.0016       24.1646
       0.0017       23.3212
       0.0018       22.5956
       0.0019        21.979
        0.002       21.4561
       0.0021       28.5795
       0.0022        28.367
       0.0023       28.1668
       0.0024       27.9886
       0.0025       27.8279
       0.0026       27.6922
       0.0027       27.5782
       0.0028       27.4866
       0.0029       27.4114
        0.003       27.3535
       0.0031       31.2928
       0.0032       31.1511
       0.0033       31.0756
       0.0034       31.0363
       0.0035       31.0139
       0.0036       31.0107
       0.0037       31.0121
       0.0038       31.0247
       0.0039       31.0439
        0.004       31.0694
       0.0041       30.4931
       0.0042       30.7143
       0.0043       30.9611
       0.0044         31.18
       0.0045       31.3825
       0.0046        31.575
       0.0047       31.7623
       0.0048       31.9516
       0.0049       32.1322
        0.005       32.3106
       0.0051        31.485
       0.0052       31.6566
       0.0053       31.9356
       0.0054       32.1977
       0.0055       32.4618
       0.0056       32.7241
       0.0057       32.9831
       0.0058       33.2408
       0.0059       33.4982
        0.006       33.7639
       0.0061       32.1241
       0.0062       32.2436
       0.0063       32.5344
       0.0064       32.8305
       0.0065       33.1367
       0.0066       33.4376
       0.0067       33.7421
       0.0068       34.0533
       0.0069       34.3471
        0.007       34.6423
       0.0071       32.8171
       0.0072       32.9983
       0.0073       33.3552
       0.0074       33.7113
       0.0075       34.0658
       0.0076       34.4269
       0.0077        34.786
       0.0078       35.1408
       0.0079       35.4893
        0.008       35.8208
       0.0081       35.2973
       0.0082       35.6522
       0.0083        36.144
       0.0084       36.6453
       0.0085       37.1554
       0.0086       37.6631
       0.0087       38.1714
       0.0088       38.6647
       0.0089       39.1657
        0.009       39.6551
       0.0091       39.3528
       0.0092       40.0933
       0.0093       40.8758
       0.0094       41.6526
       0.0095       42.3773
       0.0096       43.1239
       0.0097       43.8781
       0.0098       44.6198
       0.0099       45.3572
         0.01       46.0522
       0.0101         47.91
       0.0102       48.9644
       0.0103       50.0379
       0.0104       51.1162
       0.0105       52.2004
       0.0106        53.292
       0.0107       54.3733
       0.0108       55.4483
       0.0109       56.5258
        0.011       57.6051
       0.0111       59.7046
       0.0112       62.2602
       0.0113       64.8464
       0.0114       67.4746
       0.0115       70.1291
       0.0116       72.7885
       0.0117       75.4452
       0.0118       78.1219
       0.0119       80.7387
        0.012       83.3677
       0.0121       87.8548
       0.0122       90.3686
       0.0123       92.8011
       0.0124       95.2137
       0.0125       97.6402
       0.0126       100.165
       0.0127       102.771
       0.0128       105.462
       0.0129       108.243
        0.013       111.124
       0.0131       115.666
       0.0132       120.619
       0.0133       125.596
       0.0134       130.735
       0.0135       136.023
       0.0136       141.452
       0.0137       147.029
       0.0138       152.726
       0.0139       158.711
        0.014       164.807
       0.0141       173.811
       0.0142       181.452
       0.0143       189.285
       0.0144       197.245
       0.0145       205.354
       0.0146       213.589
       0.0147       221.922
       0.0148       230.433
       0.0149       239.036
        0.015       247.727
       0.0151       256.501
       0.0152       265.034
       0.0153       273.274
       0.0154       281.804
       0.0155       290.241
       0.0156       298.686
       0.0157       307.071
       0.0158       315.383
       0.0159       323.604
        0.016       331.659
       0.0161       340.253
       0.0162       348.064
       0.0163         355.7
       0.0164       363.112
       0.0165       370.383
       0.0166       377.471
       0.0167        384.41
       0.0168        391.21
       0.0169       397.821
        0.017       404.311
       0.0171        408.55
       0.0172       413.281
       0.0173       417.959
       0.0174       422.591
       0.0175        427.21
       0.0176       431.812
       0.0177       436.423
       0.0178       441.081
       0.0179       445.771
        0.018        450.51
       0.0181       449.785
       0.0182       450.097
       0.0183       450.532
       0.0184       451.026
       0.0185        451.55
       0.0186       452.103
       0.0187       452.709
       0.0188       453.295
       0.0189       453.952
        0.019       454.611
       0.0191       448.651
       0.0192       443.395
       0.0193       438.181
       0.0194       433.017
       0.0195       427.885
       0.0196       422.772
       0.0197       417.752
       0.0198       412.764
       0.0199       407.844
         0.02       402.926
       0.0201       395.055
       0.0202       387.524
       0.0203       380.203
       0.0204         373.1
       0.0205       366.161
       0.0206       359.405
       0.0207       352.847
       0.0208       346.463
       0.0209       340.258
        0.021        334.24
       0.0211       329.171
       0.0212       324.466
       0.0213       320.012
       0.0214       315.785
       0.0215       311.794
       0.0216       308.075
       0.0217       304.569
       0.0218       301.318
       0.0219       298.359
        0.022       295.645
       0.0221       292.956
       0.0222       290.962
       0.0223        289.27
       0.0224       287.882
       0.0225        286.78
       0.0226       285.977
       0.0227       285.475
       0.0228       285.268
       0.0229       285.362
        0.023       285.743
       0.0231       285.727
       0.0232       286.231
       0.0233       286.917
       0.0234       287.798
       0.0235       288.872
       0.0236       290.151
       0.0237       291.629
       0.0238       293.304
       0.0239       295.175
        0.024       297.249
       0.0241       298.762
       0.0242       300.709
       0.0243       302.792
       0.0244       304.998
       0.0245       307.311
       0.0246       309.712
       0.0247       312.231
       0.0248       314.847
       0.0249       317.554
        0.025       320.369
       0.0251       322.301
       0.0252       324.829
       0.0253       327.548
       0.0254        330.39
       0.0255       333.355
       0.0256       336.435
       0.0257       339.645
       0.0258        342.98
       0.0259       346.468
        0.026       350.113
       0.0261       350.864
       0.0262       352.527
       0.0263        354.33
       0.0264       356.218
       0.0265       358.171
       0.0266       360.187
       0.0267       362.309
       0.0268        364.54
       0.0269       366.885
        0.027       369.317
       0.0271       365.781
       0.0272       363.134
       0.0273       360.623
       0.0274       358.214
       0.0275       355.866
       0.0276       353.588
       0.0277       351.408
       0.0278       349.276
       0.0279        347.22
        0.028       345.214
       0.0281       338.634
       0.0282       332.729
       0.0283       327.019
       0.0284       321.487
       0.0285       316.139
       0.0286       310.965
       0.0287       305.948
       0.0288       301.116
       0.0289       296.468
        0.029       291.997
       0.0291       287.036
       0.0292       282.734
       0.0293        278.67
       0.0294       274.891
       0.0295       271.364
       0.0296       268.067
       0.0297       265.061
       0.0298       262.284
       0.0299       259.733
         0.03       257.488
       0.0301       254.722
       0.0302        252.69
       0.0303        250.93
       0.0304       249.402
       0.0305        248.18
       0.0306       247.216
       0.0307       246.517
       0.0308       246.083
       0.0309       245.928
        0.031       246.058
       0.0311       245.269
       0.0312        245.13
       0.0313       245.218
       0.0314       245.497
       0.0315       246.015
       0.0316       246.746
       0.0317       247.729
       0.0318       248.916
       0.0319       250.328
        0.032       251.929
       0.0321       252.817
       0.0322       254.288
       0.0323       255.885
       0.0324       257.669
       0.0325       259.616
       0.0326        261.74
       0.0327       264.016
       0.0328       266.452
       0.0329        269.03
        0.033       271.798
       0.0331       273.257
       0.0332       275.447
       0.0333       277.753
       0.0334       280.153
       0.0335       282.682
       0.0336       285.328
       0.0337       288.109
       0.0338       291.031
       0.0339       294.112
        0.034       297.384
       0.0341       295.954
       0.0342       295.369
       0.0343       294.854
       0.0344       294.409
       0.0345       294.028
       0.0346         293.7
       0.0347       293.451
       0.0348       293.304
       0.0349       293.253
        0.035       293.309
       0.0351       288.798
       0.0352        284.97
       0.0353       281.355
       0.0354       277.894
       0.0355        274.58
       0.0356       271.398
       0.0357       268.353
       0.0358       265.449
       0.0359       262.718
        0.036       260.092
       0.0361        255.93
       0.0362       252.335
       0.0363       249.024
       0.0364       245.934
       0.0365       243.077
       0.0366       240.434
       0.0367       238.024
       0.0368       235.844
       0.0369       233.892
        0.037       232.127
       0.0371       228.388
       0.0372       225.726
       0.0373       223.334
       0.0374       221.176
       0.0375       219.263
       0.0376       217.598
       0.0377       216.173
       0.0378       214.995
       0.0379       214.056
        0.038       213.362
       0.0381       211.308
       0.0382        209.94
       0.0383       208.825
       0.0384       207.961
       0.0385       207.354
       0.0386       206.986
       0.0387       206.863
       0.0388       206.979
       0.0389       207.339
        0.039       207.923
       0.0391       208.375
       0.0392       209.188
       0.0393       210.186
       0.0394       211.364
       0.0395       212.734
       0.0396       214.296
       0.0397       216.032
       0.0398       217.975
       0.0399       220.121
         0.04       222.485
       0.0401       222.944
       0.0402       224.267
       0.0403       225.742
       0.0404       227.342
       0.0405        229.05
       0.0406       230.898
       0.0407       232.884
       0.0408       235.027
       0.0409       237.326
        0.041        239.76
       0.0411       237.967
       0.0412       236.942
       0.0413       235.991
       0.0414        235.12
       0.0415        234.32
       0.0416       233.591
       0.0417       232.941
       0.0418       232.388
       0.0419        231.93
        0.042       231.554
       0.0421       228.122
       0.0422       225.307
       0.0423       222.662
       0.0424       220.178
       0.0425       217.835
       0.0426       215.627
       0.0427        213.57
       0.0428       211.655
       0.0429       209.877
        0.043       208.261
       0.0431       204.116
       0.0432       200.764
       0.0433       197.676
       0.0434       194.838
       0.0435       192.245
       0.0436       189.866
       0.0437       187.719
       0.0438        185.79
       0.0439       184.078
        0.044       182.588
       0.0441       179.336
       0.0442       176.798
       0.0443       174.451
       0.0444       172.286
       0.0445         170.3
       0.0446       168.485
       0.0447       166.836
       0.0448       165.353
       0.0449       164.024
        0.045        162.85
       0.0451       160.735
       0.0452       159.216
       0.0453       157.907
       0.0454       156.789
       0.0455       155.848
       0.0456       155.061
       0.0457       154.438
       0.0458       153.966
       0.0459       153.641
        0.046        153.47
       0.0461       152.387
       0.0462       151.969
       0.0463       151.702
       0.0464       151.558
       0.0465       151.563
       0.0466       151.708
       0.0467       151.998
       0.0468       152.449
       0.0469       153.053
        0.047       153.807
       0.0471       152.991
       0.0472       152.653
       0.0473       152.448
       0.0474       152.356
       0.0475       152.363
       0.0476       152.453
       0.0477       152.625
       0.0478       152.872
       0.0479       153.191
        0.048       153.575
       0.0481       151.876
       0.0482       150.617
       0.0483       149.418
       0.0484       148.284
       0.0485       147.213
       0.0486       146.186
       0.0487       145.212
       0.0488       144.284
       0.0489       143.401
        0.049       142.563
       0.0491       139.709
       0.0492       137.317
       0.0493       135.108
       0.0494       133.048
       0.0495       131.134
       0.0496       129.356
       0.0497       127.711
       0.0498       126.199
       0.0499       124.814
         0.05       123.563
       0.0501       120.812
       0.0502       118.745
       0.0503       116.868
       0.0504       115.159
       0.0505       113.605
       0.0506       112.198
       0.0507       110.913
       0.0508       109.756
       0.0509       108.693
        0.051       107.734
       0.0511       105.903
       0.0512       104.442
       0.0513       103.122
       0.0514       101.909
       0.0515         100.8
       0.0516       99.7847
       0.0517       98.8472
       0.0518        97.982
       0.0519       97.1886
        0.052       96.4547
       0.0521       95.2245
       0.0522       94.3394
       0.0523       93.5608
       0.0524       92.8868
       0.0525       92.3173
       0.0526       91.8471
       0.0527       91.4767
       0.0528       91.2081
       0.0529       91.0461
        0.053       90.9913
       0.0531       90.1921
       0.0532       89.8613
       0.0533       89.6371
       0.0534       89.5092
       0.0535       89.4658
       0.0536       89.5107
       0.0537       89.6427
       0.0538       89.8512
       0.0539       90.1332
        0.054       90.4847
       0.0541         89.84
       0.0542       89.5524
       0.0543       89.3079
       0.0544       89.0955
       0.0545       88.9152
       0.0546       88.7603
       0.0547       88.6221
       0.0548       88.4985
       0.0549       88.3923
        0.055       88.2886
       0.0551       86.9785
       0.0552       85.9921
       0.0553       85.0827
       0.0554       84.2536
       0.0555        83.495
       0.0556       82.8086
       0.0557       82.1888
       0.0558       81.6308
       0.0559       81.1453
        0.056       80.7289
       0.0561       79.3346
       0.0562       78.3763
       0.0563       77.5302
       0.0564       76.7992
       0.0565       76.1671
       0.0566       75.6376
       0.0567       75.1982
       0.0568        74.848
       0.0569       74.5863
        0.057       74.4027
       0.0571       73.2858
       0.0572        72.524
       0.0573       71.8394
       0.0574       71.2342
       0.0575       70.6904
       0.0576       70.2054
       0.0577       69.7638
       0.0578       69.3727
       0.0579       69.0186
        0.058       68.7034
       0.0581       67.8422
       0.0582       67.2437
       0.0583        66.705
       0.0584       66.2319
       0.0585       65.8076
       0.0586       65.4332
       0.0587        65.111
       0.0588       64.8271
       0.0589       64.5932
        0.059       64.4029
       0.0591       63.8921
       0.0592       63.6439
       0.0593        63.494
       0.0594       63.4433
       0.0595       63.4866
       0.0596       63.6287
       0.0597       63.8733
       0.0598       64.2085
       0.0599       64.6339
         0.06       65.1508
       0.0601       65.2413
       0.0602       65.6344
       0.0603       66.0634
       0.0604       66.5244
       0.0605       67.0219
       0.0606       67.5613
       0.0607       68.1348
       0.0608       68.7464
       0.0609       69.3943
        0.061       70.0751
       0.0611       70.0041
       0.0612        70.183
       0.0613       70.3955
       0.0614       70.6449
       0.0615       70.9268
       0.0616       71.2266
       0.0617       71.5521
       0.0618        71.896
       0.0619       72.2679
        0.062       72.6643
       0.0621       72.2961
       0.0622       72.2064
       0.0623       72.2029
       0.0624       72.3011
       0.0625        72.487
       0.0626       72.7585
       0.0627       73.1166
       0.0628       73.5466
       0.0629       74.0609
        0.063       74.6614
       0.0631       74.6625
       0.0632       75.0371
       0.0633       75.5004
       0.0634       76.0246
       0.0635       76.6106
       0.0636       77.2336
       0.0637       77.8877
       0.0638       78.5778
       0.0639       79.2924
        0.064       80.0119
       0.0641       79.8835
       0.0642       80.1231
       0.0643        80.422
       0.0644       80.7499
       0.0645       81.1062
       0.0646       81.4679
       0.0647       81.8559
       0.0648       82.2744
       0.0649       82.7018
        0.065       83.1508
       0.0651       82.8913
       0.0652       82.9301
       0.0653       83.0401
       0.0654       83.2329
       0.0655       83.4808
       0.0656       83.7782
       0.0657       84.1533
       0.0658       84.6018
       0.0659       85.1196
        0.066       85.7145
       0.0661       86.0251
       0.0662       86.6168
       0.0663       87.3023
       0.0664       88.0589
       0.0665       88.8996
       0.0666       89.8147
       0.0667        90.813
       0.0668       91.9327
       0.0669       93.0682
        0.067       94.2935
       0.0671       94.9941
       0.0672       96.0619
       0.0673       97.2129
       0.0674       98.3975
       0.0675        99.565
       0.0676       100.772
       0.0677       101.975
       0.0678       103.191
       0.0679       104.413
        0.068       105.631
       0.0681       105.544
       0.0682       105.926
       0.0683       106.334
       0.0684        106.75
       0.0685       107.183
       0.0686       107.648
       0.0687       108.161
       0.0688       108.698
       0.0689       109.284
        0.069       109.916
       0.0691       109.788
       0.0692       110.211
       0.0693       110.745
       0.0694        111.38
       0.0695       112.116
       0.0696       112.951
       0.0697       113.852
       0.0698       114.866
       0.0699       115.934
         0.07       117.083
       0.0701       116.817
       0.0702        117.06
       0.0703       117.354
       0.0704       117.691
       0.0705       118.062
       0.0706       118.462
       0.0707       118.885
       0.0708       119.324
       0.0709        119.79
        0.071       120.262
       0.0711       119.127
       0.0712       118.622
       0.0713       118.168
       0.0714       117.762
       0.0715       117.397
       0.0716       117.068
       0.0717       116.767
       0.0718       116.498
       0.0719       116.252
        0.072       116.037
       0.0721        115.12
       0.0722       114.492
       0.0723       113.991
       0.0724       113.629
       0.0725       113.404
       0.0726       113.279
       0.0727       113.292
       0.0728       113.434
       0.0729       113.698
        0.073       114.081
       0.0731       113.454
       0.0732       113.526
       0.0733       113.689
       0.0734       113.933
       0.0735       114.249
       0.0736       114.653
       0.0737        115.11
       0.0738       115.618
       0.0739       116.181
        0.074       116.782
       0.0741       116.235
       0.0742       115.945
       0.0743       115.683
       0.0744       115.473
       0.0745       115.294
       0.0746       115.136
       0.0747       115.002
       0.0748       114.939
       0.0749       114.798
        0.075       114.724
       0.0751       113.543
       0.0752       112.694
       0.0753       111.921
       0.0754       111.222
       0.0755       110.606
       0.0756       110.072
       0.0757       109.619
       0.0758       109.256
       0.0759       108.932
        0.076       108.784
       0.0761       108.187
       0.0762       107.988
       0.0763       107.979
       0.0764       108.033
       0.0765       108.167
       0.0766         108.4
       0.0767       108.699
       0.0768        109.06
       0.0769       109.471
        0.077       109.925
       0.0771       109.311
       0.0772       109.068
       0.0773       108.851
       0.0774       108.653
       0.0775       108.479
       0.0776       108.313
       0.0777       108.168
       0.0778        108.01
       0.0779       107.844
        0.078        107.72
       0.0781       106.359
       0.0782       105.466
       0.0783        104.66
       0.0784       103.924
       0.0785       103.235
       0.0786       102.609
       0.0787       102.009
       0.0788       101.462
       0.0789       100.953
        0.079        100.47
       0.0791       99.5401
       0.0792       99.1129
       0.0793       98.8276
       0.0794       98.6894
       0.0795       98.6373
       0.0796       98.7084
       0.0797       98.8787
       0.0798       99.1396
       0.0799       99.5015
         0.08       99.9327
       0.0801       99.5694
       0.0802       99.7043
       0.0803       99.8995
       0.0804       100.152
       0.0805       100.428
       0.0806       100.741
       0.0807       101.067
       0.0808       101.395
       0.0809       101.731
        0.081       102.064
       0.0811       101.183
       0.0812       100.531
       0.0813       99.9143
       0.0814        99.321
       0.0815       98.7504
       0.0816       98.2001
       0.0817       97.6576
       0.0818       97.1344
       0.0819       96.6202
        0.082        96.119
       0.0821       95.0648
       0.0822       94.3254
       0.0823       93.6814
       0.0824       93.1282
       0.0825       92.6449
       0.0826       92.2411
       0.0827       91.9006
       0.0828       91.6399
       0.0829       91.4503
        0.083       91.3335
       0.0831       90.9714
       0.0832       90.9382
       0.0833       90.9495
       0.0834       91.0119
       0.0835       91.1021
       0.0836       91.2198
       0.0837       91.3488
       0.0838       91.4821
       0.0839       91.6068
        0.084       91.7141
       0.0841       90.9775
       0.0842       90.5011
       0.0843       90.0347
       0.0844       89.6042
       0.0845       89.1859
       0.0846       88.7802
       0.0847       88.3771
       0.0848       87.9715
       0.0849       87.5584
        0.085        87.143
       0.0851        86.046
       0.0852       85.2449
       0.0853       84.5319
       0.0854         83.89
       0.0855       83.3132
       0.0856       82.7899
       0.0857       82.3154
       0.0858       81.8988
       0.0859       81.5317
        0.086       81.2075
       0.0861       80.7517
       0.0862       80.8105
       0.0863       80.9725
       0.0864       81.2164
       0.0865       81.5234
       0.0866       81.8774
       0.0867       82.2786
       0.0868       82.7179
       0.0869        83.183
        0.087       83.6643
       0.0871       83.4416
       0.0872       83.5737
       0.0873       83.7178
       0.0874       83.8652
       0.0875       83.9995
       0.0876       84.1127
       0.0877       84.1986
       0.0878       84.2642
       0.0879       84.3067
        0.088       84.3145
       0.0881       83.4223
       0.0882       82.8201
       0.0883       82.2626
       0.0884        81.731
       0.0885       81.2232
       0.0886       80.7251
       0.0887       80.2359
       0.0888       79.7484
       0.0889        79.261
        0.089       78.7713
       0.0891       78.0103
       0.0892         77.48
       0.0893       77.0497
       0.0894       76.7011
       0.0895       76.4175
       0.0896       76.1866
       0.0897       76.0126
       0.0898       75.8938
       0.0899       75.8104
         0.09       75.7636
       0.0901       75.5218
       0.0902       75.6069
       0.0903       75.7207
       0.0904       75.8444
       0.0905       75.9656
       0.0906       76.0643
       0.0907       76.1377
       0.0908        76.175
       0.0909       76.1684
        0.091       76.1334
       0.0911       75.2522
       0.0912       74.7105
       0.0913        74.209
       0.0914       73.7311
       0.0915       73.2727
       0.0916       72.8172
       0.0917       72.3643
       0.0918       71.9041
       0.0919       71.4438
        0.092       70.9856
       0.0921       69.9904
       0.0922       69.3976
       0.0923       68.8695
       0.0924       68.3974
       0.0925        67.968
       0.0926       67.5739
       0.0927       67.2134
       0.0928       66.8943
       0.0929       66.5981
        0.093        66.337
       0.0931       66.2509
       0.0932       66.4414
       0.0933       66.7033
       0.0934       67.0032
       0.0935       67.3173
       0.0936        67.653
       0.0937       67.9931
       0.0938       68.3419
       0.0939        68.659
        0.094        68.987
       0.0941       68.7483
       0.0942       68.7866
       0.0943       68.7605
       0.0944       68.7908
       0.0945       68.7147
       0.0946       68.7221
       0.0947       68.5741
       0.0948       68.5431
       0.0949       68.3188
        0.095       68.2455
       0.0951        67.408
       0.0952       67.1166
       0.0953        66.648
       0.0954       66.4252
       0.0955       65.9807
       0.0956       65.7637
       0.0957       65.3094
       0.0958       65.0684
       0.0959       64.6021
        0.096       64.3283
       0.0961       64.0066
       0.0962        63.817
       0.0963       63.5082
       0.0964       63.4022
       0.0965       63.1949
       0.0966       63.1437
       0.0967       62.9923
       0.0968       62.9653
       0.0969       62.8379
        0.097        62.817
       0.0971       62.7793
       0.0972       62.9402
       0.0973       63.0302
       0.0974       63.1915
       0.0975       63.2751
       0.0976       63.4101
       0.0977       63.4522
       0.0978       63.5304
       0.0979       63.5166
        0.098       63.5182
       0.0981       62.9879
       0.0982       62.7273
       0.0983       62.4512
       0.0984       62.2418
       0.0985       61.9911
       0.0986       61.7848
       0.0987       61.5265
       0.0988        61.297
       0.0989       61.0169
        0.099       60.7561
       0.0991       60.0945
       0.0992        59.703
       0.0993        59.323
       0.0994       59.0112
       0.0995       58.6881
       0.0996       58.4048
       0.0997       58.1076
       0.0998       57.8449
       0.0999       57.5704
          0.1       57.3288
       0.1001       57.0681
       0.1002        57.154
       0.1003       57.2617
       0.1004       57.3986
       0.1005        57.528
       0.1006       57.6664
       0.1007       57.7875
       0.1008       57.8942
       0.1009        57.974
        0.101       58.0396
       0.1011       57.8067
       0.1012       57.8042
       0.1013       57.7952
       0.1014       57.7837
       0.1015       57.7485
       0.1016       57.6968
       0.1017       57.6204
       0.1018       57.5206
       0.1019       57.3944
        0.102       57.2389
       0.1021       56.7589
       0.1022       56.4599
       0.1023        56.189
       0.1024       55.9308
       0.1025        55.671
       0.1026        55.413
       0.1027       55.1374
       0.1028       54.8646
       0.1029       54.5765
        0.103       54.2866
       0.1031       53.9313
       0.1032       53.7161
       0.1033       53.5341
       0.1034       53.3757
       0.1035       53.2309
       0.1036        53.098
       0.1037        52.964
       0.1038       52.8355
       0.1039       52.6965
        0.104       52.5541
       0.1041       52.4773
       0.1042       52.5743
       0.1043       52.6902
       0.1044       52.8092
       0.1045       52.9251
       0.1046       53.0289
       0.1047       53.1166
       0.1048       53.1771
       0.1049        53.205
        0.105       53.1936
       0.1051       53.0314
       0.1052       52.9273
       0.1053        52.822
       0.1054       52.7503
       0.1055         52.67
       0.1056       52.5843
       0.1057       52.4849
       0.1058       52.3708
       0.1059       52.2383
        0.106       52.0988
       0.1061       51.7439
       0.1062       51.5179
       0.1063       51.3194
       0.1064       51.1391
       0.1065       50.9669
       0.1066        50.796
       0.1067       50.6214
       0.1068       50.4412
       0.1069       50.2548