/*--------------------------------*- C++ -*----------------------------------*\
| =========                 |                                                 |
| \\      /  F ield         | OpenFOAM: The Open Source CFD Toolbox           |
|  \\    /   O peration     | Version:  5.x                                   |
|   \\  /    A nd           | Web:      www.OpenFOAM.org                      |
|    \\/     M anipulation  |                                                 |
\*---------------------------------------------------------------------------*/
FoamFile
{
    version     2.0;
    format      ascii;
    class       volScalarField;
    location    "2.65";
    object      voidfraction;
}
// * * * * * * * * * * * * * * * * * * * * * * * * * * * * * * * * * * * * * //

dimensions      [0 0 0 0 0 0 0];

internalField   nonuniform List<scalar> 
10571
(
0.478702
0.438904
0.507559
0.531854
0.448394
0.572206
0.660106
0.634512
0.644547
0.507146
0.818976
0.576664
0.643103
0.668087
0.630086
0.685316
0.455597
0.480754
0.602635
0.683057
0.489935
0.485767
0.55736
0.627864
0.477313
0.963798
0.973177
0.959254
0.928886
0.974786
0.97858
0.992922
0.936828
0.907787
0.809302
0.924724
0.960055
0.934319
0.916265
0.684932
0.707713
0.933439
0.904756
0.718959
0.492086
0.987645
0.851745
0.462009
0.539749
0.987862
0.995208
0.988143
0.884444
0.995035
0.98837
0.992943
0.950596
0.91808
0.974071
0.995209
0.947265
0.981512
0.965664
0.888441
0.857512
0.983892
0.963292
0.97091
0.581568
0.935514
0.98421
0.978894
0.533105
0.988643
0.994156
0.993576
0.807315
0.988461
0.993047
0.992129
0.963373
0.912153
0.97846
0.99418
0.942275
0.964167
0.966569
0.790656
0.890765
0.989814
0.993387
0.984132
0.541585
0.891598
0.993397
0.974663
0.543894
0.98992
0.988843
0.987023
0.834147
0.986092
0.995377
0.993034
0.967728
0.748831
0.980099
0.997703
0.94492
0.959702
0.960357
0.720963
0.859196
0.983263
0.98301
0.900909
0.533235
0.830617
0.950998
0.82037
0.533288
0.984653
0.995546
0.975756
0.820899
0.989831
0.997093
0.988773
0.980374
0.746179
0.37469
0.996921
0.99327
0.940063
0.95816
0.972437
0.74472
0.409919
0.820173
0.96816
0.975002
0.914906
0.563761
0.760169
0.926247
0.871112
0.600842
0.989245
0.992271
0.983642
0.83926
0.991619
0.996476
0.984581
0.991039
0.903093
0.776153
0.990983
0.990291
0.93871
0.96044
0.981594
0.968593
0.82004
0.94755
0.915745
0.984716
0.950276
0.696379
0.922645
0.721675
0.965028
0.834951
0.646048
0.971601
0.987714
0.9935
0.792448
0.994086
0.991891
0.989359
0.970853
0.967444
0.674245
0.987904
0.995636
0.940693
0.969245
0.991588
0.989756
0.850555
0.971608
0.853076
0.983713
0.955259
0.75572
1
0.614461
0.964609
0.817978
0.622931
0.953341
0.992541
0.997731
0.846942
0.996621
0.989148
0.997903
0.986422
0.712602
0.959925
0.96943
0.992828
0.890172
0.91714
0.996192
0.993403
0.889704
0.965173
0.845387
0.901574
0.948183
0.749414
0.922403
0.906433
0.760209
0.560689
0.880142
0.992072
0.995771
0.798498
0.963576
0.917058
0.931683
0.972493
0.543283
0.937761
0.845192
0.916012
0.7397
0.896709
0.701888
0.847078
0.976702
0.804194
0.932807
0.637979
0.999303
0.856101
0.731541
0.557822
0.814348
0.915958
0.929085
0.566999
0.989021
0.996163
0.922506
0.768024
0.473354
0.994282
0.998986
0.999776
0.976562
0.701265
0.457168
1
0.999802
0.989946
0.765901
0.587193
1
0.999819
0.960094
0.934582
0.978664
0.998685
0.999797
0.826364
1
0.999889
0.99982
0.935832
0.458049
1
1
1
0.999775
0.992545
0.502335
1
0.99996
1
0.999032
0.867573
1
1
0.99797
0.991094
0.998376
0.999798
1
0.972032
1
1
1
0.997828
0.561481
1
1
1
1
0.999842
0.903052
1
1
1
1
0.98894
1
1
1
1
1
1
1
0.996485
1
0.999889
0.999889
0.999911
0.908783
1
1
1
1
0.999858
0.984249
1
1
1
1
1
1
1
1
1
1
1
1
0.99982
1
1
0.999889
0.999992
0.992557
1
1
1
1
0.999882
0.998246
1
1
1
1
1
1
1
1
1
1
1
1
1
1
1
1
1
0.999845
1
1
1
1
1
1
1
1
1
1
1
1
1
1
1
1
1
1
0.999129
1
1
1
1
1
1
1
1
1
1
1
1
1
1
1
1
1
1
1
1
1
1
1
1
1
0.999889
1
1
1
1
1
1
1
1
1
1
1
1
1
1
1
1
1
1
1
0.998955
1
1
1
1
1
1
1
1
1
1
1
1
1
1
1
1
1
1
1
1
1
0.99989
1
1
1
1
1
1
1
1
1
1
1
1
1
1
1
1
1
1
1
1
1
1
1
1
1
1
1
1
1
1
1
1
1
1
1
1
1
1
1
1
1
1
1
1
1
1
1
1
1
1
1
1
1
1
1
1
1
1
1
1
1
1
1
1
1
1
1
1
1
1
1
1
1
1
1
1
1
1
1
1
1
1
1
1
1
1
1
1
1
1
1
1
1
1
1
1
1
1
1
1
1
1
0.999981
1
1
1
1
1
1
1
1
1
1
1
1
1
1
1
1
1
1
1
1
1
1
1
0.999992
1
1
1
1
1
1
1
1
1
1
1
1
1
1
1
1
1
1
1
0.99902
1
1
1
1
1
1
1
1
1
1
1
1
1
1
1
1
1
1
1
1
1
1
1
1
1
1
1
1
1
1
1
1
1
1
1
1
1
1
1
1
1
1
1
1
1
1
1
1
1
1
1
1
1
1
1
1
1
1
1
1
1
1
1
1
1
1
1
1
1
1
1
1
1
1
1
1
1
1
1
1
1
1
1
1
1
1
1
1
1
1
1
1
1
1
1
1
1
1
1
1
1
1
1
1
1
1
1
1
1
1
1
1
1
1
1
1
1
1
1
1
1
1
1
1
1
1
1
1
1
1
1
1
1
1
1
1
1
1
1
1
1
1
1
1
1
1
1
1
1
1
1
1
1
1
1
1
1
1
1
1
1
1
1
1
1
1
1
1
1
1
1
1
1
1
1
1
1
1
1
1
1
1
1
1
1
1
1
1
1
1
1
1
1
1
1
1
1
1
1
1
1
1
1
1
1
1
1
1
1
1
1
1
1
1
1
1
1
1
1
1
1
1
1
1
1
1
1
1
1
1
1
1
1
1
1
1
1
1
1
1
1
1
1
1
1
1
1
1
1
1
1
1
1
1
1
1
1
1
1
1
1
1
1
1
1
1
1
1
1
1
1
1
1
1
1
1
1
1
1
1
1
1
1
1
1
1
1
1
1
1
1
1
1
1
1
1
1
1
1
1
1
1
1
1
1
1
1
1
1
1
1
1
1
1
1
1
1
1
1
1
1
1
1
1
1
1
1
1
1
1
1
1
1
1
1
1
1
1
1
1
1
1
1
1
1
1
1
1
1
1
1
1
1
1
1
1
1
1
1
1
1
1
1
1
1
1
1
1
1
1
1
1
1
1
1
1
1
1
1
1
1
1
1
1
1
1
1
1
1
1
1
1
1
1
1
1
1
1
1
1
1
1
1
1
1
1
1
1
1
1
1
1
1
1
1
1
1
1
1
1
1
1
1
1
1
1
1
1
1
1
1
1
1
1
1
1
1
1
1
1
1
1
1
1
1
1
1
1
1
1
1
1
1
1
1
1
1
1
1
1
1
1
1
1
1
1
1
1
1
1
1
1
1
1
1
1
1
1
1
1
1
1
1
1
1
1
1
1
1
1
1
1
1
1
1
1
1
1
1
1
1
1
1
1
1
1
1
1
1
1
1
1
1
1
1
1
1
1
1
1
1
1
1
1
1
1
1
1
1
1
1
1
1
1
1
1
1
1
1
1
1
1
1
1
1
1
1
1
1
1
1
1
1
1
1
1
1
1
1
1
1
1
1
1
1
1
1
1
1
1
1
1
1
1
1
1
1
1
1
1
1
1
1
1
1
1
1
1
1
1
1
1
1
1
1
1
1
1
1
1
1
1
1
1
1
1
1
1
1
1
1
1
1
1
1
1
1
1
1
1
1
1
1
1
1
1
1
1
1
1
1
1
1
1
1
1
1
1
1
1
1
1
1
1
1
1
1
1
1
1
1
1
1
1
1
1
1
1
1
1
1
1
1
1
1
1
1
1
1
1
1
1
1
1
1
1
1
1
1
1
1
1
1
1
1
1
1
1
1
1
1
1
1
1
1
1
1
1
1
1
1
1
1
1
1
1
1
1
1
1
1
1
1
1
1
1
1
1
1
1
1
1
1
1
1
1
1
1
1
1
1
1
1
1
1
1
1
1
1
1
1
1
1
1
1
1
1
1
1
1
1
1
1
1
1
1
1
1
1
1
1
1
1
1
1
1
1
1
1
1
1
1
1
1
1
1
1
1
1
1
1
1
1
1
1
1
1
1
1
1
1
1
1
1
1
1
1
1
1
1
1
1
1
1
1
1
1
1
1
1
1
1
1
1
1
1
1
1
1
1
1
1
1
1
1
1
1
1
1
1
1
1
1
1
1
1
1
1
1
1
1
1
1
1
1
1
1
1
1
1
1
1
1
1
1
1
1
1
1
1
1
1
1
1
1
1
1
1
1
1
1
1
1
1
1
1
1
1
1
1
1
1
1
1
1
1
1
1
1
1
1
1
1
1
1
1
1
1
1
1
1
1
1
1
1
1
1
1
1
1
1
1
1
1
1
1
1
1
1
1
1
1
1
1
1
1
1
1
1
1
1
1
1
1
1
1
1
1
1
1
1
1
1
1
1
1
1
1
1
1
1
1
1
1
1
1
1
1
1
1
1
1
1
1
1
1
1
1
1
1
1
1
1
1
1
1
1
1
1
1
1
1
1
1
1
1
1
1
1
1
1
1
1
1
1
1
1
1
1
1
1
1
1
1
1
1
1
1
1
1
1
1
1
1
1
1
1
1
1
1
1
1
1
1
1
1
1
1
1
1
1
1
1
1
1
1
1
1
1
1
1
1
1
1
1
1
1
1
1
1
1
1
1
1
1
1
1
1
1
1
1
1
1
1
1
1
1
1
1
1
1
1
1
1
1
1
1
1
1
1
1
1
1
1
1
1
1
1
1
1
1
1
1
1
1
1
1
1
1
1
1
1
1
1
1
1
1
1
1
1
1
1
1
1
1
1
1
1
1
1
1
1
1
1
1
1
1
1
1
1
1
1
1
1
1
1
1
1
1
1
1
1
1
1
1
1
1
1
1
1
1
1
1
1
1
1
1
1
1
1
1
1
1
1
1
1
1
1
1
1
1
1
1
1
1
1
1
1
1
1
1
1
1
1
1
1
1
1
1
1
1
1
1
1
1
1
1
1
1
1
1
1
1
1
1
0.69954
0.640874
0.789511
0.723154
0.601593
0.671034
0.7096
0.57951
0.50524
0.559065
0.736254
0.554371
0.722851
0.836265
0.862711
0.870329
0.894937
0.868516
0.813926
0.868514
0.724242
0.600074
0.500852
0.599605
0.509707
0.45079
0.493033
0.666558
0.48461
0.540859
0.735557
0.479338
0.488192
0.860028
0.904654
0.509964
0.513471
0.793872
0.563675
0.50865
0.484081
0.501724
0.503178
0.479753
0.636794
0.535872
0.711248
0.718668
0.567546
0.49436
0.490479
0.498582
0.511449
0.538607
0.600882
0.502416
0.474764
0.601681
0.551555
0.479417
0.485849
0.52316
0.634873
0.628757
0.871271
0.932435
0.913523
0.927028
0.859868
0.788698
0.491206
0.520787
0.599652
0.569407
0.612825
0.623456
0.636569
0.620082
0.616646
0.619308
0.811662
0.679897
0.866131
0.881264
0.707619
0.787441
0.535521
0.589249
0.650936
0.742576
0.861292
0.873107
0.926718
0.913647
0.814993
0.716861
0.4949
0.478164
0.481099
0.528547
0.497214
0.449087
0.519111
0.532145
0.504081
0.49264
0.447397
0.473689
0.61861
0.436
0.765895
0.449162
0.695369
0.477578
0.45653
0.50528
0.589346
0.57997
0.744156
0.777185
0.459388
0.480254
0.510616
0.707267
0.83909
0.853191
0.899396
0.567791
0.921738
0.752006
0.990098
0.949689
0.710681
0.766122
0.713867
0.535122
0.570056
0.74859
0.578935
0.571838
0.574015
0.450068
0.620387
0.532702
0.430068
0.70671
0.630917
0.473387
0.518492
0.502832
0.439581
0.427263
0.462494
0.475525
0.4695
0.464103
0.61541
0.534296
0.816767
0.519502
0.600871
0.480022
0.560372
0.535346
0.480026
0.442087
0.462183
0.493722
0.876793
0.494461
0.638036
0.900886
0.679347
0.591208
0.644291
0.609118
0.495949
0.473612
0.520712
0.461047
0.929657
0.944799
0.495219
0.885379
0.832779
0.578815
0.919563
0.899412
0.615894
0.647817
0.536131
0.69044
0.569451
0.848414
0.766623
0.986312
0.987824
0.965717
0.983377
0.987175
0.979153
0.985777
0.989054
0.991656
0.924609
0.964492
0.955158
0.911881
0.910407
0.950363
0.940033
0.947941
0.933186
0.947789
0.860858
0.898452
0.988696
0.96568
0.981618
0.838686
0.721234
0.934943
0.913446
0.747345
0.851995
0.567777
0.964051
0.984274
0.900074
0.67716
0.669389
0.861869
0.780069
0.80807
0.414554
0.554563
0.860345
0.721066
0.98222
0.821704
0.894104
0.751954
0.960339
0.697465
0.620995
0.595415
0.88117
0.725493
0.943173
0.776834
0.55468
0.923469
0.843674
0.992606
0.988002
0.985852
0.994074
0.971021
0.529823
0.918476
0.988209
0.882966
0.992945
0.83162
0.962994
0.978115
0.601762
0.933302
0.911984
0.604853
0.944875
0.914882
0.73602
0.560278
0.530132
0.751224
0.58707
0.631815
0.599899
0.995584
0.996112
0.985065
0.994599
0.997043
0.998549
0.990799
0.994787
0.995878
0.849057
0.922078
0.902985
0.831975
0.788079
0.95832
0.916316
0.907738
0.863184
0.992605
0.979432
0.982988
0.991556
0.995829
0.991499
0.905966
0.740259
0.916101
0.913157
0.737207
0.988675
0.927738
0.979035
0.985857
0.924816
0.75575
0.783679
0.859808
0.712907
0.745088
0.657467
0.701341
0.933111
0.72876
0.945891
0.871968
0.963946
0.70507
0.924836
0.699099
0.983056
0.802135
0.990827
0.686522
0.984896
0.816765
0.600177
0.777851
0.730101
0.993988
0.990167
0.909091
0.986052
0.987396
0.996657
0.987218
0.986446
0.995363
1
0.986449
0.969988
0.979166
0.607677
0.936583
0.927066
0.596315
0.932889
0.916662
0.767999
0.613263
0.550749
0.771558
0.643276
0.60136
0.653359
0.995964
0.985794
0.985683
0.991409
0.995918
0.981468
0.984495
0.989789
0.993633
0.718879
0.975384
0.899516
0.828744
0.66362
0.973683
0.909254
0.800379
0.757176
0.990492
0.980328
0.99072
0.98735
0.992194
0.992373
0.854324
0.672086
0.810096
0.725637
0.861825
0.984064
0.943887
0.985378
0.99007
0.94105
0.682917
0.654972
0.747042
0.804096
0.632503
0.671255
0.677315
0.964811
0.716095
0.920475
0.896643
0.963875
0.740638
0.900524
0.695372
0.981473
0.775111
0.95949
0.735311
0.92203
0.724695
0.537664
0.675577
0.660922
0.971018
0.946136
0.856688
0.967926
0.889597
0.989121
1
0.997071
0.938429
0.996818
0.749519
0.978395
0.972189
0.601106
0.941687
0.921948
0.630442
0.94276
0.937372
0.785141
0.67137
0.526928
0.793936
0.709756
0.694587
0.706363
0.993174
0.986277
0.989428
0.993953
0.992194
0.994455
0.988016
0.992104
0.98711
0.648311
0.983215
0.89399
0.828358
0.636702
0.968409
0.814553
0.705606
0.621599
0.983321
0.987685
0.981197
0.985331
0.987025
0.985887
0.705516
0.920278
0.705149
0.753772
0.841402
0.988036
0.952608
0.985155
0.991093
0.968208
0.886709
0.638846
0.729904
0.853079
0.673216
0.695667
0.713499
0.959593
0.7474
0.885626
0.815733
0.94111
0.726506
0.89819
0.741517
0.867517
0.778213
0.917336
0.798229
0.875349
0.846958
0.558115
0.623178
0.602306
0.941474
0.743735
0.774921
0.881467
0.717268
0.839569
0.953692
0.885609
0.881057
0.860407
0.811229
0.98097
0.972465
0.61042
0.948985
0.930549
0.598113
0.942361
0.911584
0.826989
0.726301
0.566499
0.849472
0.764798
0.684579
0.689289
0.989899
0.98342
0.988793
0.983222
0.988668
0.982692
0.990021
0.983578
0.989284
0.653814
0.971584
0.783769
0.812229
0.632984
0.972309
0.759794
0.609884
0.648747
0.986879
0.984055
0.994578
0.982388
0.996811
0.99582
0.603721
0.806533
0.489864
0.813924
0.473498
0.966222
0.551925
0.372067
0.417398
0.385514
0.398754
0.388304
0.401765
0.407084
0.996485
0.969329
0.990103
0.990091
0.971186
0.481003
0.6849
0.618348
0.912593
0.465012
0.697359
0.443264
0.399622
0.396242
0.39286
0.402357
0.408634
0.398542
0.396815
0.814923
0.912375
0.897101
0.643366
0.878297
0.881562
0.829054
0.584337
0.792721
0.814053
0.912267
0.890842
0.933472
0.847112
0.925221
0.899079
0.65074
0.605595
0.559404
0.888378
0.699283
0.745674
0.894719
0.698397
0.919195
0.834068
0.948492
0.929933
0.820127
0.852807
0.968003
0.960195
0.577471
0.927534
0.920372
0.591986
0.931095
0.907564
0.86395
0.767776
0.63197
0.889849
0.762619
0.657801
0.607385
0.98544
0.981538
0.982198
0.985187
0.994755
0.989133
0.987413
0.991654
0.992735
0.622726
0.951134
0.732948
0.801906
0.565173
0.94174
0.7246
0.637725
0.479533
0.647347
0.588772
0.512664
0.435983
0.714183
0.695385
0.98591
0.989773
0.992215
0.994387
0.991093
0.990094
0.757332
0.974587
0.814946
0.955967
0.856864
0.984186
0.851009
0.494778
0.801005
0.465828
0.841974
0.518996
0.944212
0.524144
0.988424
0.969326
0.996811
0.987545
0.971224
0.664343
0.794411
0.616492
0.982864
0.746988
0.872272
0.749231
0.490438
0.829815
0.552713
0.918337
0.53778
0.943609
0.817671
0.944049
0.94342
0.838932
0.673783
0.687608
0.962494
0.939005
0.809799
0.735765
0.864667
0.934203
0.903419
0.951407
0.851592
0.954086
0.882267
0.848856
0.763817
0.954533
0.78189
0.996982
0.982757
0.512176
0.47691
0.897434
0.695228
0.663475
0.890205
0.662419
0.932748
0.811687
0.977622
0.934167
0.789312
0.794813
0.952458
0.920741
0.625195
0.906049
0.903054
0.693134
0.910271
0.932461
0.900766
0.763042
0.656144
0.902488
0.76802
0.583436
0.587766
0.986903
0.97701
0.985225
0.988406
0.99583
0.968913
0.976145
0.981312
0.994527
0.567864
0.928225
0.709025
0.83235
0.585541
0.921767
0.672899
0.631854
0.749403
0.602466
0.939709
0.883018
0.899655
0.995546
0.97397
0.987148
0.977676
0.988549
0.990748
0.993292
0.987883
0.783058
0.995878
0.885683
0.83609
0.697227
0.983777
0.850743
0.583516
0.880533
0.540232
0.792562
0.853339
0.65518
0.637843
0.986575
0.961193
0.978886
0.984333
0.959218
0.761477
0.8859
0.779569
0.994856
0.764647
0.852634
0.841043
0.639819
0.961773
0.882343
0.818948
0.775396
0.98931
0.955658
0.951444
0.913072
0.986798
0.867407
0.864268
0.973082
0.992145
0.814922
0.883223
0.866232
0.960039
0.843324
0.961683
0.863888
0.956623
0.832221
0.973483
0.763211
0.994355
0.985865
1
0.996454
0.487411
0.641694
0.884259
0.640694
0.715288
0.849758
0.608321
0.926225
0.806655
0.956665
0.919853
0.701527
0.798649
0.918859
0.896068
0.691371
0.923782
0.921284
0.667937
0.921812
0.945665
0.908329
0.777779
0.596745
0.905634
0.75584
0.564922
0.534524
0.961057
0.954998
0.970152
0.979673
0.997068
0.928586
0.970543
0.981552
0.994496
0.577921
0.990683
0.746162
0.849923
0.541366
0.997732
0.773706
0.568721
0.50569
0.983897
0.989223
0.989549
0.97902
0.982186
0.979523
0.805012
0.976508
0.693396
0.59061
0.887476
0.802373
0.755693
0.994279
0.765833
0.949518
1
1
0.994204
1
0.982788
0.943417
0.938531
0.973334
0.929708
0.683683
0.835269
0.838228
0.851438
0.752159
0.706985
0.887176
0.970566
0.995775
1
0.997496
1
1
1
0.866751
0.753039
0.984817
0.725254
0.853758
0.895162
0.884804
0.710186
0.899815
0.872523
0.965054
0.826561
0.949353
0.892367
0.968415
0.795923
0.675506
0.89085
0.991324
0.801946
0.582298
0.991482
0.898193
0.660875
0.894585
0.614821
0.791052
0.843439
0.543382
0.750057
0.867564
0.814042
0.633624
0.884585
0.935128
0.576558
0.880994
0.905092
0.892464
0.714018
0.509899
0.859128
0.597719
0.495192
0.463612
0.87851
0.866116
0.970636
0.948206
0.952362
0.834112
0.949847
0.936499
0.950581
0.496933
1
0.722166
0.681674
0.461197
0.961406
0.577082
0.483702
0.459779
0.959473
0.971849
0.973708
0.939
0.938421
0.968287
0.666722
0.696689
0.490539
0.539508
0.476805
0.93561
0.871271
0.931494
0.951248
0.976764
0.692432
0.648439
0.539824
0.47441
0.580599
0.743558
0.973491
0.884666
0.943186
0.992764
0.997925
0.998417
0.999438
1
0.901327
0.961399
0.780622
0.761138
0.86511
0.835243
0.737965
0.61456
0.997971
1
0.990151
0.936893
0.998877
1
0.998902
0.779641
0.739707
0.989129
0.925936
0.976078
0.797605
0.796555
0.835794
0.571719
0.806971
0.860915
0.897082
0.881162
0.960999
0.821162
0.607759
0.815954
0.956293
0.786806
0.469261
0.496921
0.909237
0.962456
0.923668
0.96338
0.97855
0.887547
0.949614
0.984417
0.997136
0.434799
0.833437
0.471709
0.681233
0.447998
0.976709
0.510923
0.436537
0.449707
0.964353
0.965143
0.972378
0.992724
0.993622
0.99473
0.457684
0.461681
0.463754
0.448026
0.464962
0.998031
1
0.99912
0.998485
1
0.46445
0.525528
0.452899
0.46833
0.513532
1
1
1
1
1
1
1
1
0.999152
0.754501
0.916252
0.815381
0.985849
0.933101
0.9962
0.971705
0.676498
1
1
1
1
1
1
1
0.997947
0.997476
1
1
1
0.99321
0.95888
0.985225
0.954918
0.973223
0.998486
0.992523
0.994892
0.998547
0.987158
0.93509
0.97812
0.994912
0.970351
0.661002
0.822587
0.99596
1
0.98688
0.992492
0.999121
0.988184
0.997064
0.998063
1
0.482898
0.996772
0.571721
0.934578
0.615263
0.999045
0.700857
0.457786
0.499586
0.997329
0.996811
1
0.998839
1
1
0.454476
0.46298
0.468369
0.520087
0.495016
1
1
1
1
1
0.47902
0.707564
0.713662
0.500586
0.877748
1
1
1
1
1
1
0.99967
1
1
0.992562
0.999118
0.997289
1
0.996859
1
1
0.954307
1
1
1
1
1
0.999124
1
1
1
1
1
1
1
0.997979
0.997979
0.993623
0.997601
0.999697
1
1
0.999122
0.997516
0.988117
0.99934
0.999061
0.99222
0.922824
0.978458
1
1
0.999131
0.999166
1
1
1
1
1
0.746796
1
0.847318
0.984138
0.869737
1
0.95132
0.530807
0.66771
1
1
1
1
1
1
0.739325
0.546144
0.793967
0.898836
0.69138
1
1
1
1
1
0.634209
0.951806
0.969828
0.78721
0.978203
1
1
1
1
1
0.999128
1
1
1
0.998231
1
1
1
1
1
1
0.99797
1
1
0.999124
1
1
1
1
1
1
1
1
1
1
1
1
1
1
1
1
1
1
1
0.997755
1
1
0.99849
0.980688
0.997909
1
1
1
1
1
1
1
1
1
0.947343
1
0.980818
0.995764
0.983647
1
0.993434
0.856444
0.949978
1
1
0.999122
1
1
1
0.959268
0.82254
0.96918
0.99071
0.949832
1
1
1
1
1
0.922516
0.995586
0.995132
0.978459
0.998877
1
1
1
1
1
1
1
1
1
1
1
1
1
1
1
1
1
1
1
1
1
1
1
1
1
1
1
1
1
1
1
1
1
1
1
1
1
1
1
1
1
1
1
0.997978
1
1
1
1
1
1
1
1
1
1
0.996741
1
0.998548
0.999129
1
1
0.998881
0.990066
0.997971
1
1
1
1
1
1
0.996611
0.987238
0.996627
0.999425
1
1
1
1
0.999121
1
0.99989
1
1
1
1
1
1
1
1
1
1
1
1
1
1
1
1
1
1
1
1
1
1
1
1
1
1
1
1
1
1
1
1
1
1
1
1
1
1
0.999122
1
1
1
1
1
1
1
1
1
1
1
1
1
1
1
1
1
1
1
1
1
1
1
1
1
1
1
1
1
1
1
1
1
1
0.998063
1
1
1
1
0.999121
1
1
1
1
1
1
1
1
1
1
1
1
1
1
1
1
1
1
1
1
1
1
1
1
1
1
1
1
1
1
1
1
1
1
1
1
1
1
1
1
1
1
0.99911
1
1
0.999768
1
1
1
1
1
1
1
1
1
1
1
1
1
1
1
1
1
1
1
1
1
1
1
1
1
1
1
1
1
1
1
1
1
1
1
1
1
1
1
1
1
1
1
1
1
1
1
1
1
1
1
1
1
1
1
1
1
1
1
1
1
1
1
1
1
1
1
1
1
1
1
1
1
1
1
1
1
1
1
1
0.998878
1
1
1
1
0.999122
1
1
1
1
1
1
1
1
1
1
1
1
1
1
1
1
1
1
1
1
1
1
1
1
1
1
1
1
1
1
1
1
1
1
1
1
1
1
1
1
1
1
1
1
1
1
1
1
1
1
1
1
1
1
1
1
1
1
1
1
1
1
1
1
1
1
1
1
1
1
1
1
1
1
1
1
1
1
1
1
1
1
1
1
1
1
1
1
1
1
1
1
1
1
1
1
1
1
1
1
1
1
1
1
1
1
1
1
1
1
1
1
1
1
1
1
1
1
1
1
1
1
1
1
1
1
1
1
1
1
1
1
1
1
1
0.999044
1
1
1
1
1
1
1
1
1
1
1
1
1
1
1
1
1
1
1
1
1
1
1
1
1
1
1
1
0.9989
1
1
1
1
0.998021
1
1
1
1
1
1
1
1
1
1
1
1
1
1
1
1
1
1
1
1
1
1
1
1
1
1
1
1
1
1
1
1
1
1
1
1
1
1
1
1
1
1
1
1
1
1
1
1
1
1
1
1
1
1
1
1
1
1
1
1
1
1
1
1
0.998877
1
1
1
1
1
1
1
1
1
1
0.996812
1
1
1
1
1
1
1
1
1
1
1
1
1
1
1
1
1
1
1
1
1
1
1
1
1
1
1
1
1
1
1
1
1
1
1
1
1
1
1
1
1
1
1
1
1
1
1
1
1
1
1
1
0.998675
1
1
1
1
1
1
1
1
1
1
1
1
1
1
1
1
1
1
1
1
1
1
1
1
1
1
1
1
1
1
1
1
1
1
1
1
1
1
1
1
1
1
1
1
1
1
1
1
1
1
1
1
1
1
1
1
1
1
1
1
1
1
1
1
1
1
1
1
1
1
1
1
1
1
1
1
1
1
1
1
1
1
0.999303
1
1
1
1
1
1
0.998369
1
1
1
1
1
1
1
1
1
1
1
1
1
1
1
1
1
1
1
1
1
1
1
1
1
1
1
1
1
1
1
1
1
1
1
0.998048
0.99993
1
1
1
1
1
1
1
1
1
1
1
1
1
1
1
1
1
1
1
1
1
1
1
1
1
1
1
1
1
1
1
1
1
1
1
1
1
1
1
1
1
1
1
1
1
1
1
1
1
1
1
1
1
1
1
1
1
1
1
1
1
1
1
1
1
0.999124
1
1
1
1
1
1
1
1
1
1
1
1
1
1
0.999122
1
1
1
1
1
1
1
1
1
1
1
1
1
1
1
1
1
1
1
1
1
1
1
1
1
1
1
1
1
1
1
1
1
1
1
1
1
1
1
1
1
1
1
1
1
1
1
1
1
1
1
1
1
1
1
1
1
1
1
1
1
1
1
1
1
1
1
1
1
1
1
1
1
1
1
1
1
1
1
1
1
1
1
1
1
1
1
1
1
1
1
1
1
1
1
1
1
1
1
1
1
1
1
1
1
1
1
1
1
1
1
1
1
1
1
1
1
1
1
1
1
1
1
1
1
1
1
1
1
1
1
1
1
1
1
1
1
1
1
1
1
1
1
1
1
1
1
1
1
1
1
1
1
1
1
1
1
1
1
1
1
1
1
1
1
1
1
1
1
1
1
1
1
1
1
1
1
1
1
1
1
1
1
1
1
1
1
1
1
1
1
1
1
1
1
1
1
1
1
1
1
1
1
1
1
1
1
1
1
1
1
1
1
1
1
1
1
1
1
1
1
1
1
1
1
1
1
1
1
1
1
1
1
1
1
1
1
1
1
1
1
1
1
1
1
1
1
1
1
1
1
1
1
1
1
1
1
1
1
1
1
1
1
1
1
1
1
1
1
1
1
1
1
1
1
1
1
1
1
1
1
1
1
1
1
1
1
1
1
1
1
1
1
1
1
1
1
1
1
1
1
1
1
1
1
1
1
1
1
1
1
1
1
1
1
1
1
1
1
1
1
1
1
1
1
1
1
1
1
1
1
1
1
1
1
1
1
1
1
1
1
1
1
1
1
1
1
1
1
1
1
1
1
1
1
1
1
1
1
1
1
1
1
1
1
1
1
1
1
1
1
1
1
1
1
1
1
1
1
1
1
1
1
1
1
1
1
1
1
1
1
1
1
1
1
1
1
1
1
1
1
1
1
1
1
1
1
1
1
1
1
1
1
1
1
1
1
1
1
1
1
1
1
1
1
1
1
1
1
1
1
1
1
1
1
1
1
1
1
1
1
1
1
1
1
1
1
1
1
1
1
1
1
1
1
1
1
1
1
1
1
1
1
1
1
1
1
1
1
1
1
1
1
1
1
1
1
1
1
1
1
1
1
1
1
1
1
1
1
1
1
1
1
1
1
1
1
1
1
1
1
1
1
1
1
1
1
1
1
1
1
1
1
1
1
1
1
1
1
1
1
1
1
1
1
1
1
1
1
1
1
1
1
1
1
1
1
1
1
1
1
1
1
1
1
1
1
1
1
1
1
1
1
1
1
1
1
1
1
1
1
1
1
1
1
1
1
1
1
1
1
1
1
1
1
1
1
1
1
1
1
1
1
1
1
1
1
1
1
1
1
1
1
1
1
1
1
1
1
1
1
1
1
1
1
1
1
1
1
1
1
1
1
1
1
1
1
1
1
1
1
1
1
1
1
1
1
1
1
1
1
1
1
1
1
1
1
1
1
1
1
1
1
1
1
1
1
1
1
1
1
1
1
1
1
1
1
1
1
1
1
1
1
1
1
1
1
1
1
1
1
1
1
1
1
1
1
1
1
1
1
1
1
1
1
1
1
1
1
1
1
1
1
1
1
1
1
1
1
1
1
1
1
1
1
1
1
1
1
1
1
1
1
1
1
1
1
1
1
1
1
1
1
1
1
1
1
1
1
1
1
1
1
1
1
1
1
1
1
1
1
1
1
1
1
1
1
1
1
1
1
1
1
1
1
1
1
1
1
1
1
1
1
1
1
1
1
1
1
1
1
1
1
1
1
1
1
1
1
1
1
1
1
1
1
1
1
1
1
1
1
1
1
1
1
1
1
1
1
1
1
1
1
1
1
1
1
1
1
1
1
1
1
1
1
1
1
1
1
1
1
1
1
1
1
1
1
1
1
1
1
1
1
1
1
1
1
1
1
1
1
1
1
1
1
1
1
1
1
1
1
1
1
1
1
1
1
1
1
1
1
1
1
1
1
1
1
1
1
1
1
1
1
1
1
1
1
1
1
1
1
1
1
1
1
1
1
1
1
1
1
1
1
1
1
1
1
1
1
1
1
1
1
1
1
1
1
1
1
1
1
1
1
1
1
1
1
1
1
1
1
1
1
1
1
1
1
1
1
1
1
1
1
1
1
1
1
1
1
1
1
1
1
1
1
1
1
1
1
1
1
1
1
1
1
1
1
1
1
1
1
1
1
1
1
1
1
1
1
1
1
1
1
1
1
1
1
1
1
1
1
1
1
1
1
1
1
1
1
1
1
1
1
1
1
1
1
1
1
1
1
1
1
1
1
1
1
1
1
1
1
1
1
1
1
1
1
1
1
1
1
1
1
1
1
1
1
1
1
1
1
1
1
1
1
1
1
1
1
1
1
1
1
1
1
1
1
1
1
1
1
1
1
1
1
1
1
1
1
1
1
1
1
1
1
1
1
1
1
1
1
1
1
1
1
1
1
1
1
1
1
1
1
1
1
1
1
1
1
1
1
1
1
1
1
1
1
1
1
1
1
1
1
1
1
1
1
1
1
1
1
1
1
1
1
1
1
1
1
1
1
1
1
1
1
1
1
1
1
1
1
1
1
1
1
1
1
1
1
1
1
1
1
1
1
1
1
1
1
1
1
1
1
1
1
1
1
1
1
1
1
1
1
1
1
1
1
1
1
1
1
1
1
1
1
1
1
1
1
1
1
1
1
1
1
1
1
1
1
1
1
1
1
1
1
1
1
1
1
1
1
1
1
1
1
1
1
1
1
1
1
1
1
1
1
1
1
1
1
1
1
1
1
1
1
1
1
1
1
1
1
1
1
1
1
1
1
1
1
1
1
1
1
1
1
1
1
1
1
1
1
1
1
1
1
1
1
1
1
1
1
1
1
1
1
1
1
1
1
1
1
1
1
1
1
1
1
1
1
1
1
1
1
1
1
1
1
1
1
1
1
1
1
1
1
1
1
1
1
1
1
1
1
1
1
1
1
1
1
1
1
1
1
1
1
1
1
1
1
1
1
1
1
1
1
1
1
1
1
1
1
1
1
1
1
1
1
1
1
1
1
1
1
1
1
1
1
1
1
1
1
1
1
1
1
1
1
1
1
1
1
1
1
1
1
1
1
1
1
1
1
1
1
1
1
1
1
1
1
1
1
1
1
1
1
1
1
1
1
1
1
1
1
1
1
1
1
1
1
1
1
1
1
1
1
1
1
1
1
1
1
1
1
1
1
1
1
1
1
1
1
1
1
1
1
1
1
1
1
1
1
1
1
1
1
1
1
1
1
1
1
1
1
1
1
1
1
1
1
1
1
1
1
1
1
1
1
1
1
1
1
1
1
1
1
1
1
1
1
1
1
1
1
1
1
1
1
1
1
1
1
1
1
1
1
1
1
1
1
1
1
1
1
1
1
1
1
1
1
1
1
1
1
1
1
1
1
1
1
1
1
1
1
1
1
1
1
1
1
1
1
1
1
1
1
1
1
1
1
1
1
1
1
1
1
1
1
1
1
1
1
1
1
1
1
1
1
1
1
1
1
1
1
1
1
1
1
1
1
1
1
1
1
1
1
1
1
1
1
1
1
1
1
1
1
1
1
1
1
1
1
1
1
1
1
1
1
1
1
1
1
1
1
1
1
1
1
1
1
1
1
1
1
1
1
1
1
1
1
1
1
1
1
1
1
1
1
1
1
1
1
1
1
1
1
1
1
1
1
1
1
1
1
1
1
1
1
1
1
1
1
1
1
1
1
1
1
1
1
1
1
1
1
1
1
1
1
1
1
1
1
1
1
1
1
1
1
1
1
1
1
1
1
1
1
1
1
1
1
1
1
1
1
1
1
1
1
1
1
1
1
1
1
1
1
1
1
1
1
1
1
1
1
1
1
1
1
1
1
1
1
1
1
1
1
1
1
1
1
1
1
1
1
1
1
1
1
1
1
1
1
1
1
1
1
1
1
1
1
1
1
1
1
1
1
1
1
1
1
1
1
1
1
1
1
1
1
1
1
1
1
1
1
1
1
1
1
1
1
1
1
1
1
1
1
1
1
1
1
1
1
1
1
1
1
1
1
1
1
1
1
1
1
1
1
1
1
1
1
1
1
1
1
1
1
1
1
1
1
1
1
1
1
1
1
1
1
1
1
1
1
1
1
1
1
1
1
1
1
1
1
1
1
1
1
1
1
1
1
1
1
1
1
1
1
1
1
1
1
1
1
1
1
1
1
1
1
1
1
1
1
1
1
1
1
1
1
1
1
1
1
1
1
1
1
1
1
1
1
1
1
1
1
1
1
1
1
1
1
1
1
1
1
1
1
1
1
1
1
1
1
1
1
1
1
1
1
1
1
1
1
1
1
1
1
1
1
1
1
1
1
1
1
1
1
1
1
1
1
1
1
1
1
1
1
1
1
1
1
1
1
1
1
1
1
1
1
1
1
1
1
1
1
1
1
1
1
1
1
1
1
1
1
1
1
1
1
1
1
1
1
1
1
1
1
1
1
1
1
1
1
1
1
1
1
1
1
1
1
1
1
1
1
1
1
1
1
1
1
1
1
1
1
1
1
1
1
1
1
1
1
1
1
1
1
1
1
1
1
1
1
1
1
1
1
1
1
1
1
1
1
1
1
1
1
1
1
1
1
1
1
1
1
1
1
1
1
1
1
1
1
1
1
1
1
1
1
1
1
1
1
1
1
1
1
1
1
1
1
1
1
1
1
1
1
1
1
1
1
1
1
1
1
1
1
1
1
1
1
1
1
1
1
1
1
1
1
1
1
1
1
1
1
1
1
1
1
1
1
1
1
1
1
1
1
1
1
1
1
1
1
1
1
1
1
1
1
1
1
1
1
1
1
1
1
1
1
1
1
1
1
1
1
1
1
1
1
1
1
1
1
1
1
1
1
1
1
1
1
1
1
1
1
1
1
1
1
1
1
1
1
1
1
1
1
1
1
1
1
1
1
1
1
1
1
1
1
1
1
1
1
1
1
1
1
1
1
1
1
1
1
1
1
1
1
1
1
1
1
1
1
1
1
1
1
1
1
1
1
1
1
1
1
1
1
1
1
1
1
1
1
1
1
1
1
1
1
1
1
1
1
1
1
1
1
1
1
1
1
1
1
1
1
1
1
1
1
1
1
1
1
1
1
1
1
1
1
1
1
1
1
1
1
1
1
1
1
1
1
1
1
1
1
1
1
1
1
1
1
1
1
1
1
1
1
1
1
1
1
1
1
1
1
1
1
1
1
1
1
1
1
1
1
1
1
1
1
1
1
1
1
1
1
1
1
1
1
1
1
1
1
1
1
1
1
1
1
1
1
1
1
1
1
1
1
1
1
1
1
1
1
1
1
1
1
1
1
1
1
1
1
1
1
1
1
1
1
1
1
1
1
1
1
1
1
1
1
1
1
1
1
1
1
1
1
1
1
1
1
1
1
1
1
1
1
1
1
1
1
1
1
1
1
1
1
1
1
1
1
1
1
1
1
1
1
1
1
1
1
1
1
1
1
1
1
1
1
1
1
1
1
1
1
1
1
1
1
1
1
1
1
1
1
1
1
1
1
1
1
1
1
1
1
1
1
1
1
1
1
1
1
1
1
1
1
1
1
1
1
1
1
1
1
1
1
1
1
1
1
1
1
1
1
1
1
1
1
1
1
1
1
1
1
1
1
1
1
1
1
1
1
1
1
1
1
1
1
1
1
1
1
1
1
1
1
1
1
1
1
1
1
1
1
1
1
1
1
1
1
1
1
1
1
1
1
1
1
1
1
1
1
1
1
1
1
1
1
1
1
1
1
1
1
1
1
1
1
1
1
1
1
1
1
1
1
1
1
1
1
1
1
1
1
1
1
1
1
1
1
1
1
1
1
1
1
1
1
1
1
1
1
1
1
1
1
1
1
1
1
1
1
1
1
1
1
1
1
1
1
1
1
1
1
1
1
1
1
1
1
1
1
1
1
1
1
1
1
1
1
1
1
1
1
1
1
1
1
1
1
1
1
1
1
1
1
1
1
1
1
1
1
1
1
1
1
1
1
1
1
1
1
1
1
1
1
1
1
1
1
1
1
1
1
1
1
1
1
1
1
1
1
1
1
1
1
1
1
1
1
1
1
1
1
1
1
1
1
1
1
1
1
1
1
1
1
1
1
1
1
1
1
1
1
1
1
1
1
1
1
1
1
1
1
1
1
1
1
1
1
1
1
1
1
1
1
1
1
1
1
1
1
1
1
1
1
1
1
1
1
1
1
1
1
1
1
1
1
1
1
1
1
1
1
1
1
1
1
1
1
1
1
1
1
1
1
1
1
1
1
1
1
1
1
1
1
1
1
1
1
1
1
1
1
1
1
1
1
1
1
1
1
1
1
1
1
1
1
1
1
1
1
1
1
1
1
1
1
1
1
1
1
1
1
1
1
1
1
1
1
1
1
1
1
1
1
1
1
1
1
1
1
1
1
1
1
1
1
1
1
1
1
1
1
1
1
1
1
1
1
1
1
1
1
1
1
1
1
1
1
1
1
1
1
1
1
1
1
1
1
1
1
1
1
1
1
1
1
1
1
1
1
1
1
1
1
1
1
1
1
1
1
1
1
1
1
1
1
1
1
1
1
1
1
1
1
1
1
1
1
1
1
1
1
1
1
1
1
1
1
1
1
1
1
1
1
1
1
1
1
1
1
1
1
1
1
1
1
1
1
1
1
1
1
1
1
1
1
1
1
1
1
1
1
1
1
1
1
1
1
1
1
1
1
1
1
1
1
1
1
1
1
1
1
1
1
1
1
1
1
1
1
1
1
1
1
1
1
1
1
1
1
1
1
1
1
1
1
1
1
1
1
1
1
1
1
1
1
1
1
1
1
1
1
1
1
1
1
1
1
1
1
1
1
1
1
1
1
1
1
1
1
1
1
1
1
1
1
1
1
1
1
1
1
1
1
1
1
1
1
1
1
1
1
1
1
1
1
1
1
1
1
1
1
1
1
1
1
1
1
1
1
1
1
1
1
1
1
1
1
1
1
1
1
1
1
1
1
1
1
1
1
1
1
1
1
1
1
1
1
1
1
1
1
1
1
1
1
1
1
1
1
1
1
1
1
1
1
1
1
1
1
1
1
1
1
1
1
1
1
1
1
1
1
1
1
1
1
1
1
1
1
1
1
1
1
1
1
1
1
1
1
1
1
1
1
1
1
1
1
1
1
1
1
1
1
1
1
1
1
1
1
1
1
1
1
1
1
1
1
1
1
1
1
1
1
1
1
1
1
1
1
1
1
1
1
1
1
1
1
1
1
1
1
1
1
1
1
1
1
1
1
1
1
1
1
1
1
1
1
1
1
1
1
1
1
1
1
1
1
1
1
1
1
1
1
1
1
1
1
1
1
1
1
1
1
1
1
1
1
1
1
1
1
1
1
1
1
1
1
1
1
1
1
1
1
1
1
1
1
1
1
1
1
1
1
1
1
1
1
1
1
1
1
1
1
1
1
1
1
1
1
1
1
1
1
1
1
1
1
1
1
1
1
1
1
1
1
1
1
1
1
1
1
1
1
1
1
1
1
1
1
1
1
1
1
1
1
1
1
1
1
1
1
1
1
1
1
1
1
1
1
1
1
1
1
1
1
1
1
1
1
1
1
1
1
1
1
1
1
1
1
1
1
1
1
1
1
1
1
1
1
1
1
1
1
1
1
1
1
1
1
1
1
1
1
1
1
1
1
1
1
1
1
1
1
1
1
1
1
1
1
1
1
1
1
1
1
1
1
1
1
1
1
1
1
1
1
1
1
1
1
1
1
1
1
1
1
1
1
1
1
1
1
1
1
1
1
1
1
1
1
1
1
1
1
1
1
1
1
1
1
1
1
1
1
1
1
1
1
1
1
1
1
1
1
1
1
1
1
1
1
1
1
1
1
1
1
1
1
1
1
1
1
1
1
1
1
1
1
1
1
1
1
1
1
1
1
1
1
1
1
1
1
1
1
1
1
1
1
1
1
1
1
1
1
1
1
1
1
1
1
1
1
1
1
1
1
1
1
1
1
1
1
1
1
1
1
1
1
1
1
1
1
1
1
1
1
1
1
1
1
1
1
1
1
1
1
1
1
1
1
1
1
1
1
1
1
1
1
1
1
1
1
1
1
1
1
1
1
1
1
1
1
1
1
1
1
1
1
1
1
1
1
1
1
1
1
1
1
1
1
1
1
1
1
1
1
1
1
1
1
1
1
1
1
1
1
1
1
1
1
1
1
1
1
1
1
1
1
1
1
1
1
1
1
1
1
1
1
1
1
1
1
1
1
1
1
1
1
1
1
1
1
1
1
1
1
1
1
1
1
1
1
1
1
1
1
1
1
1
1
1
1
1
1
1
1
1
1
1
1
1
1
1
1
1
1
1
1
1
1
1
1
1
1
1
1
1
1
1
1
1
1
1
1
1
1
1
1
1
1
1
1
1
1
1
1
1
1
1
1
1
1
1
1
1
1
1
1
1
1
1
1
1
1
1
1
1
1
1
1
1
1
1
1
1
1
1
1
1
1
1
1
1
1
1
1
1
1
1
1
1
1
1
1
1
1
1
1
1
1
1
1
1
1
1
1
1
1
1
1
1
1
1
1
1
1
1
1
1
1
1
1
1
1
1
1
1
1
1
1
1
1
1
1
1
1
1
1
1
1
1
1
1
1
1
1
1
1
1
1
1
1
1
1
1
1
1
1
1
1
1
1
1
1
1
1
1
1
1
1
1
1
1
1
1
1
1
1
1
1
1
1
1
1
1
1
1
1
1
1
1
1
1
1
1
1
1
1
1
1
1
1
1
1
1
1
1
1
1
1
1
1
1
1
1
1
1
1
1
1
1
1
1
1
1
1
1
1
1
1
1
1
1
1
1
1
1
1
1
1
1
1
1
1
1
1
1
1
1
1
1
1
1
1
1
1
1
1
1
1
1
1
1
1
1
1
1
1
1
1
1
1
1
1
1
1
1
1
1
1
1
1
1
1
1
1
1
1
1
1
1
1
1
1
1
1
1
1
1
1
1
1
1
1
1
1
1
1
1
1
1
1
1
1
1
1
1
1
1
1
1
1
1
1
1
1
1
1
1
1
1
1
1
1
1
1
1
1
1
1
1
1
1
1
1
1
1
1
1
1
1
1
1
1
1
1
1
1
1
1
1
1
1
1
1
1
1
1
1
1
1
1
1
1
1
1
1
1
1
1
1
1
1
1
1
1
1
1
1
1
1
1
1
1
1
1
1
1
1
1
1
1
1
1
1
1
1
1
1
1
1
1
1
1
1
1
1
1
1
1
1
1
1
1
1
1
1
1
1
1
1
1
1
1
1
1
1
1
1
1
1
1
1
1
1
1
1
1
1
1
1
1
1
1
1
1
1
1
1
1
1
1
1
1
1
1
1
1
1
1
1
1
1
1
1
1
1
1
1
1
1
1
1
1
1
1
1
1
1
1
1
1
1
1
1
1
1
1
1
1
1
1
1
1
1
1
1
1
1
1
1
1
1
1
1
1
1
1
1
1
1
1
1
1
1
1
1
1
1
1
1
1
1
1
1
1
1
1
1
1
1
1
1
1
1
1
1
1
1
1
1
1
1
1
1
1
1
1
1
1
1
1
1
1
1
1
1
1
1
1
1
1
1
1
1
1
1
1
1
1
1
1
1
1
1
1
1
1
1
1
1
1
1
1
1
1
1
1
1
1
1
1
1
1
1
1
1
1
1
1
1
1
1
1
1
1
1
1
1
1
1
1
1
1
1
1
1
1
1
1
1
1
1
1
1
1
1
1
1
1
1
1
1
1
1
1
1
1
1
1
1
1
1
1
1
1
1
1
1
1
1
1
1
1
1
1
1
1
1
1
1
1
1
1
1
1
1
1
1
1
1
1
1
1
1
1
1
1
1
1
1
1
1
1
1
1
1
1
1
1
1
1
1
1
1
1
1
1
1
1
1
1
1
1
1
1
1
1
1
1
1
1
1
1
1
1
1
1
1
1
1
1
1
1
1
1
1
1
1
1
1
1
1
1
1
1
1
1
1
1
1
1
1
0.534666
0.540358
0.528948
0.60744
0.699312
0.809719
0.841526
0.492058
0.573936
0.516578
0.713039
0.667739
0.906018
0.787335
0.643831
0.792195
0.714903
0.669792
0.83997
0.69091
0.867859
0.611994
0.612941
0.615511
0.932337
0.932429
0.94939
0.975475
0.673536
0.640226
0.724419
0.933184
0.984235
0.987272
0.987453
0.522497
0.644638
0.543924
0.950407
0.754085
0.892002
0.463549
0.649659
0.454437
0.49599
0.626008
0.897015
0.433502
0.658412
0.653777
0.652778
0.779574
0.969077
0.966184
0.933538
0.978337
0.673523
0.609998
0.609874
0.920602
0.82485
0.886754
0.48557
0.780482
0.819774
0.776206
0.654181
0.529529
0.706111
0.682659
0.56907
0.458727
0.49409
0.718861
0.787335
0.862544
0.897772
0.608989
0.514372
0.590053
0.860464
0.591893
0.794444
0.498753
0.977069
0.978549
0.973889
0.994857
0.9907
0.992029
0.985477
0.860912
0.99052
0.88166
0.984357
0.83568
0.990253
0.89532
0.970612
0.913339
0.960263
0.994267
0.993046
0.990505
0.992261
0.954856
0.818761
0.947934
0.996314
0.990309
0.989647
0.970081
0.998119
0.998979
0.993503
0.994988
0.995659
0.995311
0.995143
0.856528
0.990941
0.94712
0.992845
0.912337
0.996464
0.975441
0.994608
0.992839
0.995345
0.996787
0.997542
0.99165
0.997374
0.997606
0.989551
0.961311
0.996154
0.997176
0.976649
0.93981
0.999026
0.998112
0.997979
0.997205
0.996934
0.996537
0.996528
0.933077
0.994024
0.976857
0.992746
0.944173
0.992679
0.980005
0.995508
0.991635
0.99664
0.992244
0.987883
0.989219
0.995182
0.998269
0.97427
0.927998
0.994062
0.996586
0.977419
0.929953
0.995242
0.997153
0.997177
0.993726
0.998108
0.996199
0.996513
0.961822
0.993451
0.973188
0.984232
0.95952
0.986833
0.982361
0.993686
0.994805
0.996816
0.983281
0.985623
0.992707
0.997501
0.994248
0.980002
0.923253
0.991108
0.99809
0.985848
0.926355
0.99635
0.995212