/*--------------------------------*- C++ -*----------------------------------*\
| =========                 |                                                 |
| \\      /  F ield         | OpenFOAM: The Open Source CFD Toolbox           |
|  \\    /   O peration     | Version:  5.x                                   |
|   \\  /    A nd           | Web:      www.OpenFOAM.org                      |
|    \\/     M anipulation  |                                                 |
\*---------------------------------------------------------------------------*/
FoamFile
{
    version     2.0;
    format      ascii;
    class       surfaceScalarField;
    location    "5.7";
    object      phi;
}
// * * * * * * * * * * * * * * * * * * * * * * * * * * * * * * * * * * * * * //

dimensions      [0 3 -1 0 0 0 0];

internalField   nonuniform List<scalar> 
29271
(
-1.64034e-05
1.52647e-05
-1.98518e-05
2.09905e-05
-9.96871e-06
-5.37138e-06
1.13564e-05
4.13772e-06
-5.90556e-05
-3.20736e-05
7.07925e-06
-1.43126e-05
3.44823e-05
6.38802e-05
-2.71907e-05
-1.04359e-06
9.74609e-06
-7.24196e-06
9.55409e-06
1.61761e-05
-3.78043e-05
3.94691e-06
-2.99857e-07
1.05124e-05
1.59955e-05
7.64936e-06
-5.41965e-05
-1.94181e-05
-4.72253e-06
-3.88871e-07
1.42208e-05
6.45052e-05
-3.91393e-05
-1.8924e-05
7.03773e-06
-1.28151e-05
1.5374e-05
4.84667e-05
-3.3683e-05
-1.05125e-05
8.59846e-06
-1.86859e-06
1.35556e-05
2.391e-05
-2.71106e-05
-1.65796e-05
1.02179e-07
1.34423e-06
3.148e-05
1.07638e-05
-3.16479e-05
-6.42223e-06
3.17191e-05
1.00857e-05
-3.74996e-06
-5.34866e-06
-7.2972e-07
2.89692e-06
3.20109e-06
-5.2037e-05
-8.98444e-06
-2.10096e-07
9.155e-06
-3.78552e-06
5.58621e-05
-5.49932e-05
-1.5027e-05
-2.93165e-06
-3.31636e-06
9.68085e-06
6.65874e-05
-4.67433e-05
-1.42613e-05
2.62658e-06
-3.63109e-06
1.59303e-05
4.60788e-05
-5.96377e-05
-4.62621e-05
1.77101e-05
-1.41863e-05
2.04994e-05
8.18767e-05
-5.84331e-05
-3.67112e-05
-9.77815e-06
2.10561e-05
9.10644e-05
-7.19815e-06
-3.05988e-05
1.26561e-06
8.60092e-07
-3.97009e-07
2.93272e-05
-4.57079e-07
-6.26431e-05
-1.73121e-05
-3.02318e-06
1.22297e-05
-1.5029e-05
8.57776e-05
-6.1205e-05
-9.71628e-06
-5.92832e-06
-1.11637e-05
-1.05459e-05
9.85592e-05
-5.4283e-05
-3.12533e-06
-3.7167e-06
5.42172e-05
-5.6532e-06
1.2561e-05
-7.85278e-06
-3.18342e-06
-4.76055e-07
1.15133e-05
-2.41096e-05
-2.89268e-08
1.11494e-06
1.1487e-05
1.16478e-05
-5.13812e-05
-9.7584e-06
1.45126e-05
-7.45033e-06
3.71156e-05
1.69618e-05
-1.41479e-05
-1.27977e-06
3.07791e-06
1.24251e-05
-1.33778e-05
1.14859e-06
6.53488e-06
5.90006e-06
-4.35572e-06
-1.18341e-06
-3.55972e-07
6.06426e-06
-6.09742e-06
5.3197e-06
-5.4132e-05
-1.0651e-06
8.6144e-06
4.73604e-05
-5.53738e-06
-1.60945e-05
2.50039e-07
-8.30169e-07
4.5999e-06
1.76121e-05
-1.12501e-05
-2.45994e-06
-1.18975e-07
2.28077e-06
9.80588e-06
1.74236e-06
5.07478e-06
9.72145e-06
-6.00478e-05
-9.27961e-06
-1.24715e-06
5.57783e-05
1.24394e-05
4.92225e-06
0.000150715
-5.27374e-05
-1.63911e-05
-6.55014e-05
-2.43202e-05
-1.35364e-05
-7.90122e-06
6.15023e-07
5.24068e-06
2.2552e-06
1.30888e-06
2.92634e-06
-3.49219e-08
-6.44424e-07
2.73978e-05
9.8916e-05
-2.11761e-05
-4.17852e-05
-2.20154e-05
-2.23434e-05
-5.55126e-06
-2.69576e-06
5.4236e-07
1.79486e-06
-7.27077e-07
2.11554e-05
8.72507e-05
-1.87679e-06
-9.23418e-07
1.13549e-07
-2.27537e-07
-1.40031e-06
-3.24607e-07
-7.86611e-07
-9.5595e-06
-1.09241e-05
-3.17231e-05
-5.06911e-05
-6.16447e-06
1.79111e-08
-6.80926e-07
6.17808e-06
-8.84753e-06
-5.56174e-06
2.56826e-06
1.18032e-05
1.02998e-05
-4.14632e-05
-4.54149e-07
-2.88765e-06
4.6732e-06
2.98321e-05
3.78765e-05
2.46075e-05
0.000190511
-6.59182e-05
-5.35554e-05
-6.66495e-05
-5.98488e-05
-3.69473e-06
-1.22505e-06
1.25583e-06
1.56342e-06
1.25755e-05
3.81777e-05
0.000348365
-5.3187e-05
-0.000103755
-8.65781e-05
-9.03236e-05
-6.22527e-06
1.36264e-06
0.000264089
-1.66059e-05
-7.33483e-06
-1.74894e-05
1.69875e-05
2.0215e-05
1.93113e-05
-8.6453e-05
-5.57861e-05
-5.50881e-05
-4.32518e-05
-6.83468e-05
-3.32784e-06
-7.58914e-06
3.47432e-05
3.82954e-05
-4.0818e-05
4.66085e-07
-5.20602e-06
4.53557e-06
4.78195e-05
-6.79714e-06
2.98012e-05
2.38778e-06
0.000212916
2.90428e-07
1.58495e-06
1.41127e-06
2.79348e-06
2.64361e-06
8.27348e-06
1.3877e-05
-9.30617e-05
-7.84457e-05
-3.71674e-05
-4.2697e-05
8.65878e-07
-1.35838e-06
0.000406187
4.95178e-06
-4.23445e-06
2.31514e-06
-5.29843e-06
3.052e-06
2.81299e-07
-0.000123609
-7.06217e-05
-8.28874e-05
-6.16649e-05
-5.46908e-05
-8.73813e-06
-2.781e-06
6.84385e-05
-2.7541e-05
-3.49802e-05
3.05592e-05
3.19209e-05
-9.96704e-06
-1.81484e-07
3.70242e-07
1.21849e-05
-2.5614e-05
1.01545e-06
-2.16079e-06
-8.04638e-07
2.62056e-05
-1.2693e-05
3.41923e-06
-4.21574e-06
1.34546e-05
-2.15749e-06
1.19853e-07
1.75138e-06
3.60178e-07
-8.90062e-06
3.11918e-06
-1.62705e-06
7.41867e-06
8.11455e-07
-2.65493e-06
-5.50868e-05
1.53006e-06
-9.10099e-06
6.45013e-05
-3.53174e-06
-2.1844e-05
-3.12239e-06
4.72988e-06
-1.76828e-07
2.39451e-05
-1.03952e-05
-2.054e-06
-1.30884e-06
1.40971e-06
1.27155e-05
-3.67217e-07
6.16344e-07
6.91491e-07
-5.50038e-05
-4.80254e-06
4.5793e-06
5.39192e-05
1.50584e-05
1.14278e-05
0.000110756
-4.43753e-07
-2.4936e-07
1.14803e-06
8.78694e-07
9.78432e-07
7.80724e-07
3.90337e-06
6.47691e-06
2.65094e-06
1.54552e-05
9.99439e-05
-2.76772e-06
-1.12386e-06
-1.57091e-06
1.3868e-06
-2.17656e-06
1.05598e-05
9.14039e-05
-1.47004e-06
-4.17813e-07
-4.50302e-07
-1.09632e-06
-2.59817e-06
-1.70576e-06
-2.14712e-06
-5.18673e-06
5.84872e-08
3.51163e-07
2.7625e-06
-5.84147e-06
-3.13903e-06
7.20097e-06
1.7832e-06
-1.61802e-05
-3.37447e-05
-6.19814e-06
4.42038e-06
5.21887e-06
4.64838e-05
1.88318e-05
3.81163e-05
0.000142641
4.0551e-07
1.85028e-07
1.07413e-06
6.8536e-07
2.42079e-06
4.56219e-05
0.000334609
-8.76726e-06
1.00463e-05
0.00027515
-1.06939e-05
-5.51087e-06
-5.28384e-06
8.97935e-06
9.2268e-06
3.92297e-06
-1.95892e-05
-1.13252e-06
-1.93414e-06
3.33809e-06
1.05505e-05
-5.95261e-05
-2.06211e-05
1.93725e-05
9.10006e-06
5.74737e-05
-5.79906e-06
9.85999e-07
7.37346e-06
0.000253282
-7.63657e-06
-3.8249e-06
-1.02057e-05
-9.71523e-06
1.01487e-05
4.20477e-06
6.42016e-06
-1.13528e-05
1.34473e-05
0.000432197
-7.5547e-06
-5.25686e-06
-7.79748e-06
1.11839e-05
1.64401e-05
1.14891e-05
-9.34257e-05
-1.91003e-05
1.77835e-05
9.3436e-05
-2.81366e-05
-1.21078e-05
1.54161e-05
2.46424e-05
-1.83889e-05
-2.91025e-06
5.53028e-07
2.81075e-05
-3.11695e-05
3.51665e-06
-1.09919e-05
2.65399e-06
4.94381e-05
-1.85353e-05
-1.44123e-05
1.05862e-05
2.23376e-05
3.70319e-07
-3.1739e-07
5.60914e-07
-6.13305e-07
-4.57812e-06
1.36545e-06
3.87171e-07
2.82348e-06
-4.49962e-06
-5.60679e-06
-6.63539e-05
6.78177e-06
7.33988e-06
6.23387e-05
-3.85993e-06
-3.00006e-05
-1.34846e-05
6.05206e-06
6.64999e-06
3.46431e-05
-1.64426e-05
-9.95501e-07
3.19413e-06
3.35172e-06
1.51286e-05
-4.23642e-06
-1.58326e-06
-9.39233e-06
-6.19274e-05
5.64115e-06
2.60827e-06
6.46536e-05
1.29775e-05
2.08883e-05
0.000108709
-5.55304e-06
-3.72688e-06
-6.41804e-06
-4.11092e-06
-2.66665e-06
-2.7652e-06
-3.81961e-06
-2.75899e-06
3.67514e-06
1.2288e-05
0.000123135
-5.96645e-06
-4.8033e-06
-9.5719e-06
-5.83496e-06
-7.8991e-07
7.88507e-06
0.000113303
-4.61746e-06
-4.92155e-06
-6.3041e-06
-6.74748e-06
-1.20344e-06
-5.44411e-07
-9.80394e-07
-9.8716e-07
-8.4126e-07
5.17621e-07
6.00812e-07
-1.03389e-06
-1.5321e-06
2.63808e-07
2.25219e-06
-9.81608e-06
-5.45533e-05
-1.11115e-05
8.86309e-06
1.67975e-05
4.98202e-05
7.45768e-06
2.20156e-05
0.0001554
-7.59062e-06
-4.93784e-06
-4.33193e-06
-4.48448e-06
1.79827e-06
3.24855e-05
0.000320071
-1.42801e-06
4.41374e-06
0.000273109
-9.94065e-07
-1.12268e-06
1.15377e-06
1.75131e-06
6.29673e-06
1.65366e-06
-3.79695e-06
-1.06612e-06
-1.39449e-06
4.22751e-06
6.02029e-07
-5.40875e-05
-4.62411e-06
1.09435e-05
1.12565e-05
5.08204e-05
-1.43089e-05
-1.36247e-05
-3.73947e-11
0.000305469
-7.00612e-06
-7.28019e-06
-3.0768e-06
-3.5721e-06
1.61977e-06
2.95497e-07
2.47297e-06
-8.50719e-06
1.32219e-05
0.000428888
-7.69846e-06
-4.15077e-06
-5.05433e-06
9.56304e-06
1.4757e-05
1.0038e-05
-9.57987e-05
-6.79227e-06
7.27004e-06
9.12275e-05
-2.71165e-05
-3.71643e-06
4.08157e-06
2.67097e-05
-3.64375e-05
-2.98561e-06
-4.54082e-06
4.39632e-05
-6.65999e-05
7.12296e-06
-1.26979e-05
7.69631e-06
7.77004e-05
-2.75355e-05
-1.20399e-05
1.0383e-05
2.91445e-05
6.47759e-07
-3.21696e-07
3.09963e-07
-6.33746e-07
-1.15892e-06
3.45371e-07
9.74667e-07
-1.79549e-07
-4.32668e-06
-4.61181e-06
-5.81316e-05
6.33482e-06
1.49156e-05
4.58197e-05
-1.51438e-06
-3.36762e-05
-1.10528e-05
1.01993e-05
7.82858e-06
2.82155e-05
-1.16075e-05
-2.59106e-07
3.22789e-06
7.4711e-06
7.89505e-06
-6.7274e-06
-1.01402e-05
-4.51856e-06
-5.86661e-05
1.73505e-05
1.60264e-05
3.9948e-05
6.2615e-06
3.22185e-05
0.000152095
-1.08056e-05
-5.63376e-06
-1.89365e-05
-1.40052e-05
-1.00312e-05
-5.45914e-06
-1.15562e-05
-5.43792e-06
7.63797e-06
2.27008e-05
0.00013607
-7.84567e-06
-1.08498e-05
-8.09665e-06
-1.02201e-05
1.97277e-06
1.17435e-05
0.00012635
-8.39329e-06
-5.56982e-06
-8.93713e-06
-4.64666e-06
1.7709e-06
3.68113e-06
2.9696e-06
-7.85902e-07
-2.7538e-06
2.89176e-06
2.60767e-06
-3.76654e-06
-2.81751e-06
3.01247e-06
3.56261e-06
-2.29897e-06
-4.35751e-05
-1.46129e-05
3.32657e-06
1.08266e-05
4.63339e-05
-6.6434e-06
1.11896e-05
0.000183133
-1.40775e-06
-1.75458e-06
1.02419e-06
2.07773e-06
2.61309e-07
2.24757e-05
0.000313392
1.28081e-06
2.18491e-06
0.000262204
2.1904e-06
2.35174e-06
4.1544e-06
2.02765e-06
5.26719e-06
3.45256e-06
-1.13691e-06
-1.19493e-06
2.83898e-07
-8.31765e-07
4.16052e-06
-5.08066e-05
2.94567e-07
2.25771e-06
3.08411e-06
5.2877e-05
-7.7068e-06
-1.76025e-05
-3.57942e-06
0.000339376
-1.98785e-06
-1.87578e-06
3.91386e-06
1.42851e-06
-1.0621e-06
-2.11964e-06
1.67273e-07
-8.97335e-06
1.01455e-05
0.000422797
-5.33633e-06
-3.21387e-06
-3.74367e-06
6.92338e-06
8.55971e-06
6.60358e-06
-9.09202e-05
-3.37687e-06
6.86841e-06
8.06402e-05
-2.06e-05
2.14895e-06
3.68465e-06
1.46583e-05
-5.09857e-05
-1.19301e-06
-6.46481e-06
5.50651e-05
-8.61524e-05
7.49832e-06
-1.06588e-05
7.80874e-06
9.16497e-05
-2.98618e-05
-7.50309e-06
7.38097e-06
2.99782e-05
6.32614e-07
-4.08055e-08
-7.86089e-09
-5.79904e-07
6.3546e-07
-5.60005e-07
1.13696e-06
-1.15428e-06
-2.89753e-07
1.99176e-06
-2.41581e-05
-2.45107e-07
1.46459e-05
8.05538e-06
4.74896e-07
-1.95536e-05
-2.07661e-06
4.08237e-06
9.45863e-06
7.61436e-06
-4.25539e-06
-6.97185e-08
1.30992e-06
6.27375e-06
5.70662e-07
-3.82922e-06
-4.62095e-06
1.67712e-06
-2.51119e-05
2.07487e-06
8.45305e-06
1.75278e-05
6.9447e-06
4.93666e-05
0.000186658
-2.16098e-05
-1.5318e-05
-2.22799e-05
-1.39783e-05
-9.68109e-06
-5.21872e-06
-3.09361e-06
3.05189e-07
9.3847e-06
3.37264e-05
0.000147753
-1.26651e-05
-1.50854e-05
-9.71639e-06
-1.03824e-05
4.90536e-06
2.0506e-05
0.000124732
-1.29867e-05
-4.4038e-06
-9.76046e-06
-3.5747e-06
4.4022e-06
5.52151e-06
6.39266e-06
-5.51009e-06
-3.26909e-06
1.38397e-06
4.5182e-06
7.78236e-06
-1.3166e-07
1.26169e-08
7.5785e-08
2.99022e-08
-2.80126e-06
1.41609e-06
-1.42555e-06
2.80854e-06
2.36903e-06
-4.90325e-05
-1.04368e-05
-1.39083e-06
9.60705e-06
4.8884e-05
-7.43934e-06
1.04917e-05
0.000219331
2.96616e-07
1.08766e-06
3.68518e-06
5.04659e-06
-8.79885e-07
2.46707e-05
0.000315888
2.7649e-06
4.55471e-06
0.000246453
5.04245e-06
4.26866e-06
4.61459e-06
4.40696e-06
6.72772e-06
2.99733e-06
-8.35346e-06
-2.36391e-06
1.46322e-06
2.03264e-06
9.98642e-06
-5.36021e-08
-2.31045e-07
1.48069e-08
2.19785e-08
2.4063e-07
-5.78923e-05
5.10232e-06
-3.08072e-06
-2.39957e-07
6.2185e-05
-6.07439e-06
-1.63677e-05
-4.02756e-06
0.000362419
2.95318e-06
9.99814e-07
6.77702e-06
3.0957e-06
-1.48269e-06
-3.34579e-06
-1.15331e-06
-4.55788e-06
5.3272e-06
0.000426432
-3.92579e-06
-1.64196e-06
-3.25955e-06
4.15762e-06
4.81351e-06
3.7547e-06
-7.66141e-05
-9.02249e-07
6.08027e-06
7.14329e-05
-1.24376e-05
1.41582e-06
2.06502e-07
1.07035e-05
-6.01051e-05
6.47e-07
-7.37084e-06
6.28027e-05
-9.56174e-05
6.92671e-06
-8.63647e-06
5.05563e-06
9.75988e-05
-3.01134e-05
-5.00743e-06
4.86413e-06
3.02621e-05
4.4898e-07
4.66536e-08
-6.53894e-07
1.25395e-07
1.68685e-06
-5.5554e-07
1.41405e-06
-2.42704e-06
-2.4155e-07
3.28497e-07
6.27573e-07
-3.71065e-07
2.10777e-06
-2.45123e-06
6.65764e-07
-5.85131e-07
2.15726e-07
-6.47932e-08
1.17381e-06
-1.40537e-06
1.46046e-06
9.51433e-08
3.94571e-07
5.46836e-07
-2.05991e-06
-4.371e-07
-2.88774e-06
3.89776e-06
-1.23444e-05
-5.02047e-06
7.6706e-06
8.68422e-06
3.3898e-06
3.92214e-05
0.000173025
-1.27596e-05
-7.74035e-06
-5.42235e-06
-3.98532e-06
-1.29914e-06
-4.23786e-07
7.34667e-07
1.91769e-06
1.8739e-06
2.94033e-05
0.00014159
-6.38665e-06
-8.31868e-06
-3.24745e-06
-3.77142e-06
2.74623e-06
2.00449e-05
0.000107071
-5.01855e-06
-2.56142e-06
-1.74172e-06
-2.09014e-06
3.21751e-06
2.24246e-06
2.6956e-06
-8.62504e-06
-1.59859e-06
4.90097e-06
3.19757e-06
4.87132e-06
-2.63742e-07
-2.27073e-06
-4.03479e-06
4.026e-07
4.04167e-06
2.12499e-06
-3.59915e-06
2.78256e-06
-4.29946e-06
5.11538e-06
5.99497e-06
-5.01212e-05
-8.30613e-06
-5.72496e-06
6.4291e-06
5.17283e-05
-7.12949e-06
1.00063e-05
0.000241442
2.05866e-06
2.50593e-06
4.33809e-06
5.33165e-06
-1.60071e-06
2.04877e-05
0.000319275
3.05441e-06
5.04626e-06
0.00022933
4.0786e-06
3.35693e-06
4.09018e-06
4.42098e-06
6.95762e-06
4.56203e-06
-1.24631e-05
-3.26453e-06
3.5979e-06
2.53416e-06
1.26499e-05
-2.44719e-06
-4.30999e-06
-4.30724e-06
2.58131e-06
2.64708e-06
5.83604e-06
-6.70659e-05
6.66955e-06
-5.62246e-06
-1.70662e-06
7.1157e-05
-3.43157e-06
-1.54817e-05
-4.0512e-06
0.000381191
4.6563e-06
2.20903e-06
7.81393e-06
3.19165e-06
-1.78464e-06
-3.82324e-06
-1.49524e-06
-4.31612e-06
3.18101e-06
0.000433054
-3.7027e-06
-1.18876e-06
-2.77028e-06
2.11711e-06
3.07973e-06
1.98375e-06
-7.21857e-05
-6.32589e-07
4.13772e-06
6.94107e-05
-9.43929e-06
-5.93334e-06
-2.59986e-06
4.07888e-06
1.38438e-05
-2.62683e-06
-2.29791e-06
-8.50752e-08
5.00404e-06
-6.54003e-05
2.51474e-06
-7.80558e-06
6.664e-05
-9.93363e-05
6.53785e-06
-7.26869e-06
4.71301e-06
9.85351e-05
-3.06517e-05
-2.15035e-06
3.25356e-06
2.95537e-05
-5.525e-07
4.84159e-07
-4.91168e-07
5.56362e-07
2.83305e-06
-9.42599e-07
1.81603e-06
-3.71684e-06
-7.94744e-07
3.57037e-07
2.59759e-06
-3.33883e-07
1.49383e-06
-3.31983e-06
-2.28268e-07
2.03314e-06
3.64852e-07
-4.89945e-08
5.60896e-09
-2.12634e-06
2.18698e-06
4.96278e-07
1.34205e-07
-8.22838e-07
-1.84648e-06
-1.48148e-07
-2.33725e-06
-2.56977e-07
-7.81415e-06
-3.02025e-06
4.55694e-06
8.87169e-06
-2.80697e-06
2.40683e-05
0.000158547
-3.15461e-06
-2.82188e-06
-3.31603e-06
-2.29282e-06
1.27131e-06
6.71091e-07
1.24171e-06
1.61778e-06
-9.2346e-06
2.05602e-05
0.000135122
-2.14296e-06
-2.11602e-06
-1.59668e-06
-1.80915e-06
2.77314e-07
7.91374e-06
8.9186e-05
-7.73062e-08
-4.64489e-07
1.05117e-06
-2.12869e-07
-1.97561e-08
3.68471e-07
-1.85503e-07
-3.34483e-06
-2.65234e-07
1.44797e-06
1.19584e-06
1.24357e-06
-1.97973e-06
-1.29469e-06
-1.07648e-06
-5.50293e-07
3.00943e-06
1.89176e-06
-6.66693e-06
4.07948e-06
-5.46211e-06
8.05022e-06
7.03485e-06
-5.34931e-05
-6.07551e-06
-6.24007e-06
4.64441e-06
5.41295e-05
-8.37569e-06
1.50047e-06
0.00025725
2.51943e-06
2.81156e-06
4.60313e-06
5.20118e-06
-3.97151e-06
1.19448e-05
0.000323486
2.16258e-06
3.77587e-06
0.000208468
2.82979e-06
2.2316e-06
2.31968e-06
3.19503e-06
5.58413e-06
2.70503e-06
-1.27534e-05
-2.02575e-06
2.30007e-06
2.69322e-06
1.19485e-05
-9.43661e-06
-2.6127e-06
-2.01671e-06
1.07801e-07
9.26356e-07
1.30319e-05
-7.55791e-05
7.23221e-06
-6.77217e-06
-2.38758e-06
7.93822e-05
-1.87555e-06
-1.49139e-05
-4.20114e-06
0.00039123
5.219e-06
2.73697e-06
7.87225e-06
3.24853e-06
-2.455e-06
-4.08813e-06
-1.95763e-06
-3.28286e-06
1.85234e-06
0.000433592
-2.90139e-06
-5.94569e-07
-2.68619e-06
8.65624e-07
2.15974e-06
1.0802e-06
-7.18789e-05
-5.4527e-07
2.3659e-06
7.05513e-05
-1.63267e-05
-2.08181e-06
-1.46663e-06
2.05754e-06
1.77873e-05
-8.08214e-06
4.89843e-07
-1.99163e-06
1.82566e-06
7.75967e-06
-6.75746e-05
2.77499e-06
-7.20972e-06
6.78085e-05
-9.84722e-05
5.59644e-06
-6.18611e-06
3.38186e-06
9.75323e-05
-2.73195e-05
-3.45069e-07
2.96032e-06
2.47077e-05
-6.43926e-07
3.26255e-07
-3.25498e-07
6.43169e-07
4.90503e-06
1.20987e-06
-8.9555e-07
-5.2201e-06
6.21316e-07
-1.74391e-06
2.92424e-06
1.56612e-06
-1.69168e-06
-1.67608e-06
9.00513e-07
2.03152e-06
-1.07577e-06
8.03486e-07
-1.63801e-06
-1.02174e-06
7.73698e-07
-6.63033e-07
1.03655e-06
-6.8643e-07
1.43878e-07
-6.04661e-07
7.30095e-07
-3.05081e-06
-9.84714e-06
-4.63896e-08
1.86703e-06
1.03472e-05
-6.55903e-06
1.60778e-05
0.000145681
-1.10371e-06
-9.572e-07
-3.16424e-07
1.03124e-07
1.46615e-06
7.32054e-07
1.58209e-06
1.84128e-06
-8.26664e-06
1.43105e-05
0.00012558
-1.16216e-06
-1.30018e-06
-2.49943e-07
-3.49177e-07
7.45113e-07
2.57203e-06
8.12251e-05
1.36362e-06
6.35653e-07
2.01942e-06
8.17893e-07
6.2763e-07
-7.54518e-06
-1.54191e-06
-3.46807e-07
3.61346e-07
-6.93411e-07
-1.63624e-07
1.58761e-06
-2.74889e-07
5.31979e-06
-4.80987e-06
-1.24455e-06
1.01413e-06
-9.69456e-06
4.91574e-06
-6.61397e-06
1.13924e-05
6.74998e-06
-5.49078e-05
-4.20035e-06
-6.01621e-06
2.90988e-06
5.54645e-05
-9.16641e-06
-3.39997e-06
0.000269808
3.10247e-06
2.80729e-06
5.11028e-06
5.06563e-06
-5.38192e-06
7.35483e-06
0.000326657
1.92627e-06
3.07252e-06
0.000198887
1.33215e-06
-3.22312e-06
-4.18407e-06
2.30928e-06
4.86529e-06
6.73692e-07
-1.1567e-05
-8.5289e-07
8.10119e-07
1.95735e-06
1.15787e-05
-1.63746e-05
4.50678e-07
3.40794e-06
-4.19699e-07
-3.91777e-06
1.68534e-05
-8.30961e-05
7.10642e-06
-6.69242e-06
-2.73296e-06
8.59852e-05
-5.70163e-07
-1.56373e-05
-3.72007e-06
0.000396099
5.2697e-06
2.80613e-06
7.57996e-06
3.00765e-06
-2.19577e-06
-3.63102e-06
-1.7479e-06
-2.93485e-06
1.35343e-06
0.000428749
-2.85049e-06
-1.1275e-07
-2.30091e-06
5.14341e-07
1.87164e-06
1.02022e-06
-7.37969e-05
-7.75401e-07
1.41225e-06
7.32977e-05
-1.69049e-05
-2.9245e-06
-1.09494e-06
2.09259e-05
-6.77589e-05
2.27708e-06
-6.12395e-06
6.78864e-05
-9.67723e-05
5.13632e-06
-5.55843e-06
3.13894e-06
9.54089e-05
-2.25851e-05
-8.31903e-07
2.60504e-06
2.08126e-05
-6.31545e-07
1.76316e-07
-2.20923e-07
6.76152e-07
5.12628e-06
2.83974e-07
-7.85016e-07
-4.62575e-06
1.37642e-06
-3.78041e-07
2.01437e-07
5.59701e-07
-2.41781e-06
6.58288e-07
3.19738e-07
3.4756e-07
-1.13525e-06
1.19446e-06
-7.99794e-07
7.32837e-08
-1.50713e-06
2.8799e-07
7.73539e-07
-1.06595e-06
2.085e-06
-5.73452e-07
9.67383e-07
-3.28678e-06
-1.08997e-05
3.15268e-07
8.15621e-07
1.20882e-05
-8.66179e-06
1.05122e-05
0.000136376
1.60687e-07
-1.45206e-07
2.9984e-07
1.66971e-07
1.72512e-06
1.153e-06
1.94777e-06
2.14572e-06
-8.02601e-06
9.70058e-06
0.000114281
-1.94529e-07
-3.4522e-07
8.58184e-07
6.446e-07
-6.61264e-06
-4.85614e-07
8.63558e-05
9.77497e-07
3.72542e-08
7.53453e-07
3.72047e-07
-3.42385e-06
-4.36235e-06
-4.12549e-07
-8.58194e-06
-1.74645e-06
-3.32431e-06
7.04026e-06
-1.30708e-05
5.52907e-06
-6.88225e-06
1.4424e-05
6.4883e-06
-5.61525e-05
-2.67389e-06
-5.88313e-06
1.39819e-06
5.6823e-05
-9.36056e-06
-6.80257e-06
0.000279683
3.54503e-06
2.83346e-06
5.42066e-06
5.00198e-06
-2.44818e-06
4.62891e-06
0.000324817
-4.55194e-06
1.52161e-06
0.000202776
-4.12023e-06
-4.76764e-07
-1.83612e-06
-8.28464e-07
3.72193e-06
-2.53237e-07
-2.51821e-05
3.12832e-06
-7.047e-06
-2.28843e-06
2.68373e-05
-8.88531e-05
6.84072e-06
-6.62784e-06
-3.02129e-06
9.10629e-05
5.98641e-07
-1.46843e-05
-3.67968e-06
0.000398185
5.0048e-06
2.63689e-06
7.26752e-06
2.8801e-06
-2.53045e-06
-3.62101e-06
-2.1631e-06
-2.24661e-06
9.43439e-07
0.000419658
-2.25033e-06
8.58909e-07
-1.72382e-06
7.61386e-07
1.44023e-06
1.25223e-06
-7.63634e-05
1.63588e-07
1.42791e-06
7.40469e-05
-2.17265e-05
5.3623e-06
-2.30292e-06
1.86714e-05
-6.81768e-05
2.03701e-06
-6.20981e-06
6.86691e-05
-9.4996e-05
4.47633e-06
-4.52869e-06
2.73241e-06
9.32594e-05
-1.95576e-05
-1.76028e-06
2.17466e-06
1.91433e-05
-6.62135e-07
1.32717e-07
-4.48848e-08
5.74303e-07
4.03178e-06
6.6444e-08
-5.39707e-07
-3.55852e-06
8.28245e-07
-1.67127e-07
-1.44092e-06
6.88775e-07
-1.92221e-06
2.01324e-06
3.41124e-07
-6.47784e-07
-6.9431e-07
8.89212e-07
-9.59977e-07
1.07174e-06
-2.34623e-06
-5.76949e-08
4.40833e-07
6.95245e-08
2.53083e-06
-6.37264e-07
9.40905e-07
-3.20036e-06
-1.39115e-05
2.1025e-07
-8.72228e-08
1.60479e-05
-9.38275e-06
6.33882e-06
0.000129847
2.86599e-07
2.5378e-07
5.887e-08
5.87812e-07
2.06897e-06
1.74572e-06
1.86483e-06
2.70704e-06
-5.66257e-06
5.92568e-06
0.000100845
7.07079e-07
8.70594e-07
8.60474e-07
1.3519e-06
-2.97526e-06
-2.38582e-06
8.64769e-05
-5.0869e-08
1.38667e-07
5.1958e-07
1.35403e-07
7.121e-07
-2.18047e-06
3.03018e-07
-7.45171e-06
-1.23689e-06
-3.56394e-06
9.27793e-06
-1.55112e-05
5.60063e-06
-6.70311e-06
1.66137e-05
6.13068e-06
-5.77271e-05
-1.24626e-06
-5.62243e-06
1.24966e-07
5.83402e-05
-7.92951e-06
-8.37542e-06
0.000286883
3.25941e-06
2.56578e-06
5.18934e-06
4.4288e-06
2.06355e-06
4.07685e-06
0.000316672
1.95265e-06
6.30362e-07
0.000196144
-4.05841e-07
2.29509e-06
2.0432e-07
-6.29847e-07
2.65345e-06
-3.9029e-07
-2.95532e-05
4.00096e-06
1.38376e-06
-6.27085e-06
3.2392e-05
-9.29294e-05
6.44847e-06
-6.36316e-06
-2.82736e-06
9.41947e-05
1.4767e-06
-1.30347e-05
-3.61876e-06
0.000398744
4.40761e-06
2.46443e-06
6.66901e-06
2.71136e-06
-2.56424e-06
-3.77481e-06
-2.19436e-06
-1.66041e-06
3.71264e-07
0.000410666
-1.98635e-06
1.56591e-06
-1.29354e-06
1.08785e-06
6.32686e-07
1.31634e-06
-7.59282e-05
1.00401e-06
1.24518e-06
7.2649e-05
-1.78083e-05
5.34556e-06
-3.4461e-06
1.59169e-05
-6.89602e-05
2.15161e-06
-5.66182e-06
6.88529e-05
-9.22378e-05
4.33546e-06
-3.56009e-06
1.66709e-06
9.01666e-05
-1.88301e-05
-1.51667e-06
1.85083e-06
1.84963e-05
-4.70403e-07
1.56852e-07
-3.76589e-08
3.5121e-07
3.19764e-06
9.56443e-08
-4.67886e-07
-2.82561e-06
5.77991e-08
9.61744e-08
-2.63267e-06
2.53235e-07
-9.36173e-07
3.16164e-06
2.08027e-07
-1.57363e-06
-4.745e-07
3.74763e-07
-4.86816e-07
1.95215e-06
-2.85368e-06
5.93546e-07
-9.94485e-08
-1.07724e-06
3.38329e-06
5.35358e-08
1.08572e-06
-3.24614e-06
-1.83228e-05
4.99221e-07
-6.01459e-07
2.05854e-05
-7.93782e-06
3.23013e-06
0.000125427
4.93724e-08
3.83747e-07
-1.31263e-07
5.2503e-07
1.69658e-06
2.08971e-06
1.39778e-06
3.11666e-06
-2.36122e-06
3.3282e-06
8.8024e-05
6.11922e-07
1.13333e-06
7.72379e-07
1.39868e-06
-1.98168e-06
-4.64515e-06
8.95912e-05
9.25399e-07
4.48045e-07
1.57893e-06
7.44511e-07
-2.46414e-07
-1.86251e-06
-4.36682e-07
-1.16682e-05
2.66656e-06
-6.8339e-06
1.38548e-05
-1.75347e-05
5.62991e-06
-6.46244e-06
1.83673e-05
5.75306e-06
-5.92433e-05
-5.88304e-07
-5.24016e-06
-5.09216e-07
5.98279e-05
-5.58753e-06
-1.06647e-05
0.000292629
2.90225e-06
2.07842e-06
4.67015e-06
4.08593e-06
4.63416e-06
2.22336e-06
0.000307556
1.97839e-06
1.59398e-07
0.00019048
6.76903e-07
1.86994e-06
8.88545e-07
-9.83255e-07
1.88582e-06
-8.22949e-07
-3.35817e-05
4.95885e-06
3.86484e-06
-6.80961e-06
3.3546e-05
-9.53856e-05
5.78208e-06
-6.14935e-06
-2.41459e-06
9.64128e-05
1.75461e-06
-1.16871e-05
-3.86003e-06
0.000396642
3.79116e-06
2.2758e-06
6.05945e-06
2.40801e-06
-2.3517e-06
-3.69732e-06
-1.50011e-06
-1.11242e-06
-8.86322e-08
0.00040048
-1.50519e-06
1.79812e-06
-1.01921e-06
1.03107e-06
4.50808e-07
1.16797e-06
-7.44143e-05
8.41175e-07
1.17684e-06
7.14433e-05
-1.34181e-05
4.9193e-06
-2.85623e-06
1.13602e-05
-6.80207e-05
2.78772e-06
-5.36247e-06
6.6734e-05
-8.85444e-05
3.84966e-06
-3.05259e-06
1.50944e-06
8.61492e-05
-1.86971e-05
-1.95963e-06
1.37166e-06
1.92806e-05
-2.64538e-07
2.14019e-08
1.96834e-08
2.23736e-07
2.3965e-06
4.64506e-07
-9.17995e-07
-1.94302e-06
3.24975e-08
2.45406e-07
-3.62489e-06
-1.96984e-07
-5.41089e-07
4.08506e-06
2.56699e-07
-2.381e-06
-1.61779e-07
-6.01766e-08
-3.60095e-07
2.70635e-06
-4.07823e-06
1.19293e-06
-9.62953e-07
-1.84308e-06
5.09556e-06
5.95778e-07
1.57811e-06
-3.41722e-06
-2.27245e-05
8.54864e-07
-1.09764e-06
2.48064e-05
-6.42494e-06
1.73318e-06
0.000121717
-3.08955e-07
1.41511e-07
-5.81635e-07
2.30383e-07
1.4871e-06
2.55827e-06
1.43378e-06
3.441e-06
-1.01221e-06
2.72276e-06
7.75855e-05
1.99593e-07
7.75298e-07
4.00863e-07
9.27234e-07
-1.86541e-06
-8.74078e-06
9.49028e-05
2.0681e-06
1.96819e-06
2.35287e-06
2.39214e-06
-1.26536e-06
-1.85587e-06
-1.37768e-06
-1.59168e-05
4.64826e-06
-8.18185e-06
1.75866e-05
-1.90413e-05
5.33335e-06
-5.89447e-06
1.96024e-05
5.44028e-06
-6.05458e-05
-2.76983e-07
-4.85623e-06
-5.99831e-07
6.08386e-05
-3.15698e-06
-1.23051e-05
0.000297452
2.54084e-06
1.7137e-06
4.30689e-06
3.81034e-06
8.41988e-06
2.07531e-06
0.000296626
1.78767e-06
-5.63136e-07
0.000186118
9.70193e-07
1.74819e-06
9.16805e-07
-1.08714e-06
1.35987e-06
-1.09173e-06
-3.29695e-05
5.47106e-06
3.86665e-06
-6.77954e-06
3.2199e-05
-9.75074e-05
5.23864e-06
-5.56975e-06
-2.18327e-06
9.82268e-05
1.795e-06
-1.0722e-05
-3.64971e-06
0.00039244
3.37194e-06
1.98819e-06
5.76311e-06
2.27071e-06
-1.87151e-06
-3.63471e-06
-1.61958e-06
-7.80593e-07
4.67133e-08
0.000389968
-1.08879e-06
2.00851e-06
-7.95516e-07
1.09433e-06
1.5961e-07
1.221e-06
-7.2911e-05
1.10496e-06
8.89643e-07
6.95726e-05
-9.62072e-06
3.74358e-06
-1.78689e-06
7.66426e-06
-6.5499e-05
2.92628e-06
-5.68082e-06
6.46024e-05
-8.4815e-05
3.50199e-06
-3.32179e-06
1.33641e-06
8.33451e-05
-1.96439e-05
-1.46183e-06
1.38802e-06
1.9718e-05
-3.58344e-07
5.65136e-08
-2.3372e-07
5.3555e-07
1.54728e-06
1.15757e-06
-1.53307e-06
-1.17178e-06
1.73501e-07
-1.18751e-07
-4.4664e-06
-6.75102e-08
-3.39372e-07
4.81853e-06
4.34626e-07
-3.1543e-06
-2.95632e-08
-5.14896e-07
-3.9941e-07
3.66354e-06
-6.12693e-06
1.64445e-06
-2.08487e-06
-1.92744e-06
7.21825e-06
1.27654e-06
1.75866e-06
-3.26668e-06
-2.6726e-05
7.08886e-07
-1.24194e-06
2.8767e-05
-5.15928e-06
5.84467e-07
0.000119771
-7.82039e-07
-3.37322e-07
-1.00386e-06
-2.15816e-07
1.609e-06
2.55324e-06
1.36484e-06
3.33221e-06
-2.05494e-06
2.6253e-06
7.16978e-05
-1.3267e-07
2.1557e-07
-8.95847e-09
8.4103e-08
-2.09912e-06
-1.32713e-05
9.99161e-05
2.7095e-06
3.57348e-06
3.41805e-06
4.30615e-06
-1.79861e-06
-2.0445e-06
-1.86188e-06
-1.89013e-05
5.50076e-06
-8.06435e-06
1.93655e-05
-2.00272e-05
5.08311e-06
-5.44697e-06
2.03911e-05
5.09741e-06
-6.13194e-05
6.08054e-08
-4.57568e-06
-8.03965e-07
6.15408e-05
-1.44383e-06
-1.43064e-05
0.000301484
2.40346e-06
1.69244e-06
4.32246e-06
3.88414e-06
1.16238e-05
1.87037e-06
0.000284313
1.65868e-06
-8.83767e-07
0.000180911
1.02877e-06
1.6294e-06
1.04114e-06
-1.2486e-06
1.13738e-06
-8.03267e-07
-3.05938e-05
5.44688e-06
3.46038e-06
-5.05593e-06
2.84011e-05
-9.90395e-05
4.76339e-06
-5.13105e-06
-2.02177e-06
9.95501e-05
1.87881e-06
-1.05861e-05
-3.59778e-06
0.000387192
2.97913e-06
1.8127e-06
5.39659e-06
2.01344e-06
-1.91066e-06
-3.60229e-06
-1.56384e-06
-3.6098e-07
-4.81695e-08
0.000378191
-1.04519e-06
2.16664e-06
-7.23593e-07
1.3071e-06
4.08689e-07
1.35669e-06
-7.05295e-05
1.27939e-06
8.18065e-07
6.71872e-05
-5.93319e-06
2.01524e-06
-7.04921e-07
4.62293e-06
-6.38732e-05
2.85305e-06
-5.77951e-06
6.32025e-05
-8.20153e-05
3.72657e-06
-3.15374e-06
1.43435e-06
7.996e-05
-2.00152e-05
-1.52408e-06
1.33005e-06
2.02092e-05
-6.67304e-07
2.50672e-07
-3.79668e-07
7.96301e-07
8.42827e-07
1.80091e-06
-2.13434e-06
-5.09394e-07
3.29442e-07
-6.45542e-07
-5.13619e-06
1.90911e-07
-4.38714e-07
5.70009e-06
3.34563e-07
-4.2519e-06
-1.34434e-07
-6.81344e-07
-1.7715e-07
4.91027e-06
-8.32556e-06
2.25198e-06
-2.92742e-06
-2.42723e-06
9.49482e-06
1.93341e-06
2.17206e-06
-3.46817e-06
-3.06441e-05
1.13313e-06
-1.78665e-06
3.25937e-05
-4.59011e-06
9.01893e-08
0.000120407
-9.79942e-07
-8.5523e-07
-1.17507e-06
-7.46025e-07
1.16094e-06
2.50547e-06
6.19861e-07
3.33435e-06
-3.81208e-06
3.10913e-06
6.9899e-05
-5.76777e-07
-6.19155e-07
-5.26679e-07
-3.65727e-07
-2.22605e-06
-1.38418e-05
0.000101316
3.38334e-06
4.61967e-06
4.08293e-06
4.92329e-06
-2.05772e-06
-2.13589e-06
-1.95964e-06
-1.97997e-05
5.28514e-06
-7.40975e-06
1.96981e-05
-2.07332e-05
4.90774e-06
-5.16869e-06
2.09941e-05
4.95982e-06
-6.20548e-05
6.24366e-07
-4.62761e-06
-1.16797e-06
6.22662e-05
-3.12069e-06
-1.59026e-05
0.000307158
2.66068e-06
1.95833e-06
4.59612e-06
4.22423e-06
1.15923e-05
2.25315e-06
0.000270457
1.84936e-06
-9.72929e-07
0.000173176
1.47245e-06
2.07979e-06
1.52741e-06
-8.39234e-07
1.0473e-06
-6.78635e-07
-2.59092e-05
4.53281e-06
2.52738e-06
-3.23014e-06
2.39285e-05
-0.000100272
4.31728e-06
-4.84876e-06
-1.90279e-06
0.000100517
2.1895e-06
-1.11448e-05
-3.67218e-06
0.000381357
2.7816e-06
1.70346e-06
5.26066e-06
2.01604e-06
-1.8683e-06
-3.61981e-06
-1.52362e-06
-3.34276e-07
2.64632e-07
0.000364743
-7.91222e-07
2.22536e-06
-4.98687e-07
1.39518e-06
7.70765e-07
1.52447e-06
-6.81522e-05
1.22803e-06
8.30708e-07
6.47862e-05
-3.68973e-06
1.16934e-06
-7.33803e-07
3.25364e-06
-6.24217e-05
2.95006e-06
-6.06981e-06
6.18687e-05
-7.83671e-05
3.79132e-06
-3.27943e-06
1.59849e-06
7.65214e-05
-2.03006e-05
-1.4003e-06
1.25925e-06
2.04416e-05
-9.39652e-07
4.21236e-07
-5.68569e-07
1.08698e-06
1.41299e-07
2.07826e-06
-2.44856e-06
2.28998e-07
2.2952e-07
-1.02129e-06
-6.25581e-06
4.12845e-07
-3.37279e-07
6.97201e-06
1.5436e-07
-5.34888e-06
-3.28024e-07
-4.33022e-07
1.90014e-07
5.76556e-06
-1.10868e-05
2.56346e-06
-3.61416e-06
-2.94885e-06
1.31245e-05
1.96184e-06
2.62533e-06
-4.02437e-06
-3.43033e-05
2.18297e-06
-2.5266e-06
3.6046e-05
-3.98404e-06
-2.52298e-07
0.000123948
-1.14087e-06
-1.24408e-06
-1.34077e-06
-1.07647e-06
2.81033e-07
2.37969e-06
-3.82955e-07
3.22019e-06
-4.31368e-06
3.8049e-06
6.99821e-05
-1.00527e-06
-9.57551e-07
-9.33368e-07
-6.62161e-07
-2.07419e-06
-1.36453e-05
0.000100326
3.72483e-06
4.92805e-06
4.27534e-06
4.87354e-06
-1.746e-06
-2.07349e-06
-1.58606e-06
-1.94851e-05
4.435e-06
-6.05137e-06
1.90273e-05
-2.12102e-05
4.66306e-06
-4.80784e-06
2.1355e-05
4.64937e-06
-6.28097e-05
1.24807e-06
-4.40502e-06
-1.66409e-06
6.29814e-05
-4.04428e-06
-1.6776e-05
0.000314146
2.60956e-06
2.09298e-06
4.47466e-06
4.4032e-06
1.01097e-05
3.68122e-06
0.000256426
1.81522e-06
-1.08659e-06
0.000164599
1.68971e-06
1.89835e-06
1.91891e-06
-9.42745e-07
7.35369e-07
-9.8677e-07
-2.24748e-05
3.46829e-06
1.80572e-06
-2.41569e-06
2.14317e-05
-0.000101002
3.95423e-06
-4.62058e-06
-2.03563e-06
0.000101159
2.54531e-06
-1.20838e-05
-3.80651e-06
0.000376185
2.79307e-06
1.88366e-06
5.26372e-06
2.19035e-06
-2.10021e-06
-3.78481e-06
-1.95966e-06
5.32539e-08
8.78505e-07
0.000350438
-8.82888e-07
2.39615e-06
-8.25397e-07
1.51769e-06
1.28174e-06