/*--------------------------------*- C++ -*----------------------------------*\
| =========                 |                                                 |
| \\      /  F ield         | OpenFOAM: The Open Source CFD Toolbox           |
|  \\    /   O peration     | Version:  5.x                                   |
|   \\  /    A nd           | Web:      www.OpenFOAM.org                      |
|    \\/     M anipulation  |                                                 |
\*---------------------------------------------------------------------------*/
FoamFile
{
    version     2.0;
    format      ascii;
    class       volVectorField;
    location    "2.7";
    object      Us;
}
// * * * * * * * * * * * * * * * * * * * * * * * * * * * * * * * * * * * * * //

dimensions      [0 1 -1 0 0 0 0];

internalField   nonuniform List<vector> 
10571
(
(-0.0433729 0.0209315 -0.162098)
(0.0456611 0.019131 -0.169015)
(0.109831 0.0786521 -0.0044432)
(0.107901 0.159644 -0.0550135)
(-0.0315677 0.0449693 -0.0868883)
(0.0746353 0.154155 0.132814)
(0.0292353 0.17221 0.127631)
(0.0756686 0.206589 0.0773244)
(-0.233364 -0.0277889 0.0384001)
(-0.0738402 -0.0419207 -0.0988003)
(-0.0122761 -0.0865853 0.0712335)
(0.0415645 -0.1476 0.110315)
(-0.145015 -0.343194 0.0728103)
(-0.146537 -0.208295 0.146611)
(-0.132464 -0.0280171 0.0799753)
(-0.0946447 0.0722996 -0.0736081)
(-0.112074 -0.20329 0.0352149)
(-0.171319 -0.361265 0.0971507)
(-0.0571291 -0.28046 -0.0180937)
(0.0120317 -0.251605 0.049127)
(-0.0850476 0.188237 -0.103287)
(-0.0704028 -0.0987907 -0.0717214)
(-0.0551275 -0.101705 -0.0929004)
(0.00482498 -0.0484749 -0.147668)
(-0.0324104 -0.00177673 -0.113429)
(0.0342007 -0.0339454 -0.271419)
(0.134764 -0.0783194 -0.0900306)
(-0.171429 0.0951217 0.0804555)
(0.00449199 0.0868139 -0.0471669)
(-0.0818342 -0.180734 0.103843)
(-0.024738 -0.0385756 0.191569)
(-0.0898162 0.170278 0.176255)
(-0.0559781 0.00669557 0.0655843)
(-0.0517772 -0.0638374 -0.155207)
(-0.0129176 -0.0012218 0.0186689)
(-0.0383081 -0.219064 0.127267)
(-0.0889289 -0.185158 0.201791)
(-0.197021 0.00671831 0.182473)
(-0.123239 -0.160481 0.0346787)
(-0.0430178 -0.158414 -0.136931)
(0.00348938 -0.00458934 -0.0222875)
(-0.0215055 -0.0562233 0.108316)
(-0.145907 -0.0250945 0.0281464)
(-0.203274 -0.0598301 -0.0403662)
(-0.0189683 -0.0589184 -0.166851)
(0.015936 -0.0144158 -0.143878)
(-0.00528052 -0.0143022 -0.227378)
(-0.0312682 0.0117242 -0.276746)
(0.172562 0.00297599 -0.161532)
(0.0126344 -0.0163146 -0.202959)
(0.0898583 -0.103755 0.125324)
(-0.148651 -0.00253221 0.0873654)
(0.0184397 -0.00389801 -0.121892)
(-0.00646337 -0.129174 0.190251)
(-0.0489102 -0.0540924 0.265857)
(-0.0213215 0.196333 0.267047)
(-0.00888506 0.00297803 0.177097)
(-0.013804 0.0115795 -0.214491)
(-0.0330659 -0.0110199 0.0322971)
(-0.197371 -0.152391 0.118741)
(-0.139933 -0.0784634 0.286993)
(-0.101966 0.065003 0.26131)
(-0.0666445 -0.143726 0.168719)
(-0.000624172 0.0294449 -0.186224)
(0.0248215 0.0929797 -0.00178033)
(-0.0554323 0.0212437 0.204382)
(-0.0470628 0.0821126 0.0942608)
(-0.063584 -0.0298155 -0.00401687)
(-0.0334193 0.08664 -0.317872)
(0.00923608 0.0082225 -0.0860029)
(-0.0133488 0.0548547 -0.13313)
(-0.005397 0.0326749 -0.219136)
(0.168565 0.00231283 -0.110764)
(-0.00983632 0.0123005 -0.127389)
(0.120445 -0.148516 0.306118)
(-0.0857531 -0.0686298 0.0312348)
(-0.0188131 0.0133455 -0.143895)
(0.0284643 -0.0582082 0.166365)
(-0.0452174 -0.0491031 0.326044)
(-0.00158736 0.157508 0.308358)
(0.026849 0.0400035 0.224103)
(-0.0112342 -0.00621656 -0.136193)
(-0.00623502 6.71775e-05 0.0436175)
(-0.207957 -0.0441888 0.130326)
(-0.118694 -0.0204019 0.369743)
(-0.0215446 0.106477 0.343131)
(-0.0253703 -0.0756117 0.267249)
(-0.0077743 0.0578571 -0.120002)
(0.0299247 0.132415 0.0843138)
(-0.0843956 0.153121 0.11163)
(-0.051632 0.193329 0.035456)
(-0.0105148 0.0775756 0.017002)
(-0.0442809 0.0706853 -0.169642)
(0.00496058 0.0896104 0.0232531)
(-0.0443591 0.230013 -0.0161348)
(-0.106192 0.108732 -0.103698)
(0.140237 0.0066857 -0.0473528)
(-0.0235085 0.0195291 -0.020799)
(0.109387 -0.176753 0.41308)
(-0.0195001 -0.0969331 0.0864191)
(-0.0315194 -0.023501 -0.0556047)
(-0.0743466 -0.0358764 0.200477)
(-0.0464067 0.0132884 0.316488)
(0.0464598 0.144691 0.409936)
(0.0916632 0.0906226 0.346483)
(0.00270226 -0.0129043 -0.0469654)
(-0.0158494 -0.0170772 0.0616508)
(-0.212809 0.0470822 0.206815)
(-0.15055 0.0769994 0.420512)
(0.0122832 0.15807 0.433693)
(-0.00166819 0.0330793 0.408144)
(0.0221839 -0.0032723 -0.0631494)
(-0.0431491 0.151097 0.1787)
(-0.18192 0.207297 0.192448)
(-0.0928461 0.196402 0.144358)
(-0.0537425 0.206809 0.157757)
(-0.00888925 0.0137864 -0.0392379)
(0.0129597 0.0914402 0.121094)
(-0.115423 0.309277 0.0379153)
(-0.162809 0.128528 -0.0545796)
(0.0688098 -0.00878385 0.116333)
(-0.0389483 0.0206771 0.131014)
(0 0 0)
(0.023142 -0.133675 0.179861)
(0.0158917 -0.10982 0.0869045)
(-0.151971 0.0107356 0.286032)
(-0.121516 -0.00114159 0.219035)
(-0.0154742 0.00257063 0.226314)
(0.0987323 -0.0368309 0.188031)
(0.104118 -0.0222631 0.0672839)
(-0.0149256 0.0100518 -0.00664397)
(-0.0189602 0.0376485 0.202691)
(-0.195663 0.0584253 0.265406)
(-0.174158 0.101971 0.286821)
(-0.036028 0.122467 0.277244)
(0.0436303 0.06687 0.263819)
(0.0788234 -0.0136172 0.0283646)
(-0.00635133 -0.00123503 -0.00283291)
(-0.0669931 0.18784 0.272215)
(-0.213955 0.188352 0.267715)
(-0.0874341 0.203671 0.247265)
(-0.0252544 0.238436 0.289164)
(0.0382809 0.0793251 0.0883194)
(0 0 0)
(-0.0915467 0.327119 0.0394962)
(-0.0642559 0.0556388 -0.474008)
(0.0363827 -0.0136002 0.236829)
(-0.0498645 -0.0227575 0.294177)
(-0.110656 -0.0994241 0.462186)
(0.0332669 -0.0106345 0.140917)
(-0.0189673 -0.0341016 0.14896)
(-0.0703534 -0.0452248 0.352006)
(-0.13245 0.0173383 0.268965)
(-0.0679013 -0.0581152 0.172646)
(0.0644437 -0.0569808 0.134334)
(0.114756 -0.0577414 -0.0706731)
(-0.0269363 0.0151335 -0.0272431)
(-0.0788498 0.0401971 0.308204)
(-0.0730685 -0.00141942 0.266307)
(-0.174472 0.0535081 0.255836)
(-0.0933912 0.0420019 0.214002)
(0.0525122 0.018031 0.183464)
(0.106616 -0.0138468 0.0388418)
(-0.0237963 -0.00313316 -0.0130264)
(-0.0594824 0.0477576 0.0795263)
(-0.173525 0.142328 0.270777)
(-0.0858684 0.0701213 -0.0302535)
(0.0153276 0.156827 0.314436)
(-2.0375e-14 1.52788e-15 1.72142e-13)
(0 0 0)
(0 0 0)
(0 0 0)
(0 0 0)
(-0.0393977 0.0142791 0.111349)
(-0.133351 0.0877497 -0.245817)
(-0.0960043 0.127724 -0.281338)
(-0.0531447 0.102248 -0.183343)
(0.0597138 0.11763 0.181053)
(0 0 0)
(0 0 0)
(-0.0383403 0.16295 -0.118934)
(-0.00884282 0.161259 -0.106691)
(-0.10773 -0.0814325 -0.47992)
(0 0 0)
(0 0 0)
(0 0 0)
(0 0 0)
(0 0 0)
(-0.0165721 -0.0549986 -0.357923)
(0.0191668 -0.069639 -0.427877)
(0 0 0)
(0 0 0)
(0 0 0)
(0 0 0)
(0 0 0)
(0 0 0)
(0 0 0)
(0 0 0)
(0 0 0)
(0 0 0)
(-0.12226 0.00479166 -0.312998)
(0 0 0)
(-0.120305 0.130164 -0.250637)
(-0.0920888 0.0986052 -0.134119)
(0.0598828 0.105306 0.142321)
(0 0 0)
(0 0 0)
(0 0 0)
(-0.0406903 0.0564554 -0.258261)
(-0.0869646 -0.124485 -0.477107)
(0 0 0)
(0 0 0)
(0 0 0)
(0 0 0)
(0 0 0)
(0.00438643 -0.0758868 -0.292935)
(0 0 0)
(0 0 0)
(0 0 0)
(0 0 0)
(0 0 0)
(0 0 0)
(0 0 0)
(0 0 0)
(0 0 0)
(0 0 0)
(-0.0397553 -0.0403439 -0.163488)
(0 0 0)
(0 0 0)
(0 0 0)
(0.0491245 0.0735046 -0.218235)
(0 0 0)
(0 0 0)
(0 0 0)
(-7.84986e-15 3.33555e-14 1.09832e-13)
(3.72212e-14 2.01577e-14 1.27395e-13)
(0 0 0)
(0 0 0)
(0 0 0)
(0 0 0)
(0 0 0)
(-0.0692894 -0.0572182 -0.409751)
(0 0 0)
(0 0 0)
(0 0 0)
(0 0 0)
(0 0 0)
(0 0 0)
(0 0 0)
(0 0 0)
(0 0 0)
(0 0 0)
(0 0 0)
(0 0 0)
(0 0 0)
(0 0 0)
(0 0 0)
(0 0 0)
(0 0 0)
(0 0 0)
(0 0 0)
(0 0 0)
(0 0 0)
(0 0 0)
(0.0327493 -0.061557 -0.201777)
(0 0 0)
(0 0 0)
(0 0 0)
(0 0 0)
(0 0 0)
(0 0 0)
(0 0 0)
(0 0 0)
(0 0 0)
(0 0 0)
(0 0 0)
(0 0 0)
(0 0 0)
(0 0 0)
(0 0 0)
(0 0 0)
(0 0 0)
(0 0 0)
(0 0 0)
(0 0 0)
(0 0 0)
(0 0 0)
(0 0 0)
(0 0 0)
(0 0 0)
(0 0 0)
(0 0 0)
(0 0 0)
(0 0 0)
(0 0 0)
(0 0 0)
(0 0 0)
(0 0 0)
(0 0 0)
(0 0 0)
(0 0 0)
(0 0 0)
(0 0 0)
(0 0 0)
(0 0 0)
(0 0 0)
(0 0 0)
(0 0 0)
(0 0 0)
(0 0 0)
(0 0 0)
(0 0 0)
(0 0 0)
(0 0 0)
(0 0 0)
(0 0 0)
(0 0 0)
(0 0 0)
(0 0 0)
(0 0 0)
(0 0 0)
(0 0 0)
(0 0 0)
(0 0 0)
(0 0 0)
(0 0 0)
(0 0 0)
(0 0 0)
(0 0 0)
(0 0 0)
(0 0 0)
(0 0 0)
(0 0 0)
(0 0 0)
(0 0 0)
(0 0 0)
(0 0 0)
(0 0 0)
(0 0 0)
(0 0 0)
(0 0 0)
(0 0 0)
(0 0 0)
(0 0 0)
(0 0 0)
(0 0 0)
(0 0 0)
(0 0 0)
(0 0 0)
(0 0 0)
(0 0 0)
(0 0 0)
(0 0 0)
(0 0 0)
(0 0 0)
(0 0 0)
(0 0 0)
(0 0 0)
(0 0 0)
(0 0 0)
(0 0 0)
(0 0 0)
(0 0 0)
(0 0 0)
(0 0 0)
(0 0 0)
(0 0 0)
(0 0 0)
(0 0 0)
(0 0 0)
(0 0 0)
(0 0 0)
(0 0 0)
(0 0 0)
(0 0 0)
(0 0 0)
(0 0 0)
(0 0 0)
(0 0 0)
(0 0 0)
(0 0 0)
(0 0 0)
(0 0 0)
(0 0 0)
(0 0 0)
(0 0 0)
(0 0 0)
(0 0 0)
(0 0 0)
(0 0 0)
(0 0 0)
(0 0 0)
(0 0 0)
(0 0 0)
(0 0 0)
(0 0 0)
(0 0 0)
(0 0 0)
(0 0 0)
(0 0 0)
(0 0 0)
(0 0 0)
(0 0 0)
(0 0 0)
(0 0 0)
(0 0 0)
(0 0 0)
(0 0 0)
(0 0 0)
(0 0 0)
(0 0 0)
(0 0 0)
(0 0 0)
(0 0 0)
(0 0 0)
(0 0 0)
(0 0 0)
(0 0 0)
(0 0 0)
(0 0 0)
(0 0 0)
(0 0 0)
(0 0 0)
(0 0 0)
(0 0 0)
(0 0 0)
(0 0 0)
(0 0 0)
(0 0 0)
(0 0 0)
(0 0 0)
(0 0 0)
(0 0 0)
(0 0 0)
(0 0 0)
(0 0 0)
(0 0 0)
(0 0 0)
(0 0 0)
(0 0 0)
(0 0 0)
(0 0 0)
(0 0 0)
(0 0 0)
(0 0 0)
(0 0 0)
(0 0 0)
(0 0 0)
(0 0 0)
(0 0 0)
(0 0 0)
(0 0 0)
(0 0 0)
(0 0 0)
(0 0 0)
(0 0 0)
(0 0 0)
(0 0 0)
(0 0 0)
(0 0 0)
(0 0 0)
(0 0 0)
(0 0 0)
(0 0 0)
(0 0 0)
(0 0 0)
(0 0 0)
(0 0 0)
(0 0 0)
(0 0 0)
(0 0 0)
(0 0 0)
(0 0 0)
(0 0 0)
(0 0 0)
(0 0 0)
(0 0 0)
(0 0 0)
(0 0 0)
(0 0 0)
(0 0 0)
(0 0 0)
(0 0 0)
(0 0 0)
(0 0 0)
(0 0 0)
(0 0 0)
(0 0 0)
(0 0 0)
(0 0 0)
(0 0 0)
(0 0 0)
(0 0 0)
(0 0 0)
(0 0 0)
(0 0 0)
(0 0 0)
(0 0 0)
(0 0 0)
(0 0 0)
(0 0 0)
(0 0 0)
(0 0 0)
(0 0 0)
(0 0 0)
(0 0 0)
(0 0 0)
(0 0 0)
(0 0 0)
(0 0 0)
(0 0 0)
(0 0 0)
(0 0 0)
(0 0 0)
(0 0 0)
(0 0 0)
(0 0 0)
(0 0 0)
(0 0 0)
(0 0 0)
(0 0 0)
(0 0 0)
(0 0 0)
(0 0 0)
(0 0 0)
(0 0 0)
(0 0 0)
(0 0 0)
(0 0 0)
(0 0 0)
(0 0 0)
(0 0 0)
(0 0 0)
(0 0 0)
(0 0 0)
(0 0 0)
(0 0 0)
(0 0 0)
(0 0 0)
(0 0 0)
(0 0 0)
(0 0 0)
(0 0 0)
(0 0 0)
(0 0 0)
(0 0 0)
(0 0 0)
(0 0 0)
(0 0 0)
(0 0 0)
(0 0 0)
(0 0 0)
(0 0 0)
(0 0 0)
(0 0 0)
(0 0 0)
(0 0 0)
(0 0 0)
(0 0 0)
(0 0 0)
(0 0 0)
(0 0 0)
(0 0 0)
(0 0 0)
(0 0 0)
(0 0 0)
(0 0 0)
(0 0 0)
(0 0 0)
(0 0 0)
(0 0 0)
(0 0 0)
(0 0 0)
(0 0 0)
(0 0 0)
(0 0 0)
(0 0 0)
(0 0 0)
(0 0 0)
(0 0 0)
(0 0 0)
(0 0 0)
(0 0 0)
(0 0 0)
(0 0 0)
(0 0 0)
(0 0 0)
(0 0 0)
(0 0 0)
(0 0 0)
(0 0 0)
(0 0 0)
(0 0 0)
(0 0 0)
(0 0 0)
(0 0 0)
(0 0 0)
(0 0 0)
(0 0 0)
(0 0 0)
(0 0 0)
(0 0 0)
(0 0 0)
(0 0 0)
(0 0 0)
(0 0 0)
(0 0 0)
(0 0 0)
(0 0 0)
(0 0 0)
(0 0 0)
(0 0 0)
(0 0 0)
(0 0 0)
(0 0 0)
(0 0 0)
(0 0 0)
(0 0 0)
(0 0 0)
(0 0 0)
(0 0 0)
(0 0 0)
(0 0 0)
(0 0 0)
(0 0 0)
(0 0 0)
(0 0 0)
(0 0 0)
(0 0 0)
(0 0 0)
(0 0 0)
(0 0 0)
(0 0 0)
(0 0 0)
(0 0 0)
(0 0 0)
(0 0 0)
(0 0 0)
(0 0 0)
(0 0 0)
(0 0 0)
(0 0 0)
(0 0 0)
(0 0 0)
(0 0 0)
(0 0 0)
(0 0 0)
(0 0 0)
(0 0 0)
(0 0 0)
(0 0 0)
(0 0 0)
(0 0 0)
(0 0 0)
(0 0 0)
(0 0 0)
(0 0 0)
(0 0 0)
(0 0 0)
(0 0 0)
(0 0 0)
(0 0 0)
(0 0 0)
(0 0 0)
(0 0 0)
(0 0 0)
(0 0 0)
(0 0 0)
(0 0 0)
(0 0 0)
(0 0 0)
(0 0 0)
(0 0 0)
(0 0 0)
(0 0 0)
(0 0 0)
(0 0 0)
(0 0 0)
(0 0 0)
(0 0 0)
(0 0 0)
(0 0 0)
(0 0 0)
(0 0 0)
(0 0 0)
(0 0 0)
(0 0 0)
(0 0 0)
(0 0 0)
(0 0 0)
(0 0 0)
(0 0 0)
(0 0 0)
(0 0 0)
(0 0 0)
(0 0 0)
(0 0 0)
(0 0 0)
(0 0 0)
(0 0 0)
(0 0 0)
(0 0 0)
(0 0 0)
(0 0 0)
(0 0 0)
(0 0 0)
(0 0 0)
(0 0 0)
(0 0 0)
(0 0 0)
(0 0 0)
(0 0 0)
(0 0 0)
(0 0 0)
(0 0 0)
(0 0 0)
(0 0 0)
(0 0 0)
(0 0 0)
(0 0 0)
(0 0 0)
(0 0 0)
(0 0 0)
(0 0 0)
(0 0 0)
(0 0 0)
(0 0 0)
(0 0 0)
(0 0 0)
(0 0 0)
(0 0 0)
(0 0 0)
(0 0 0)
(0 0 0)
(0 0 0)
(0 0 0)
(0 0 0)
(0 0 0)
(0 0 0)
(0 0 0)
(0 0 0)
(0 0 0)
(0 0 0)
(0 0 0)
(0 0 0)
(0 0 0)
(0 0 0)
(0 0 0)
(0 0 0)
(0 0 0)
(0 0 0)
(0 0 0)
(0 0 0)
(0 0 0)
(0 0 0)
(0 0 0)
(0 0 0)
(0 0 0)
(0 0 0)
(0 0 0)
(0 0 0)
(0 0 0)
(0 0 0)
(0 0 0)
(0 0 0)
(0 0 0)
(0 0 0)
(0 0 0)
(0 0 0)
(0 0 0)
(0 0 0)
(0 0 0)
(0 0 0)
(0 0 0)
(0 0 0)
(0 0 0)
(0 0 0)
(0 0 0)
(0 0 0)
(0 0 0)
(0 0 0)
(0 0 0)
(0 0 0)
(0 0 0)
(0 0 0)
(0 0 0)
(0 0 0)
(0 0 0)
(0 0 0)
(0 0 0)
(0 0 0)
(0 0 0)
(0 0 0)
(0 0 0)
(0 0 0)
(0 0 0)
(0 0 0)
(0 0 0)
(0 0 0)
(0 0 0)
(0 0 0)
(0 0 0)
(0 0 0)
(0 0 0)
(0 0 0)
(0 0 0)
(0 0 0)
(0 0 0)
(0 0 0)
(0 0 0)
(0 0 0)
(0 0 0)
(0 0 0)
(0 0 0)
(0 0 0)
(0 0 0)
(0 0 0)
(0 0 0)
(0 0 0)
(0 0 0)
(0 0 0)
(0 0 0)
(0 0 0)
(0 0 0)
(0 0 0)
(0 0 0)
(0 0 0)
(0 0 0)
(0 0 0)
(0 0 0)
(0 0 0)
(0 0 0)
(0 0 0)
(0 0 0)
(0 0 0)
(0 0 0)
(0 0 0)
(0 0 0)
(0 0 0)
(0 0 0)
(0 0 0)
(0 0 0)
(0 0 0)
(0 0 0)
(0 0 0)
(0 0 0)
(0 0 0)
(0 0 0)
(0 0 0)
(0 0 0)
(0 0 0)
(0 0 0)
(0 0 0)
(0 0 0)
(0 0 0)
(0 0 0)
(0 0 0)
(0 0 0)
(0 0 0)
(0 0 0)
(0 0 0)
(0 0 0)
(0 0 0)
(0 0 0)
(0 0 0)
(0 0 0)
(0 0 0)
(0 0 0)
(0 0 0)
(0 0 0)
(0 0 0)
(0 0 0)
(0 0 0)
(0 0 0)
(0 0 0)
(0 0 0)
(0 0 0)
(0 0 0)
(0 0 0)
(0 0 0)
(0 0 0)
(0 0 0)
(0 0 0)
(0 0 0)
(0 0 0)
(0 0 0)
(0 0 0)
(0 0 0)
(0 0 0)
(0 0 0)
(0 0 0)
(0 0 0)
(0 0 0)
(0 0 0)
(0 0 0)
(0 0 0)
(0 0 0)
(0 0 0)
(0 0 0)
(0 0 0)
(0 0 0)
(0 0 0)
(0 0 0)
(0 0 0)
(0 0 0)
(0 0 0)
(0 0 0)
(0 0 0)
(0 0 0)
(0 0 0)
(0 0 0)
(0 0 0)
(0 0 0)
(0 0 0)
(0 0 0)
(0 0 0)
(0 0 0)
(0 0 0)
(0 0 0)
(0 0 0)
(0 0 0)
(0 0 0)
(0 0 0)
(0 0 0)
(0 0 0)
(0 0 0)
(0 0 0)
(0 0 0)
(0 0 0)
(0 0 0)
(0 0 0)
(0 0 0)
(0 0 0)
(0 0 0)
(0 0 0)
(0 0 0)
(0 0 0)
(0 0 0)
(0 0 0)
(0 0 0)
(0 0 0)
(0 0 0)
(0 0 0)
(0 0 0)
(0 0 0)
(0 0 0)
(0 0 0)
(0 0 0)
(0 0 0)
(0 0 0)
(0 0 0)
(0 0 0)
(0 0 0)
(0 0 0)
(0 0 0)
(0 0 0)
(0 0 0)
(0 0 0)
(0 0 0)
(0 0 0)
(0 0 0)
(0 0 0)
(0 0 0)
(0 0 0)
(0 0 0)
(0 0 0)
(0 0 0)
(0 0 0)
(0 0 0)
(0 0 0)
(0 0 0)
(0 0 0)
(0 0 0)
(0 0 0)
(0 0 0)
(0 0 0)
(0 0 0)
(0 0 0)
(0 0 0)
(0 0 0)
(0 0 0)
(0 0 0)
(0 0 0)
(0 0 0)
(0 0 0)
(0 0 0)
(0 0 0)
(0 0 0)
(0 0 0)
(0 0 0)
(0 0 0)
(0 0 0)
(0 0 0)
(0 0 0)
(0 0 0)
(0 0 0)
(0 0 0)
(0 0 0)
(0 0 0)
(0 0 0)
(0 0 0)
(0 0 0)
(0 0 0)
(0 0 0)
(0 0 0)
(0 0 0)
(0 0 0)
(0 0 0)
(0 0 0)
(0 0 0)
(0 0 0)
(0 0 0)
(0 0 0)
(0 0 0)
(0 0 0)
(0 0 0)
(0 0 0)
(0 0 0)
(0 0 0)
(0 0 0)
(0 0 0)
(0 0 0)
(0 0 0)
(0 0 0)
(0 0 0)
(0 0 0)
(0 0 0)
(0 0 0)
(0 0 0)
(0 0 0)
(0 0 0)
(0 0 0)
(0 0 0)
(0 0 0)
(0 0 0)
(0 0 0)
(0 0 0)
(0 0 0)
(0 0 0)
(0 0 0)
(0 0 0)
(0 0 0)
(0 0 0)
(0 0 0)
(0 0 0)
(0 0 0)
(0 0 0)
(0 0 0)
(0 0 0)
(0 0 0)
(0 0 0)
(0 0 0)
(0 0 0)
(0 0 0)
(0 0 0)
(0 0 0)
(0 0 0)
(0 0 0)
(0 0 0)
(0 0 0)
(0 0 0)
(0 0 0)
(0 0 0)
(0 0 0)
(0 0 0)
(0 0 0)
(0 0 0)
(0 0 0)
(0 0 0)
(0 0 0)
(0 0 0)
(0 0 0)
(0 0 0)
(0 0 0)
(0 0 0)
(0 0 0)
(0 0 0)
(0 0 0)
(0 0 0)
(0 0 0)
(0 0 0)
(0 0 0)
(0 0 0)
(0 0 0)
(0 0 0)
(0 0 0)
(0 0 0)
(0 0 0)
(0 0 0)
(0 0 0)
(0 0 0)
(0 0 0)
(0 0 0)
(0 0 0)
(0 0 0)
(0 0 0)
(0 0 0)
(0 0 0)
(0 0 0)
(0 0 0)
(0 0 0)
(0 0 0)
(0 0 0)
(0 0 0)
(0 0 0)
(0 0 0)
(0 0 0)
(0 0 0)
(0 0 0)
(0 0 0)
(0 0 0)
(0 0 0)
(0 0 0)
(0 0 0)
(0 0 0)
(0 0 0)
(0 0 0)
(0 0 0)
(0 0 0)
(0 0 0)
(0 0 0)
(0 0 0)
(0 0 0)
(0 0 0)
(0 0 0)
(0 0 0)
(0 0 0)
(0 0 0)
(0 0 0)
(0 0 0)
(0 0 0)
(0 0 0)
(0 0 0)
(0 0 0)
(0 0 0)
(0 0 0)
(0 0 0)
(0 0 0)
(0 0 0)
(0 0 0)
(0 0 0)
(0 0 0)
(0 0 0)
(0 0 0)
(0 0 0)
(0 0 0)
(0 0 0)
(0 0 0)
(0 0 0)
(0 0 0)
(0 0 0)
(0 0 0)
(0 0 0)
(0 0 0)
(0 0 0)
(0 0 0)
(0 0 0)
(0 0 0)
(0 0 0)
(0 0 0)
(0 0 0)
(0 0 0)
(0 0 0)
(0 0 0)
(0 0 0)
(0 0 0)
(0 0 0)
(0 0 0)
(0 0 0)
(0 0 0)
(0 0 0)
(0 0 0)
(0 0 0)
(0 0 0)
(0 0 0)
(0 0 0)
(0 0 0)
(0 0 0)
(0 0 0)
(0 0 0)
(0 0 0)
(0 0 0)
(0 0 0)
(0 0 0)
(0 0 0)
(0 0 0)
(0 0 0)
(0 0 0)
(0 0 0)
(0 0 0)
(0 0 0)
(0 0 0)
(0 0 0)
(0 0 0)
(0 0 0)
(0 0 0)
(0 0 0)
(0 0 0)
(0 0 0)
(0 0 0)
(0 0 0)
(0 0 0)
(0 0 0)
(0 0 0)
(0 0 0)
(0 0 0)
(0 0 0)
(0 0 0)
(0 0 0)
(0 0 0)
(0 0 0)
(0 0 0)
(0 0 0)
(0 0 0)
(0 0 0)
(0 0 0)
(0 0 0)
(0 0 0)
(0 0 0)
(0 0 0)
(0 0 0)
(0 0 0)
(0 0 0)
(0 0 0)
(0 0 0)
(0 0 0)
(0 0 0)
(0 0 0)
(0 0 0)
(0 0 0)
(0 0 0)
(0 0 0)
(0 0 0)
(0 0 0)
(0 0 0)
(0 0 0)
(0 0 0)
(0 0 0)
(0 0 0)
(0 0 0)
(0 0 0)
(0 0 0)
(0 0 0)
(0 0 0)
(0 0 0)
(0 0 0)
(0 0 0)
(0 0 0)
(0 0 0)
(0 0 0)
(0 0 0)
(0 0 0)
(0 0 0)
(0 0 0)
(0 0 0)
(0 0 0)
(0 0 0)
(0 0 0)
(0 0 0)
(0 0 0)
(0 0 0)
(0 0 0)
(0 0 0)
(0 0 0)
(0 0 0)
(0 0 0)
(0 0 0)
(0 0 0)
(0 0 0)
(0 0 0)
(0 0 0)
(0 0 0)
(0 0 0)
(0 0 0)
(0 0 0)
(0 0 0)
(0 0 0)
(0 0 0)
(0 0 0)
(0 0 0)
(0 0 0)
(0 0 0)
(0 0 0)
(0 0 0)
(0 0 0)
(0 0 0)
(0 0 0)
(0 0 0)
(0 0 0)
(0 0 0)
(0 0 0)
(0 0 0)
(0 0 0)
(0 0 0)
(0 0 0)
(0 0 0)
(0 0 0)
(0 0 0)
(0 0 0)
(0 0 0)
(0 0 0)
(0 0 0)
(0 0 0)
(0 0 0)
(0 0 0)
(0 0 0)
(0 0 0)
(0 0 0)
(0 0 0)
(0 0 0)
(0 0 0)
(0 0 0)
(0 0 0)
(0 0 0)
(0 0 0)
(0 0 0)
(0 0 0)
(0 0 0)
(0 0 0)
(0 0 0)
(0 0 0)
(0 0 0)
(0 0 0)
(0 0 0)
(0 0 0)
(0 0 0)
(0 0 0)
(0 0 0)
(0 0 0)
(0 0 0)
(0 0 0)
(0 0 0)
(0 0 0)
(0 0 0)
(0 0 0)
(0 0 0)
(0 0 0)
(0 0 0)
(0 0 0)
(0 0 0)
(0 0 0)
(0 0 0)
(0 0 0)
(0 0 0)
(0 0 0)
(0 0 0)
(0 0 0)
(0 0 0)
(0 0 0)
(0 0 0)
(0 0 0)
(0 0 0)
(0 0 0)
(0 0 0)
(0 0 0)
(0 0 0)
(0 0 0)
(0 0 0)
(0 0 0)
(0 0 0)
(0 0 0)
(0 0 0)
(0 0 0)
(0 0 0)
(0 0 0)
(0 0 0)
(0 0 0)
(0 0 0)
(0 0 0)
(0 0 0)
(0 0 0)
(0 0 0)
(0 0 0)
(0 0 0)
(0 0 0)
(0 0 0)
(0 0 0)
(0 0 0)
(0 0 0)
(0 0 0)
(0 0 0)
(0 0 0)
(0 0 0)
(0 0 0)
(0 0 0)
(0 0 0)
(0 0 0)
(0 0 0)
(0 0 0)
(0 0 0)
(0 0 0)
(0 0 0)
(0 0 0)
(0 0 0)
(0 0 0)
(0 0 0)
(0 0 0)
(0 0 0)
(0 0 0)
(0 0 0)
(0 0 0)
(0 0 0)
(0 0 0)
(0 0 0)
(0 0 0)
(0 0 0)
(0 0 0)
(0 0 0)
(0 0 0)
(0 0 0)
(0 0 0)
(0 0 0)
(0 0 0)
(0 0 0)
(0 0 0)
(0 0 0)
(0 0 0)
(0 0 0)
(0 0 0)
(0 0 0)
(0 0 0)
(0 0 0)
(0 0 0)
(0 0 0)
(0 0 0)
(0 0 0)
(0 0 0)
(0 0 0)
(0 0 0)
(0 0 0)
(0 0 0)
(0 0 0)
(0 0 0)
(0 0 0)
(0 0 0)
(0 0 0)
(0 0 0)
(0 0 0)
(0 0 0)
(0 0 0)
(0 0 0)
(0 0 0)
(0 0 0)
(0 0 0)
(0 0 0)
(0 0 0)
(0 0 0)
(0 0 0)
(0 0 0)
(0 0 0)
(0 0 0)
(0 0 0)
(0 0 0)
(0 0 0)
(0 0 0)
(0 0 0)
(0 0 0)
(0 0 0)
(0 0 0)
(0 0 0)
(0 0 0)
(0 0 0)
(0 0 0)
(0 0 0)
(0 0 0)
(0 0 0)
(0 0 0)
(0 0 0)
(0 0 0)
(0 0 0)
(0 0 0)
(0 0 0)
(0 0 0)
(0 0 0)
(0 0 0)
(0 0 0)
(0 0 0)
(0 0 0)
(0 0 0)
(0 0 0)
(0 0 0)
(0 0 0)
(0 0 0)
(0 0 0)
(0 0 0)
(0 0 0)
(0 0 0)
(0 0 0)
(0 0 0)
(0 0 0)
(0 0 0)
(0 0 0)
(0 0 0)
(0 0 0)
(0 0 0)
(0 0 0)
(0 0 0)
(0 0 0)
(0 0 0)
(0 0 0)
(0 0 0)
(0 0 0)
(0 0 0)
(0 0 0)
(0 0 0)
(0 0 0)
(0 0 0)
(0 0 0)
(0 0 0)
(0 0 0)
(0 0 0)
(0 0 0)
(0 0 0)
(0 0 0)
(0 0 0)
(0 0 0)
(0 0 0)
(0 0 0)
(0 0 0)
(0 0 0)
(0 0 0)
(0 0 0)
(0 0 0)
(0 0 0)
(0 0 0)
(0 0 0)
(0 0 0)
(0 0 0)
(0 0 0)
(0 0 0)
(0 0 0)
(0 0 0)
(0 0 0)
(0 0 0)
(0 0 0)
(0 0 0)
(0 0 0)
(0 0 0)
(0 0 0)
(0 0 0)
(0 0 0)
(0 0 0)
(0 0 0)
(0 0 0)
(0 0 0)
(0 0 0)
(0 0 0)
(0 0 0)
(0 0 0)
(0 0 0)
(0 0 0)
(0 0 0)
(0 0 0)
(0 0 0)
(0 0 0)
(0 0 0)
(0 0 0)
(0 0 0)
(0 0 0)
(0 0 0)
(0 0 0)
(0 0 0)
(0 0 0)
(0 0 0)
(0 0 0)
(0 0 0)
(0 0 0)
(0 0 0)
(0 0 0)
(0 0 0)
(0 0 0)
(0 0 0)
(0 0 0)
(0 0 0)
(0 0 0)
(0 0 0)
(0 0 0)
(0 0 0)
(0 0 0)
(0 0 0)
(0 0 0)
(0 0 0)
(0 0 0)
(0 0 0)
(0 0 0)
(0 0 0)
(0 0 0)
(0 0 0)
(0 0 0)
(0 0 0)
(0 0 0)
(0 0 0)
(0 0 0)
(0 0 0)
(0 0 0)
(0 0 0)
(0 0 0)
(0 0 0)
(0 0 0)
(0 0 0)
(0 0 0)
(0 0 0)
(0 0 0)
(0 0 0)
(0 0 0)
(0 0 0)
(0 0 0)
(0 0 0)
(0 0 0)
(0 0 0)
(0 0 0)
(0 0 0)
(0 0 0)
(0 0 0)
(0 0 0)
(0 0 0)
(0 0 0)
(0 0 0)
(0 0 0)
(0 0 0)
(0 0 0)
(0 0 0)
(0 0 0)
(0 0 0)
(0 0 0)
(0 0 0)
(0 0 0)
(0 0 0)
(0 0 0)
(0 0 0)
(0 0 0)
(0 0 0)
(0 0 0)
(0 0 0)
(0 0 0)
(0 0 0)
(0 0 0)
(0 0 0)
(0 0 0)
(0 0 0)
(0 0 0)
(0 0 0)
(0 0 0)
(0 0 0)
(0 0 0)
(0 0 0)
(0 0 0)
(0 0 0)
(0 0 0)
(0 0 0)
(0 0 0)
(0 0 0)
(0 0 0)
(0 0 0)
(0 0 0)
(0 0 0)
(0 0 0)
(0 0 0)
(0 0 0)
(0 0 0)
(0 0 0)
(0 0 0)
(0 0 0)
(0 0 0)
(0 0 0)
(0 0 0)
(0 0 0)
(0 0 0)
(0 0 0)
(0 0 0)
(0 0 0)
(0 0 0)
(0 0 0)
(0 0 0)
(0 0 0)
(0 0 0)
(0 0 0)
(0 0 0)
(0 0 0)
(0 0 0)
(0 0 0)
(0 0 0)
(0 0 0)
(0 0 0)
(0 0 0)
(0 0 0)
(0 0 0)
(0 0 0)
(0 0 0)
(0 0 0)
(0 0 0)
(0 0 0)
(0 0 0)
(0 0 0)
(0 0 0)
(0 0 0)
(0 0 0)
(0 0 0)
(0 0 0)
(0 0 0)
(0 0 0)
(0 0 0)
(0 0 0)
(0 0 0)
(0 0 0)
(0 0 0)
(0 0 0)
(0 0 0)
(0 0 0)
(0 0 0)
(0 0 0)
(0 0 0)
(0 0 0)
(0 0 0)
(0 0 0)
(0 0 0)
(0 0 0)
(0 0 0)
(0 0 0)
(0 0 0)
(0 0 0)
(0 0 0)
(0 0 0)
(0 0 0)
(0 0 0)
(0 0 0)
(0 0 0)
(0 0 0)
(0 0 0)
(0 0 0)
(0 0 0)
(0 0 0)
(0 0 0)
(0 0 0)
(0 0 0)
(0 0 0)
(0 0 0)
(0 0 0)
(0 0 0)
(0 0 0)
(0 0 0)
(0 0 0)
(0 0 0)
(0 0 0)
(0 0 0)
(0 0 0)
(0 0 0)
(0 0 0)
(0 0 0)
(0 0 0)
(0 0 0)
(0 0 0)
(0 0 0)
(0 0 0)
(0 0 0)
(0 0 0)
(0 0 0)
(0 0 0)
(0 0 0)
(0 0 0)
(0 0 0)
(0 0 0)
(0 0 0)
(0 0 0)
(0 0 0)
(0 0 0)
(0 0 0)
(0 0 0)
(0 0 0)
(0 0 0)
(0 0 0)
(0 0 0)
(0 0 0)
(0 0 0)
(0 0 0)
(0 0 0)
(0 0 0)
(0 0 0)
(0 0 0)
(0 0 0)
(0 0 0)
(0 0 0)
(0 0 0)
(0 0 0)
(0 0 0)
(0 0 0)
(0 0 0)
(0 0 0)
(0 0 0)
(0 0 0)
(0 0 0)
(0 0 0)
(0 0 0)
(0 0 0)
(0 0 0)
(0 0 0)
(0 0 0)
(0 0 0)
(0 0 0)
(0 0 0)
(0 0 0)
(0 0 0)
(0 0 0)
(0 0 0)
(0 0 0)
(0 0 0)
(0 0 0)
(0 0 0)
(0 0 0)
(0 0 0)
(0 0 0)
(0 0 0)
(0 0 0)
(0 0 0)
(0 0 0)
(0 0 0)
(0 0 0)
(0 0 0)
(0 0 0)
(0.0527694 0.0656284 -0.0617567)
(0.0588248 0.0356587 -0.0713323)
(0.100185 0.0818687 -0.0269311)
(0.117015 0.0951143 -0.0435383)
(0.0892957 0.0462142 -0.0793388)
(0.149601 0.102907 -0.0649316)
(0.133694 0.0722763 -0.0247796)
(0.0209549 0.0142353 -0.00887083)
(0.0372399 0.0573383 -0.0545878)
(0.0185043 0.0882365 -0.0497565)
(0.0626662 0.161037 -0.0118339)
(0.03801 0.156112 0.0110994)
(0.0628349 0.251268 0.059416)
(0.113792 0.199899 0.0161878)
(0.142865 0.199206 -0.0357147)
(0.113056 0.279125 0.035051)
(0.143457 0.281945 -0.00575298)
(0.173183 0.156144 -0.0372018)
(0.142184 0.106895 -0.00439197)
(0.153432 0.213695 -0.00167748)
(0.114335 0.157157 -0.00877537)
(-0.0203215 0.0203263 -0.0159827)
(-0.0223472 -0.00953609 -0.0166165)
(-0.0514017 0.0319455 -0.00467431)
(-0.0497821 -0.032143 -0.00397404)
(-0.0256769 -0.0126188 -0.0226934)
(0.0460968 0.0740405 -0.00509278)
(-0.00591557 0.00792642 9.2727e-05)
(-0.0100378 0.0346055 0.00486658)
(0.0618539 0.119448 0.0258443)
(0.039423 0.123563 0.0461982)
(0.0432073 0.044447 0.0248576)
(0.0312004 0.0161645 0.0155801)
(0.0331257 0.0534773 0.0222054)
(0.0453333 0.00861329 0.00741746)
(-0.0227008 -0.0307983 0.0180032)
(-0.0290862 -0.0540788 0.0103588)
(0.0661624 0.0376023 0.0153312)
(-0.00401642 0.0667142 0.0195961)
(-0.0240279 -0.0409405 0.00339929)
(-0.0528552 0.00122916 0.0119032)
(-0.098507 0.0212034 0.00351981)
(-0.0800871 -0.0172908 -0.0104084)
(-0.110482 0.0311591 0.00918293)
(-0.0801938 0.0279311 -0.0341727)
(-0.00833387 -0.00325945 -0.00944262)
(0.00780552 0.0327836 -0.0235272)
(0.011838 0.0148831 -0.00289501)
(0.00020131 0.00820723 -0.00323261)
(0.0077439 0.00568488 -0.00344543)
(0.0308335 -0.0556815 -0.0139925)
(0.0191288 -0.0153607 -0.00349331)
(-0.0107969 -0.0849493 0.0138801)
(-0.0344828 -0.171751 0.00184251)
(-0.122888 -0.184988 0.0246998)
(-0.120368 -0.170758 0.0361919)
(-0.122728 -0.17437 0.0350602)
(-0.230839 -0.29661 -0.000549198)
(-0.186403 -0.366384 -0.00847868)
(-0.0835259 -0.109653 0.0317484)
(-0.0423125 -0.0632542 0.02466)
(-0.110832 -0.353942 0.0175188)
(0.00448305 -0.332316 0.0520813)
(0.0131379 -0.0664361 0.0168786)
(-0.0106467 0.050075 -0.0114253)
(0.0214492 -0.223793 0.0434802)
(0.0398054 -0.0657386 0.00871851)
(0.0108222 0.0650536 -0.00723716)
(0.000241501 0.0102912 -5.0185e-05)
(0.00669204 0.0255813 -0.012929)
(-0.00374856 -0.0648301 -0.024295)
(-0.0645787 -0.157659 0.0115097)
(-0.241317 -0.270929 0.0103896)
(-0.0739996 -0.0949595 0.00448064)
(-0.215844 -0.190352 0.0224699)
(-0.327034 -0.307469 -0.00948265)
(-0.259693 -0.330896 0.00715856)
(-0.343927 -0.206409 -9.573e-05)
(-0.298689 -0.183728 -0.00053687)
(-0.142758 -0.331873 -0.00257715)
(0.00916349 -0.386643 0.0228468)
(-0.165279 -0.21182 -0.0226153)
(-0.0110946 -0.235811 -0.0106682)
(0.12532 -0.354768 0.0234331)
(0.0494665 -0.0961239 0.0158663)
(0.109626 -0.216204 -0.0232113)
(0.0593391 -0.0997584 0.0159091)
(0.0176403 -0.000926115 -0.00478937)
(-0.174651 -0.108291 -0.00586727)
(-0.275376 -0.113436 0.00187617)
(-0.290088 -0.0586817 -0.0131659)
(-0.20205 -0.0132044 0.0171122)
(-0.164568 -0.0671406 -0.0517637)
(-0.0155088 -0.111713 -0.044292)
(-0.150978 0.00726241 -0.0223298)
(0.0495681 -0.103118 -0.0533744)
(0.0760355 0.00849721 -0.179333)
(0.0498979 -0.0113693 -0.314327)
(0.0151576 0.0155464 -0.14285)
(0.112716 0.018669 -0.097973)
(0.0353734 0.054786 -0.0785369)
(-0.0104883 0.000647303 -0.183936)
(0.0889698 -0.0368381 -0.272201)
(-0.0918313 0.014308 -0.0700314)
(0.0169245 0.0770742 -0.115225)
(0.131627 0.102279 -0.0835516)
(-0.0794669 0.00112766 -0.143311)
(-0.147056 0.0342378 -0.0638268)
(-0.0779072 0.0358093 0.00635272)
(0.10836 0.0694257 -0.103684)
(-0.0664498 0.0134591 0.00138928)
(0.0239438 0.0044493 -0.171445)
(0.0184144 -0.0245531 -0.251731)
(0.113478 0.0587936 -0.0908108)
(0.0887089 0.0940593 -0.022996)
(0.0932717 0.176779 0.0819618)
(0.0514559 -0.0289857 -0.249179)
(0.0994724 -0.0377583 -0.196532)
(0.0860435 -0.0234251 -0.146901)
(0.131563 0.0211488 0.0365458)
(-0.0407339 -0.00371216 -0.135643)
(-0.154187 0.0274814 -0.0114125)
(-0.095378 -0.00856743 -0.076293)
(-0.0376734 0.0651399 -0.0286282)
(0.00755123 0.0426265 -0.186023)
(-0.0626164 0.118867 0.0061184)
(-0.0260704 0.0545101 -0.124932)
(-0.0335527 -0.0244755 -0.161292)
(-0.021157 -0.0145992 -0.212288)
(0.0753882 0.0477951 0.00805409)
(-0.0193708 0.0175722 0.166807)
(-0.00924747 0.059783 0.128058)
(0.0339073 -0.0151307 -0.120202)
(-0.004903 -0.0228167 0.115505)
(-0.0226084 -0.0357015 0.120115)
(-0.105766 -0.0281392 -0.102843)
(0.00442017 0.0533145 0.0110289)
(-0.0670828 -0.0858446 -0.121015)
(-0.113587 -0.121634 -0.0856774)
(-0.019792 -0.0479664 -0.0201228)
(-0.00427367 -0.14089 0.0361812)
(-0.0200356 -0.14311 -0.0303392)
(-0.0037471 -0.0145603 0.0291548)
(-0.00715871 -0.114087 0.0162322)
(-0.0356674 -0.103663 -0.0201138)
(-0.0208888 0.0880562 -0.0383127)
(-0.0936648 0.151343 -0.0856779)
(-0.0871942 -0.104283 -0.0940402)
(-0.00881577 -0.0297684 -0.0491945)
(-0.0869097 -0.0863578 -0.0969738)
(-0.0562974 -0.13047 -0.0336294)
(-0.0385863 -0.0832147 -0.0272982)
(-0.14965 -0.302931 0.0793503)
(-0.0974635 -0.127314 -0.0120525)
(-0.0809555 -0.154212 -0.0283365)
(-0.0447406 -0.12329 -0.0138786)
(-0.0385405 -0.196649 0.075527)
(0.00241872 -0.0282296 -0.105228)
(0.0248153 -0.0409393 -0.0719994)
(0.0439887 -0.103756 0.0781604)
(0.0121362 -0.139461 -0.0815147)
(0.0961703 -0.115705 0.0192809)
(-0.184336 -0.0959591 0.039213)
(-0.134387 -0.0431848 -0.0541808)
(-0.117123 -0.0220912 -0.150093)
(-0.0668079 0.015233 -0.173978)
(-0.0558214 -0.0324507 -0.0761812)
(-0.0534405 -0.0583354 -0.130359)
(0.0375725 0.00690354 -0.173784)
(-0.100807 -0.145947 -0.0423035)
(-0.0806312 -0.0483544 -0.0604647)
(-0.0151951 -0.0503052 -0.102325)
(-0.0328724 -0.121418 -0.10846)
(-0.0134602 -0.0418311 -0.165217)
(-0.0393441 -0.0680122 -0.116007)
(-0.0473203 -0.024287 -0.105553)
(-0.0120721 -0.0942829 -0.14313)
(-0.0524304 -0.0304148 -0.164406)
(-0.00156222 -0.0289772 -0.191728)
(-0.0626051 0.00663553 -0.211251)
(0.0200769 -0.0146452 -0.351217)
(0.0201156 -0.0143592 -0.30385)
(0.0293274 -0.028869 -0.200661)
(0.0748287 -0.0228671 -0.289102)
(-0.141571 -0.0254751 -0.0393477)
(0.103507 -0.0211337 -0.192064)
(0.0706569 -0.013621 -0.247569)
(-0.0992578 -0.0538703 -0.0180858)
(-0.158337 0.00462183 -0.0460174)
(-0.0939663 0.0158719 -0.0408668)
(0.117477 0.00604951 -0.163786)
(-0.102439 -0.0220248 -0.0137494)
(0.0311305 0.0201573 -0.0479135)
(-0.0343932 0.0209406 -0.0791232)
(0.0422816 0.042512 -0.142364)
(0.0159949 -0.0281919 -0.2465)
(0.0167008 -0.034164 -0.217609)
(0.0628591 -0.0589682 -0.217334)
(0.0510397 -0.0573128 -0.204876)
(0.126166 -0.0404188 0.0968668)
(0.0173609 -0.0285108 -0.245021)
(0.0350135 -0.0479 -0.179094)
(0.0354594 -0.0613235 -0.175725)
(0.124322 -0.0750339 0.168646)
(0.0271815 0.0430203 -0.221459)
(-0.000169839 0.148901 0.0270136)
(0.00750696 0.0649076 -0.149146)
(0.021392 0.0558588 -0.0759742)
(-0.00920301 -0.00948467 -0.278007)
(0.0253637 0.0950553 0.0410637)
(-0.0030389 0.000138254 -0.251415)
(-0.0289771 -0.00728172 -0.368143)
(-0.0212009 -0.000954591 -0.342114)
(0.00334071 -0.0174068 -0.145338)
(-0.0172209 -0.0155658 0.0395893)
(-0.077855 -0.112844 0.105734)
(-0.0101703 -0.0242268 -0.1267)
(-0.0835639 -0.0427384 0.0780048)
(-0.144279 -0.151755 0.114211)
(-0.0798358 -0.132215 -0.109171)
(-0.0325402 -0.0764019 -0.10604)
(-0.00368828 0.026014 -0.225135)
(-0.0176177 -0.01758 -0.179652)
(-0.0312621 -0.0125837 -0.268354)
(-0.0452087 -0.10134 0.0494226)
(-0.0302113 -0.0477373 0.00799865)
(-0.0252056 -0.0121833 0.0204678)
(-0.0833364 -0.095052 0.0656633)
(-0.0233215 0.00104939 0.0312303)
(-0.00854774 -0.0578922 -0.117588)
(-0.0289758 -0.141519 -0.163913)
(-0.0189853 -0.0466994 -0.204344)
(-0.0166241 -0.00653987 -0.266058)
(-0.00734046 -0.0264666 -0.228768)
(0.00246758 -0.00216939 -0.0183854)
(0.0421416 0.0777734 -0.012815)
(0.0298224 -0.069524 0.0914261)
(0.0624082 0.0655409 -0.135614)
(0.0442076 0.0283438 -0.111612)
(0.0443303 0.0673712 -0.0167901)
(0.00352141 0.00534219 0.134385)
(0.100046 0.12182 -0.13764)
(0.0252769 0.0489052 -0.0906203)
(-0.0925868 -0.0395072 -0.146647)
(-0.101379 0.0125905 -0.217201)
(-0.0529104 0.0306816 -0.270766)
(-0.105632 -0.0145507 -0.047456)
(-0.0476785 0.0137563 -0.194351)
(0.0240324 0.0148402 -0.266037)
(-0.0145471 0.0339748 -0.319684)
(-0.0280968 0.0123575 -0.256055)
(0.0569309 0.0271766 -0.235912)
(0.0310278 0.00291188 -0.226318)
(-0.0162496 -0.0448014 -0.169908)
(-0.0100034 -0.00858544 -0.225924)
(0.0154496 0.000124117 -0.134118)
(-0.0144643 0.0174465 -0.17696)
(-0.010877 0.00753289 -0.207691)
(-0.00453866 -0.00446541 -0.266986)
(-0.0105273 -0.00211577 -0.242691)
(-0.00835031 0.0305013 -0.212212)
(-0.00488028 0.0103783 -0.227278)
(-0.0104015 0.0117498 -0.221791)
(0.00499704 0.00636032 -0.284911)
(0.0190701 -0.0143513 -0.257893)
(0.008384 -0.00865493 -0.222042)
(0.124913 -0.0216993 -0.164365)
(0.0666986 -0.0153221 -0.202999)
(-0.0378018 -0.0769227 -0.0190712)
(0.132326 -0.0110997 -0.139121)
(0.0605554 -0.0120026 -0.163188)
(-0.00400132 -0.0813476 -0.0195818)
(-0.0556297 -0.0577816 0.0109377)
(0.0933933 0.0283833 -0.0647836)
(0.160123 0.00364819 -0.13848)
(-0.0459357 -0.0716584 0.00941756)
(0.105056 0.0151641 -0.0718118)
(0.0847004 0.061687 -0.17288)
(0.0877555 0.0554972 -0.165723)
(0.0156066 -0.0449958 -0.182127)
(0.0175991 -0.0483196 -0.140812)
(0.0201413 -0.0280502 -0.129017)
(0.0313717 -0.059505 -0.125226)
(0.132338 -0.0874447 0.231057)
(0.000238874 0.00440434 -0.163139)
(0.0157407 -0.00889603 -0.0937711)
(0.0292438 -0.0636861 -0.0808198)
(0.124847 -0.0995057 0.275411)
(-0.0412561 -0.0351666 -0.304103)
(0.049899 0.0272201 0.0620712)
(-0.0132875 0.00592169 -0.23512)
(0.0137207 -0.0168846 -0.11393)
(-0.0363805 -0.0337209 -0.25806)
(0.0576475 -0.00245279 0.0881839)
(-0.0156341 0.00419496 -0.194379)
(-0.0132491 -0.00263135 -0.298348)
(-0.00479489 -0.00568653 -0.250228)
(-0.00980574 -0.0286583 -0.107451)
(-0.0806218 -0.0335511 0.0877985)
(-0.170493 -0.140526 0.132294)