/*--------------------------------*- C++ -*----------------------------------*\
| =========                 |                                                 |
| \\      /  F ield         | OpenFOAM: The Open Source CFD Toolbox           |
|  \\    /   O peration     | Version:  5.x                                   |
|   \\  /    A nd           | Web:      www.OpenFOAM.org                      |
|    \\/     M anipulation  |                                                 |
\*---------------------------------------------------------------------------*/
FoamFile
{
    version     2.0;
    format      ascii;
    class       volScalarField;
    location    "6";
    object      p;
}
// * * * * * * * * * * * * * * * * * * * * * * * * * * * * * * * * * * * * * //

dimensions      [0 2 -2 0 0 0 0];

internalField   nonuniform List<scalar> 
10571
(
77.2833
89.0575
84.4403
83.2089
94.7103
91.9331
90.5379
86.4038
82.8085
90.9304
93.1338
102.484
102.728
94.8558
86.3451
89.9086
112.572
109.523
101.551
87.001
90.1156
96.8985
85.8679
83.4462
76.1302
79.3282
78.5066
77.1949
75.2528
82.0044
77.4096
80.332
80.2031
74.2661
82.6405
83.2272
61.1619
54.4813
76.3668
71.7801
81.9323
44.079
57.3627
77.3478
70.9219
77.3942
75.9875
72.384
65.9376
34.2773
60.0298
60.118
55.5754
50.0077
4.17598
5.44719
4.6781
39.8525
30.9796
41.932
2.93056
2.74169
3.50629
37.0028
11.9309
2.42332
2.72053
11.4893
19.386
3.10889
7.0969
8.3845
1.77934
1.89612
2.05008
2.39929
1.79315
1.83493
1.66438
1.6938
1.45249
1.48375
2.00076
2.03026
2.05619
2.26078
1.76454
1.65497
2.29526
2.17686
2.06278
2.21263
2.07996
2.49984
2.52939
2.48011
2.63106
2.3912
2.49809
2.63873
2.4598
2.37787
2.78751
2.96481
2.89955
2.43392
2.38043
2.38109
2.62641
2.73138
2.67715
2.40234
2.38457
2.45298
2.54262
2.31105
2.35512
2.40741
2.42253
2.41036
2.53214
2.46333
2.50476
2.54951
2.50987
2.45207
2.42667
2.5232
2.47201
2.44287
2.48895
2.4468
2.43978
2.42981
2.51447
2.44463
2.47069
2.47106
2.41293
2.38715
2.40982
2.39485
2.43113
2.40898
2.42761
2.4299
2.53496
2.47238
2.49209
2.52201
2.50895
2.45148
2.44382
2.4977
2.48652
2.47541
2.49433
2.44361
2.44012
2.42872
2.45355
2.46755
2.45662
2.49437
2.42862
2.39672
2.41503
2.38112
2.4197
2.48438
2.41518
2.42094
2.42253
2.51727
2.4579
2.48391
2.50337
2.49153
2.43504
2.44026
2.50234
2.47831
2.46365
2.49163
2.43812
2.43431
2.43883
2.45734
2.48994
2.45988
2.49183
2.43861
2.41461
2.43052
2.40302
2.42312
2.48236
2.42608
2.42462
2.43101
2.49011
2.44314
2.46171
2.48498
2.47469
2.41919
2.41914
2.47671
2.46155
2.45926
2.49905
2.43456
2.43431
2.4467
2.45952
2.49455
2.46822
2.5035
2.44406
2.43627
2.44878
2.42907
2.43414
2.44347
2.43906
2.44297
2.47277
2.43699
2.44641
2.46943
2.45992
2.41295
2.41493
2.46177
2.44911
2.44219
2.43956
2.44115
2.45617
2.46531
2.47787
2.46339
2.4503
2.45498
2.4643
2.44984
2.44888
2.46102
2.45522
2.45619
2.46573
2.44014
2.44488
2.46367
2.45341
2.42533
2.42721
2.46084
2.45074
2.46
2.44769
2.44774
2.46594
2.47034
2.46535
2.4669
2.4544
2.46438
2.47089
2.45885
2.45972
2.47047
2.46705
2.46489
2.46688
2.45308
2.45567
2.46616
2.45861
2.4491
2.44927
2.46127
2.46856
2.46816
2.45761
2.45584
2.47079
2.47141
2.46821
2.47201
2.45329
2.46827
2.4671
2.46038
2.46391
2.47102
2.46968
2.46792
2.47209
2.46912
2.47043
2.47233
2.47003
2.47254
2.4765
2.46478
2.48533
2.47792
2.47724
2.47053
2.47519
2.47231
2.4713
2.47293
2.45846
2.4749
2.46321
2.46414
2.46558
2.46845
2.46878
2.4684
2.47782
2.48033
2.48168
2.47836
2.47815
2.48021
2.49918
2.46862
2.49606
2.47967
2.48963
2.4828
2.48011
2.47284
2.47186
2.47188
2.47775
2.47606
2.4614
2.4708
2.46814
2.46823
2.46771
2.46924
2.48162
2.48519
2.4858
2.48077
2.48328
2.47493
2.50282
2.47252
2.49202
2.4776
2.49887
2.48583
2.47665
2.4743
2.47189
2.47194
2.47963
2.48244
2.46588
2.47431
2.47167
2.47261
2.47034
2.47239
2.4829
2.48758
2.4844
2.47877
2.48222
2.48714
2.49423
2.47442
2.47945
2.47568
2.50675
2.4955
2.47665
2.47556
2.46663
2.47145
2.4801
2.4884
2.47494
2.4773
2.47493
2.47745
2.47479
2.4777
2.48198
2.48647
2.48047
2.47699
2.47951
2.48992
2.48241
2.47612
2.47507
2.4753
2.50054
2.50981
2.47839
2.47442
2.46234
2.47076
2.48825
2.4892
2.47928
2.47848
2.47858
2.47973
2.4777
2.48225
2.4782
2.48055
2.47534
2.4766
2.47632
2.47892
2.47189
2.47419
2.47727
2.47593
2.48392
2.48692
2.47843
2.47049
2.46425
2.47048
2.48833
2.48228
2.47759
2.47786
2.48024
2.48065
2.4799
2.48185
2.47339
2.47315
2.47133
2.47243
2.47437
2.46902
2.4652
2.47044
2.47938
2.47657
2.46666
2.46292
2.47197
2.46521
2.46682
2.47126
2.4772
2.47365
2.47615
2.47622
2.47961
2.47848
2.47893
2.47973
2.47216
2.46908
2.47072
2.47082
2.4751
2.46078
2.46787
2.46658
2.47708
2.47716
2.45561
2.4492
2.46643
2.46088
2.47201
2.4738
2.46805
2.46972
2.47687
2.47593
2.4803
2.4764
2.4756
2.47716
2.47463
2.47234
2.47416
2.47104
2.47436
2.4636
2.47363
2.46363
2.47164
2.4774
2.45698
2.45064
2.47229
2.45833
2.48078
2.47873
2.46337
2.47225
2.47998
2.4806
2.48455
2.47756
2.4764
2.48006
2.48042
2.48112
2.48218
2.47435
2.47624
2.47639
2.492
2.46702
2.46903
2.47978
2.46668
2.46194
2.48544
2.47094
2.49265
2.48482
2.46737
2.47852
2.4861
2.48331
2.49036
2.48148
2.48181
2.48553
2.48867
2.48964
2.48972
2.48471
2.48392
2.49077
2.50571
2.48194
2.47742
2.48575
2.47788
2.4805
2.49271
2.48683
2.49983
2.49064
2.47802
2.48436
2.49049
2.48644
2.49521
2.48685
2.48808
2.49079
2.4959
2.49476
2.49502
2.49236
2.49317
2.49639
2.50497
2.50027
2.49226
2.49397
2.4856
2.48807
2.49802
2.49905
2.50145
2.49673
2.49046
2.48768
2.49273
2.49099
2.49986
2.49245
2.49359
2.49552
2.50193
2.49793
2.49872
2.50044
2.50002
2.49691
2.50348
2.51138
2.49959
2.50097
2.49219
2.48872
2.50521
2.50499
2.50298
2.5018
2.50115
2.49402
2.49311
2.49764
2.50465
2.49858
2.49855
2.50034
2.50092
2.49998
2.50046
2.50127
2.50325
2.49969
2.50395
2.51439
2.50026
2.50369
2.50018
2.49478
2.50562
2.5094
2.50767
2.50643
2.5091
2.50096
2.49882
2.50246
2.50661
2.50496
2.50382
2.50536
2.49971
2.50084
2.50142
2.50067
2.50255
2.50262
2.50433
2.50968
2.49963
2.50401
2.50841
2.50032
2.50694
2.50933
2.50916
2.50717
2.51334
2.50612
2.5044
2.50375
2.50532
2.51089
2.50863
2.50864
2.50223
2.49996
2.50312
2.50034
2.50451
2.50255
2.50424
2.50375
2.50029
2.50341
2.51859
2.50929
2.50935
2.50754
2.51108
2.50697
2.51379
2.50585
2.50343
2.50177
2.50343
2.51415
2.51129
2.50915
2.51294
2.4984
2.50389
2.50383
2.50736
2.49803
2.50173
2.50187
2.5018
2.50308
2.52293
2.51666
2.5117
2.50585
2.51017
2.50558
2.51282
2.50249
2.49942
2.50093
2.50314
2.51448
2.51037
2.5073
2.50862
2.49796
2.50346
2.50415
2.50682
2.49342
2.49787
2.50045
2.50203
2.5028
2.52244
2.51645
2.50852
2.5024
2.50237
2.50326
2.51377
2.50251
2.4968
2.49955
2.50294
2.51245
2.50797
2.50487
2.50643
2.49978
2.50358
2.50395
2.50555
2.49381
2.49716
2.50139
2.50188
2.5024
2.51958
2.51383
2.50026
2.50066
2.49652
2.5015
2.51916
2.50211
2.49805
2.49834
2.50179
2.50943
2.50561
2.50299
2.50716
2.50365
2.50473
2.50526
2.50506
2.49777
2.49818
2.50305
2.50184
2.5017
2.51517
2.51003
2.49295
2.50018
2.49523
2.50145
2.52281
2.50035
2.5005
2.49656
2.50079
2.50763
2.50415
2.50201
2.50929
2.50723
2.50654
2.50694
2.50484
2.50217
2.50053
2.50394
2.50306
2.50374
2.51111
2.50701
2.48922
2.50134
2.49983
2.50391
2.51805
2.49931
2.50162
2.50019
2.50207
2.50686
2.50296
2.50277
2.51158
2.51049
2.5081
2.50912
2.50592
2.50594
2.50377
2.50469
2.50538
2.5066
2.50719
2.50503
2.49291
2.50284
2.50591
2.50639
2.51336
2.50186
2.50392
2.50469
2.50467
2.50786
2.50384
2.50529
2.51381
2.51291
2.51171
2.51192
2.50938
2.50838
2.50929
2.50577
2.5077
2.50782
2.50319
2.5027
2.50041
2.50522
2.51018
2.50867
2.50907
2.50642
2.50833
2.50698
2.50763
2.5069
2.50638
2.50816
2.51487
2.51308
2.51262
2.51372
2.51335
2.50903
2.51314
2.50704
2.50975
2.50882
2.5
2.49877
2.50725
2.5056
2.51202
2.5104
2.50599
2.51264
2.50799
2.51023
2.51027
2.50531
2.50835
2.51157
2.51383
2.5121
2.51252
2.51546
2.51413
2.50816
2.51329
2.50875
2.50998
2.50986
2.49919
2.49522
2.5077
2.50704
2.51213
2.51126
2.50261
2.51124
2.50488
2.51032
2.51133
2.50129
2.50562
2.50905
2.5121
2.51044
2.5112
2.51392
2.51185
2.50815
2.51177
2.50892
2.50967
2.51057
2.50263
2.49709
2.50645
2.50856
2.51178
2.51148
2.50076
2.50385
2.50537
2.50965
2.51189
2.49762
2.50505
2.50417
2.50946
2.50844
2.50888
2.50904
2.50864
2.50823
2.50908
2.50742
2.5091
2.51008
2.50802
2.50522
2.50632
2.50871
2.51081
2.51104
2.50722
2.50161
2.50756
2.50971
2.51171
2.50278
2.51001
2.50947
2.50664
2.50641
2.50656
2.50535
2.5074
2.5066
2.50659
2.50412
2.50689
2.51008
2.50953
2.50869
2.50746
2.50826
2.50765
2.50954
2.51979
2.50471
2.50902
2.50947
2.51032
2.51001
2.51471
2.51161
2.50425
2.50436
2.50453
2.50316
2.50503
2.50352
2.50335
2.50221
2.50654
2.50819
2.5057
2.50383
2.50472
2.50552
2.50305
2.50684
2.51337
2.50567
2.50711
2.50799
2.5083
2.50847
2.5117
2.50985
2.5025
2.50212
2.50256
2.50192
2.50245
2.4996
2.4994
2.50253
2.50632
2.50372
2.50001
2.49702
2.49934
2.50206
2.49901
2.50462
2.49766
2.50055
2.5039
2.50571
2.50618
2.50396
2.50704
2.50668
2.50123
2.5001
2.50113
2.50107
2.50056
2.49632
2.49679
2.50214
2.50492
2.50396
2.49621
2.49276
2.49521
2.49932
2.49727
2.50506
2.49043
2.49543
2.50182
2.50404
2.50483
2.50051
2.50377
2.50421
2.50028
2.49959
2.50035
2.50039
2.49892
2.49539
2.49681
2.50116
2.50013
2.50516
2.49589
2.49257
2.4938
2.4985
2.49823
2.51288
2.49324
2.49506
2.50153
2.50282
2.5036
2.49956
2.50219
2.50273
2.49957
2.50006
2.49974
2.49974
2.4975
2.49704
2.49702
2.50053
2.49312
2.50194
2.49779
2.49536
2.49453
2.49856
2.49822
2.51079
2.50013
2.49797
2.50174
2.50092
2.50129
2.50232
2.50147
2.50197
2.49928
2.50088
2.49943
2.49934
2.49692
2.49813
2.49653
2.49898
2.4873
2.49735
2.49983
2.4985
2.49695
2.49916
2.49622
2.49991
2.50328
2.50015
2.50148
2.49939
2.49908
2.50641
2.50184
2.50167
2.49948
2.50128
2.49967
2.49942
2.49742
2.4986
2.49621
2.49767
2.48789
2.4948
2.50117
2.50049
2.4996
2.50028
2.49972
2.49516
2.50318
2.502
2.5009
2.49746
2.49775
2.51031
2.50277
2.50187
2.49999
2.50133
2.50022
2.49987
2.49856
2.4989
2.497
2.49726
2.49156
2.49454
2.50232
2.50248
2.50151
2.50138
2.50341
2.49877
2.50308
2.502
2.50119
2.49993
2.5021
2.51201
2.50407
2.50204
2.50049
2.50135
2.50044
2.50026
2.49963
2.49929
2.49846
2.49748
2.49482
2.49493
2.50326
2.50436
2.50285
2.50058
2.50203
2.49987
2.50343
2.50081
2.50092
2.50056
2.50219
2.5076
2.50332
2.50152
2.50085
2.50152
2.50016
2.50029
2.50039
2.49955
2.49938
2.49742
2.49688
2.49566
2.50345
2.50387
2.50388
2.49962
2.49844
2.49909
2.50305
2.49972
2.49991
2.50049
2.50433
2.50257
2.50189
2.49989
2.5013
2.50198
2.50066
2.50043
2.5009
2.50005
2.4994
2.49748
2.49796
2.49624
2.50308
2.50256
2.50245
2.49884
2.49445
2.4976
2.50226
2.49903
2.49902
2.4989
2.50217
2.49975
2.50038
2.49853
2.50191
2.50326
2.50204
2.50122
2.50124
2.50149
2.50078
2.49752
2.49829
2.49659
2.50308
2.5021
2.50112
2.49819
2.4928
2.49576
2.50172
2.49912
2.49794
2.49558
2.49705
2.4989
2.49964
2.49789
2.50264
2.50529
2.50408
2.50169
2.50133
2.50371
2.50307
2.49835
2.49844
2.49704
2.50396
2.50295
2.50165
2.4977
2.49285
2.4951
2.50227
2.50038
2.49894
2.49562
2.49776
2.50045
2.50088
2.49878
2.50385
2.50756
2.50605
2.50271
2.50154
2.50627
2.50475
2.49977
2.49796
2.49738
2.50587
2.50463
2.50261
2.49808
2.49252
2.49474
2.50428
2.50234
2.50014
2.49712
2.49907
2.50282
2.50148
2.49937
2.50558
2.51025
2.5082
2.50451
2.50231
2.50975
2.50812
2.50113
2.49662
2.49734
2.50883
2.50811
2.50615
2.49972
2.4913
2.49409
2.50744
2.50494
2.50083
2.49698
2.49762
2.50565
2.50162
2.49922
2.50747
2.51337
2.51134
2.5067
2.50321
2.51396
2.51214
2.50307
2.49664
2.49655
2.51241
2.51241
2.51216
2.50114
2.48989
2.49253
2.5109
2.50685
2.5006
2.4967
2.4951
2.50756
2.50182
2.49849
2.50917
2.51702
2.51386
2.50867
2.50287
2.51839
2.51512
2.50337
2.49567
2.49406
2.51644
2.51591
2.51542
2.50105
2.48759
2.48922
2.51347
2.50977
2.49999
2.49482
2.4915
2.50894
2.50131
2.49715
2.51041
2.52109
2.51617
2.50884
2.50087
2.52301
2.51736
2.50306
2.49116
2.48837
2.52046
2.51919
2.51558
2.49904
2.48193
2.48158
2.51586
2.51267
2.49871
2.49031
2.48389
2.50967
2.50113
2.49403
2.51184
2.52467
2.51875
2.50831
2.49738
2.52622
2.518
2.50098
2.48048
2.47589
2.52505
2.52272
2.51594
2.49443
2.4697
2.46569
2.52049
2.51506
2.49656
2.48042
2.47057
2.5118
2.50058
2.48864
2.5138
2.53032
2.52192
2.508
2.49229
2.53008
2.51942
2.49567
2.46137
2.45046
2.5308
2.52805
2.51634
2.48766
2.44852
2.43034
2.52826
2.51869
2.49431
2.46875
2.44805
2.5154
2.50032
2.48204
2.51633
2.53498
2.52533
2.50817
2.48603
2.53463
2.52107
2.48866
2.43215
2.39697
2.5374
2.53442
2.51816
2.47837
2.4135
2.35102
2.54157
2.52707
2.49385
2.45165
2.40671
2.52295
2.50185
2.4761
2.52073
2.54101
2.53031
2.50967
2.4798
2.54162
2.52778
2.4783
2.39357
2.26245
2.54408
2.54026
2.52718
2.46862
2.36584
2.16133
2.55453
2.53426
2.49418
2.4337
2.3296
2.53558
2.50921
2.47339
2.52755
2.5487
2.53715
2.51454
2.47596
2.5517
2.5374
2.47689
2.35196
1.88771
2.55074
2.54627
2.53714
2.46179
2.32093
1.86501
-2.04679
2.5568
2.54408
2.49706
2.41727
2.15655
2.55932
2.52134
2.47959
2.53752
2.55437
2.5444
2.52567
2.48011
2.55736
2.54721
2.50323
2.35837
1.65452
0.0513997
2.55487
2.55345
2.55007
2.4821
2.31081
1.82276
0.0210613
2.55815
2.55138
2.5079
2.42142
1.9691
2.56818
2.54071
2.5039
2.54733
2.55633
2.54813
2.53754
2.50082
2.55773
2.54861
2.52108
2.41312
1.88731
0.480902
2.5543
2.55289
2.55549
2.50339
2.37444
1.87642
0.45708
2.56266
2.56109
2.52284
2.45791
2.16114
0.713249
2.5669
2.54791
2.53068
2.54871
2.55436
2.54518
2.53905
2.52928
2.55643
2.54676
2.52403
2.44401
2.01031
0.571691
2.55891
2.55596
2.53905
2.51569
2.4405
2.0919
0.43037
2.57126
2.56028
2.53841
2.47544
2.29742
2.5641
2.54931
2.54864
2.54173
2.55471
2.54137
2.53415
2.53893
2.55367
2.53704
2.53334
2.4758
2.22372
2.56232
2.55598
2.53525
2.51903
2.48318
2.23772
-0.68174
2.56804
2.55162
2.54377
2.51038
2.51794
2.55704
2.55087
2.55267
2.53024
2.54578
2.52865
2.52495
2.52655
2.54577
2.52797
2.5362
2.48912
2.47277
2.56051
2.55047
2.53142
2.52141
2.50792
2.50646
2.56132
2.54594
2.54342
2.52955
2.55889
2.5624
2.55048
2.55491
2.51303
2.52871
2.50605
2.50162
2.51008
2.53022
2.51856
2.52368
2.50445
2.54663
2.55586
2.54073
2.52525
2.5244
2.52334
2.56123
2.55364
2.5453
2.54024
2.53689
2.56195
2.55923
2.55269
2.55555
2.49577
2.51773
2.49451
2.47557
2.50386
2.51448
2.5081
2.52178
2.52195
2.56655
2.54725
2.52687
2.51824
2.52699
2.53425
2.56549
2.54558
2.53785
2.53839
2.53957
2.55894
2.55361
2.55902
2.55395
2.50615
2.51765
2.49433
2.48178
2.52121
2.51005
2.51333
2.52851
2.53624
2.57292
2.53797
2.5147
2.5167
2.52786
2.53747
2.56186
2.53778
2.53331
2.5371
2.53918
2.55567
2.54669
2.54994
2.55032
2.54041
2.52919
2.50934
2.51439
2.53517
2.5175
2.51382
2.53347
2.54674
2.5715
2.53109
2.50752
2.51723
2.52781
2.53685
2.55883
2.53057
2.52742
2.53498
2.53858
2.55377
2.54049
2.54283
2.54692
2.54188
2.55448
2.52451
2.52018
2.53253
2.53747
2.52027
2.53647
2.55023
2.57026
2.53351
2.50675
2.51852
2.53031
2.54292
2.56403
2.52441
2.525
2.53326
2.53869
2.55726
2.53483
2.53813
2.54465
2.56845
2.58998
2.55073
2.53599
2.55342
2.55784
2.53194
2.532
2.55722
2.58271
2.53616
2.51222
2.5199
2.5337
2.54999
2.57844
2.52072
2.5193
2.53049
2.54369
2.57164
2.52797
2.53438
2.54657
2.59861
2.61665
2.57486
2.55152
2.56881
2.57727
2.53965
2.54004
2.56453
2.5989
2.55431
2.52631
2.5254
2.53787
2.56191
2.5971
2.52195
2.52221
2.53413
2.5591
2.59431
2.52464
2.53639
2.56076
143.583
134.889
147.861
143.301
130.516
149.089
153.796
152.914
142.434
144.451
152.359
155.014
139.222
144.242
141.997
130.963
140.828
153.347
158.379
145.765
145.668
160.304
152.64
148.03
155.672
149.826
135.561
120.153
136.465
134.776
124.91
132.565
135.544
111.359
106.183
119.045
117.174
113.551
104.393
119.923
115.805
105.451
132.779
113.75
122.014
150.724
155.545
146.808
130.053
147.53
154.276
145.225
145.563
155.237
147.237
118.844
118.03
126.657
125.798
118.13
99.8487
122.83
102.696
111.945
113.271
114.084
136.285
150.085
147.245
159.634
157.663
160.912
148.382
155.665
160.223
124.484
118.904
136.951
126.709
126.395
106.902
136.911
124.545
131.633
151.256
150.422
146
148.022
151.736
144.667
138.389
121.981
136.842
130.837
120.02
141.304
85.0742
78.228
78.0551
82.2103
81.0235
76.1737
77.1683
76.522
82.0369
82.1523
75.6463
75.9584
75.4292
90.3655
76.2813
88.1152
82.3123
87.6051
89.3575
87.8118
80.5332
79.4654
81.7052
80.9957
100.971
86.2652
94.1857
77.2563
77.7748
77.4356
78.0953
97.9017
77.8175
90.157
88.9012
94.2963
83.4405
84.3317
84.4973
89.5241
90.4881
78.4282
78.2611
76.2881
101.132
107.972
84.9709
85.999
88.8787
87.8968
88.2322
76.3337
73.5919
75.7787
109.472
90.6089
110.626
110.451
109.135
92.7048
96.3979
92.2055
91.894
87.1217
86.319
86.8295
79.2655
76.8371
75.3868
74.1331
75.6514
100.108
88.551
93.2459
83.641
85.2339
81.3104
79.5469
81.8115
80.0384
78.4295
76.7452
78.0764
75.8965
77.8673
72.5374
76.6524
77.6387
77.0512
74.2096
74.005
73.8759
76.4075
76.0102
73.8275
73.2186
72.3531
75.2884
71.2648
81.2674
68.6521
78.7966
80.5075
80.5475
68.9635
72.5633
70.7484
74.6965
74.5052
75.4737
74.7503
71.4573
69.8584
71.4232
69.6655
73.8222
67.0886
82.0806
82.5972
82.4442
71.7417
74.2057
73.7757
73.9705
72.3805
65.7058
65.8906
64.4958
82.5885
82.4026
74.2417
73.2712
68.4745
71.1268
71.2699
64.45
64.5958
62.0487
81.6462
62.426
82.0464
80.7129
79.4828
61.379
55.0973
53.2097
48.6316
72.083
72.1585
69.9409
61.7269
61.0937
60.2802
59.772
59.0807
80.1814
45.6785
75.8196
76.8691
48.7527
55.9926
67.2955
74.0318
76.4412
59.0411
59.1094
66.3402
57.7534
54.3309
2.96727
65.4597
60.8842
62.7732
10.6392
6.86567
14.7244
62.2738
59.2711
15.8827
18.9146
11.0339
55.0613
4.6531
26.4479
2.38924
54.0193
40.4762
57.1733
2.66033
3.34309
2.67766
3.6523
47.1014
56.0782
49.879
6.28388
2.8769
10.2382
3.55734
41.3499
2.74704
34.7584
35.494
42.6087
2.60866
2.41592
2.75114
40.2173
42.3943
3.30586
2.94986
4.3139
35.8652
23.1268
2.34896
2.67555
2.49917
41.4497
28.2632
2.72731
4.34434
2.27579
11.7253
2.17591
9.78316
4.44215
4.04055
2.20524
2.13615
2.02841
2.01467
17.8159
10.5839
12.7521
1.74557
1.73104
1.51163
1.27221
1.76615
2.62116
1.99567
4.13716
6.04257
1.73329
1.61467
1.47952
9.02845
7.70838
1.4291
1.20198
1.26686
1.27088
1.78005
2.67089
1.8095
1.83337
2.18137
2.55699
2.65669
2.525
2.26876
1.85666
2.51275
2.48058
2.58264
1.69611
2.66983
1.95527
2.62994
1.84595
1.90189
1.9005
2.64061
2.63576
2.64706
2.65533
1.69893
1.84847
1.71196
2.61842
2.5987
2.61024
2.56781
1.6697
2.65623
1.90801
1.92453
1.91695
2.6284
2.6175
2.6208
1.57749
1.38016
2.63891
2.54357
2.50782
2.02276
2.11259
2.56736
2.55207
2.47618
1.49591
1.79304
2.56487
2.52028
2.44534
2.26018
2.39942
2.32037
2.39785
2.44072
2.3678
2.35428
2.34943
2.29962
2.1643
2.37756
2.30346
2.27763
2.36354
2.33764
2.36541
2.42122
2.46255
2.2583
2.58254
2.62282
2.33129
2.30571
2.34693
2.56341
2.55423
2.29271
2.36051
2.34304
2.36518
2.43455
2.48555
2.58418
2.49254
2.53922
2.53098
2.51344
2.52521
2.58236
2.56607
2.55308
2.55077
2.54448
2.49871
2.53389
2.36041
2.47923
2.3797
2.38044
2.4012
2.49361
2.48416
2.48936
2.47929
2.48725
2.52598
2.39667
2.5656
2.56629
2.53343
2.5502
2.41701
2.51674
2.37485
2.39084
2.37879
2.46332
2.46183
2.45976
2.35198
2.53787
2.45121
2.4935
2.27687
2.36513
2.37431
2.43812
2.43544
2.42004
2.50241
2.38718
2.46775
2.22339
2.43413
2.37284
2.40286
2.37595
2.39888
2.39209
2.39793
2.38318
2.38792
2.36331
2.39306
2.44822
2.47034
2.34124
2.40102
2.42695
2.45465
2.40857
2.40614
2.37277
2.40396
2.39997
2.39282
2.40002
2.42002
2.42317
2.42233
2.42074
2.44394
2.44318
2.43368
2.49554
2.49003
2.51619
2.51319
2.51232
2.51619
2.50436
2.50482
2.53029
2.53901
2.53101
2.51847
2.53024
2.53021
2.52735
2.45509
2.45965
2.47344
2.45989
2.47005
2.47294
2.47656
2.46583
2.46725
2.49877
2.50766
2.47671
2.51903
2.50704
2.50515
2.49693
2.46239
2.48161
2.45186
2.45731
2.44863
2.4489
2.45136
2.44422
2.46387
2.4879
2.58683
2.46064
2.50608
2.47749
2.49698
2.50059
2.46991
2.49944
2.49656
2.50217
2.50572
2.50552
2.43342
2.42452
2.44626
2.43613
2.42932
2.55161
2.43448
2.47581
2.45687
2.47577
2.43898
2.48946
2.49544
2.48331
2.49522
2.49507
2.49878
2.48703
2.49629
2.41751
2.42533
2.40599
2.424
2.42193
2.41876
2.41248
2.41321
2.40049
2.43194
2.43364
2.43301
2.3705
2.41922
2.42522
2.43092
2.41596
2.42129
2.40522
2.40913
2.41826
2.40668
2.41245
2.419
2.43078
2.43743
2.42407
2.42814
2.43328
2.42369
2.49033
2.48922
2.52242
2.50357
2.51118
2.521
2.5016
2.51168
2.5196
2.52253
2.53296
2.51857
2.51497
2.517
2.50627
2.45905
2.45144
2.47798
2.46412
2.4633
2.46644
2.47589
2.45718
2.45712
2.49816
2.49777
2.4893
2.5003
2.48931
2.48659
2.48191
2.48064
2.50793
2.47003
2.50504
2.49585
2.5017
2.4927
2.50107
2.44669
2.45
2.44153
2.44051
2.44715
2.43841
2.50601
2.47935
2.50093
2.46227
2.49454
2.47607
2.50465
2.50098
2.50455
2.5044
2.49082
2.5006
2.50184
2.5042
2.43651
2.43349
2.44077
2.43481
2.4351
2.48747
2.45351
2.49477
2.45808
2.49486
2.45038
2.48596
2.49877
2.48794
2.4959
2.49271
2.49901
2.48623
2.4962
2.43186
2.43595
2.4197
2.42827
2.42055
2.43387
2.42299
2.42763
2.41479
2.42997
2.43203
2.43968
2.39024
2.42696
2.42946
2.43398
2.48269
2.41926
2.48002
2.49522
2.48247
2.49489
2.42179
2.41978
2.4161
2.4209
2.41767
2.41853
2.4221
2.42876
2.42943
2.42024
2.42455
2.42831
2.42182
2.48235
2.47189
2.50914
2.49438
2.50364
2.49704
2.48394
2.49297
2.50924
2.50493
2.50233
2.49756
2.49458
2.49566
2.48524
2.44254
2.43431
2.46913
2.44707
2.44813
2.44992
2.45993
2.43774
2.43917
2.48229
2.47432
2.4721
2.48279
2.47467
2.46253
2.46048
2.46075
2.50081
2.44053
2.49249
2.49218
2.50065
2.49304
2.50144
2.43311
2.44255
2.43518
2.42531
2.43634
2.43123
2.49828
2.47314
2.50358
2.4644
2.49631
2.46807
2.50027
2.50067
2.49945
2.5026
2.49446
2.50121
2.50037
2.50342
2.43366
2.43561
2.4357
2.43272
2.43641
2.49689
2.45532
2.49469
2.46354
2.49707
2.45686
2.49562
2.4988
2.4869
2.49692
2.49535
2.50004
2.48886
2.49826
2.43915
2.44152
2.42456
2.43223
2.41935
2.44129
2.42594
2.43555
2.42502
2.43515
2.44199
2.44274
2.41672
2.43853
2.44449
2.44524
2.48348
2.41772
2.48251
2.4951
2.48544
2.49694
2.42644
2.43204
2.42577
2.42857
2.43322
2.43222
2.4346
2.42875
2.43275
2.43032
2.43381
2.43839
2.43536
2.46181
2.45447
2.48598
2.47327
2.48194
2.47553
2.46414
2.47194
2.48672
2.48423
2.48026
2.47768
2.47541
2.47424
2.46541
2.42778
2.42421
2.45121
2.43096
2.43158
2.43894
2.44492
2.42671
2.42795
2.4669
2.44915
2.44706
2.46637
2.46118
2.43945
2.43952
2.44033
2.43959
2.4195
2.43319
2.42826
2.41736
2.43335
2.42789
2.4999
2.464
2.49873
2.45053
2.48484
2.45841
2.48661
2.50336
2.50522
2.5049
2.50186
2.50208
2.50792
2.50541
2.43244
2.43766
2.43577
2.43443
2.4404
2.50218
2.45706
2.50098
2.46567
2.49247
2.45287
2.4848
2.50286
2.49211
2.50067
2.50762
2.50381
2.49878
2.50089
2.44409
2.44712
2.4317
2.44042
2.43247
2.44688
2.4396
2.44441
2.43942
2.4409
2.45168
2.45172
2.44082
2.44806
2.45681
2.45852
2.442
2.43969
2.44636
2.4412
2.4424
2.45268
2.44889
2.44886
2.44169
2.44597
2.4473
2.44877
2.45267
2.44986
2.44993
2.44762
2.4677
2.45855
2.46488
2.46278
2.4553
2.46059
2.47097
2.46854
2.46798
2.46694
2.46429
2.45964
2.45595
2.42417
2.42717
2.44182
2.42457
2.43025
2.43721
2.44118
2.42349
2.43339
2.45621
2.43169
2.43583
2.45544
2.45258
2.42743
2.43144
2.44028
2.44246
2.42041
2.43747
2.43131
2.4281
2.44331
2.43732
2.45268
2.48853
2.45218
2.4478
2.4025
2.43909
2.44474
2.44395
2.44434
2.44932
2.4989
2.44289
2.46031
2.41423
2.4507
2.45094
2.45544
2.44738
2.44746
2.44604
2.45294
2.45216
2.44917
2.45141
2.4542
2.46119
2.46265
2.45629
2.45808
2.46464
2.46548
2.45581
2.45296
2.45724
2.456
2.45569
2.46716
2.46145
2.46209
2.45574
2.45818
2.46196
2.46192
2.46239
2.46122
2.44752
2.44978
2.46041
2.45495
2.45858
2.46085
2.45673
2.45877
2.46539
2.46289
2.46555
2.46552
2.46386
2.4555
2.45804
2.43324
2.44166
2.44352
2.42575
2.43498
2.44555
2.4481
2.432
2.43526
2.45268
2.4279
2.43289
2.45431
2.45702
2.43441
2.44171
2.44357
2.44956
2.43818
2.45013
2.44493
2.44861
2.45721
2.45313
2.45672
2.45465
2.46333
2.46313
2.4642
2.44822
2.45303
2.4512
2.45152
2.4561
2.46176
2.459
2.47004
2.4686
2.46516
2.45921
2.46059
2.45565
2.44859
2.45519
2.45453
2.45731
2.44725
2.4553
2.46021
2.46716
2.46683
2.46031
2.46138
2.46823
2.46726
2.46235
2.45945
2.46066
2.46471
2.46716
2.47188
2.46613
2.4693
2.46725
2.46688
2.4696
2.46975
2.46926
2.46691
2.45443
2.46048
2.4631
2.46044
2.46163
2.46606
2.46499
2.46525
2.46696
2.46662
2.46916
2.46966
2.47036
2.46274
2.46824
2.45126
2.46126
2.45452
2.44124
2.43761
2.46141
2.46173
2.45294
2.44385
2.46464
2.44705
2.45632
2.46413
2.4723
2.45991
2.47115
2.45898
2.46891
2.45865
2.464
2.46152
2.46773
2.4711
2.46957
2.47036
2.47044
2.4742
2.47472
2.47474
2.45645
2.4589
2.46718
2.46436
2.46332
2.47115
2.46962
2.47331
2.47266
2.47237
2.46096
2.46332
2.45771
2.44968
2.4557
2.45397
2.45858
2.45861
2.46042
2.46131
2.46819
2.46718
2.46189
2.4617
2.46712
2.46687
2.46497
2.46155
2.4636
2.46587
2.47007
2.46977
2.46547
2.46953
2.46947
2.46923
2.46989
2.46962
2.46864
2.46809
2.46745
2.47398
2.46981
2.46996
2.46982
2.47381
2.47467
2.47445
2.47306
2.47425
2.47508
2.47642
2.47748
2.47381
2.47844
2.4709
2.47984
2.46912
2.46496
2.45499
2.47544
2.47559
2.47514
2.46792
2.47857
2.47249
2.4833
2.47455
2.48176
2.48118
2.4905
2.47679
2.48258
2.4753
2.47939
2.47713
2.48056
2.48709
2.48386
2.47652
2.47762
2.48006
2.47782
2.47875
2.47352
2.46819
2.48473
2.48132
2.47465
2.47227
2.47233
2.47263
2.47148
2.47201
2.46672
2.47541
2.45907
2.46563
2.46757
2.46928
2.46289
2.46894
2.47276
2.46333
2.46679
2.46737
2.46701
2.46524
2.46696
2.46794
2.46653
2.46631
2.46884
2.46483
2.46934
2.46787
2.46543
2.46902
2.46937
2.46763
2.46769
2.46882
2.4667
2.46885
2.47921
2.48256
2.47742
2.47862
2.47832
2.48038
2.48148
2.48102
2.47933
2.47944
2.48009
2.48142
2.47997
2.48199
2.48428
2.4873
2.4929
2.48045
2.48244
2.47938
2.48343
2.48345
2.48699
2.48706
2.48196
2.48615
2.49095
2.4811
2.48115
2.48839
2.48783
2.48469
2.48445
2.48405
2.49369
2.49086
2.48893
2.49906
2.50132
2.47789
2.47905
2.47887
2.47686
2.47871
2.48707
2.47673
2.49394
2.4924
2.48273
2.47108
2.47127
2.47178
2.47096
2.47099
2.48059
2.47867
2.46506
2.47434
2.47661
2.48095
2.46599
2.48007
2.48032
2.4676
2.46741
2.46917
2.47325
2.47004
2.46854
2.47071
2.47011
2.4714
2.47411
2.4665
2.46974
2.46981
2.46843
2.47112
2.46871
2.46679
2.46863
2.46964
2.4679
2.4705
2.48439
2.48504
2.4823
2.48304
2.48247
2.4831
2.48358
2.48292
2.48266
2.47927
2.4824
2.48327
2.47814
2.48549
2.48639
2.49626
2.49596
2.48478
2.48922
2.49017
2.48659
2.48509
2.48986
2.4903
2.47984
2.48866
2.48283
2.48361
2.47943
2.49176
2.4799
2.48296
2.48147
2.49463
2.50199
2.50853
2.49956
2.50345
2.50649
2.47547
2.47695
2.47661
2.47434
2.47559
2.49822
2.49223
2.50385
2.50527
2.49865
2.47124
2.47115
2.47196
2.47122
2.47096
2.48219
2.48649
2.46673
2.48326
2.48234
2.47884
2.47021
2.48503
2.4848
2.47178
2.47016
2.47299
2.47549
2.47358
2.47251
2.47577
2.47297
2.47674
2.47949
2.47127
2.47326
2.475
2.4735
2.47539
2.47152
2.47032
2.4723
2.47412
2.47257
2.47483
2.4848
2.48385
2.48319
2.48331
2.4827
2.48235
2.48232
2.48178
2.48335
2.4771
2.48293
2.48315
2.477
2.48759
2.48815
2.49449
2.49267
2.48497
2.49014
2.48845
2.48774
2.48423
2.49082
2.48589
2.47852
2.49314
2.47689
2.48069
2.47793
2.49291
2.47524
2.48005
2.47876
2.49942
2.50268
2.50374
2.49542
2.50002
2.49944
2.47336
2.47422
2.47504
2.47279
2.4734
2.50933
2.50065
2.50539
2.50584
2.49863
2.47078
2.47039
2.47103
2.47028
2.47013
2.49027
2.49133
2.4752
2.48643
2.48568
2.48327
2.48124
2.48792
2.48643
2.47589
2.47592
2.47891
2.47786
2.47786
2.47872
2.48154
2.477
2.48169
2.4835
2.47567
2.47692
2.47896
2.47674
2.47817
2.47777
2.47551
2.47618
2.4805
2.47756
2.48039
2.48214
2.47967
2.48069
2.48075
2.4801
2.47853
2.4787
2.47783
2.48232
2.47794
2.48044
2.48074
2.47913
2.48719
2.48363
2.49027
2.48649
2.48256
2.48993
2.48281
2.48389
2.48001
2.48696
2.47869
2.47747
2.49049
2.47507
2.4783
2.47686
2.48626
2.47512
2.47799
2.47739
2.4914
2.49509
2.49343
2.48684
2.4888
2.48697
2.47284
2.47318
2.47544
2.47283
2.47299
2.4993
2.49333
2.49288
2.49106
2.48605
2.47009
2.47064
2.47048
2.47009
2.47108
2.4905
2.48822
2.4861
2.48859
2.48555
2.49091
2.48927
2.48748
2.48362
2.47923
2.4819
2.48297
2.47853
2.48015
2.48376
2.48291
2.47966
2.48426
2.48393
2.47743
2.47879
2.48067
2.47795
2.47911
2.4834
2.47919
2.47912
2.48547
2.48026
2.48265
2.47669
2.4738
2.47634
2.4766
2.47541
2.47448
2.47468
2.47338
2.47846
2.47927
2.47556
2.47553
2.47807
2.47991
2.47757
2.4812
2.47569
2.47697
2.48212
2.47304
2.47669
2.47383
2.47638
2.46654
2.47623
2.48185
2.47606
2.47425
2.47596
2.47735
2.47665
2.47713
2.47703
2.48222
2.48194
2.48035
2.47747
2.47446
2.47347
2.47305
2.47314
2.47626
2.47304
2.47318
2.48201
2.47932
2.47498
2.47294
2.47356
2.47088
2.47171
2.47066
2.4716
2.47239
2.48452
2.47934
2.48746
2.48373
2.48043
2.48303
2.48477
2.479
2.47691
2.47986
2.48425
2.48103
2.47728
2.48005
2.48315
2.47773
2.48002
2.48256
2.48048
2.47786
2.4787
2.48014
2.47756
2.47815
2.48501
2.48074
2.48019
2.48321
2.48052
2.481
2.47152
2.47026
2.47361
2.4733
2.47209
2.47396
2.47251
2.47177
2.47322
2.47584
2.47222
2.47187
2.47397
2.47578
2.47494
2.47072
2.4669
2.471
2.47102
2.46079
2.47043
2.46883
2.46688
2.45697
2.47664
2.47498
2.47756
2.47503
2.4773
2.47349
2.47803
2.47713
2.47714
2.47226
2.46726
2.46681
2.46729
2.46088
2.46121
2.47303
2.47343
2.47693
2.4731
2.47381
2.4648
2.46817
2.45973
2.4583
2.46325
2.47307
2.47338
2.47236
2.47487
2.47495
2.47383
2.46886
2.48206
2.47441
2.47385
2.47183
2.47774
2.47041
2.47085
2.47988
2.48027
2.47625
2.47532
2.47947
2.47696
2.47657
2.47948
2.47795
2.47549
2.47638
2.47716
2.47723
2.47539
2.47616
2.47991
2.47972
2.47748
2.47699
2.47858
2.47809
2.47031
2.47154
2.47533
2.47238
2.47256
2.47724
2.47313
2.47435
2.47172
2.47275
2.47301
2.47249
2.47244
2.47443
2.47433
2.46477
2.46467
2.46798
2.4644
2.45686
2.46967
2.46882
2.46402
2.46024
2.47743
2.47237
2.478
2.47472
2.47722
2.47106
2.47792
2.47695
2.4768
2.46424
2.45648
2.45757
2.46327
2.45516
2.4566
2.47333
2.47456
2.47734
2.47425
2.47585
2.45465
2.45915
2.45478
2.45408
2.45668
2.47726
2.47687
2.47601
2.47995
2.47932
2.46525
2.46288
2.47242
2.46779
2.46958
2.4649
2.46703
2.46609
2.46846
2.48016
2.47402
2.47844
2.47876
2.48178
2.47522
2.48101
2.48206
2.47351
2.47228
2.47447
2.4755
2.47632
2.47441
2.47559
2.47458
2.47774
2.4752
2.47438
2.47777
2.47784
2.47411
2.47771
2.47937
2.47471