/*--------------------------------*- C++ -*----------------------------------*\
| =========                 |                                                 |
| \\      /  F ield         | OpenFOAM: The Open Source CFD Toolbox           |
|  \\    /   O peration     | Version:  5.x                                   |
|   \\  /    A nd           | Web:      www.OpenFOAM.org                      |
|    \\/     M anipulation  |                                                 |
\*---------------------------------------------------------------------------*/
FoamFile
{
    version     2.0;
    format      ascii;
    class       surfaceScalarField;
    location    "6";
    object      phi;
}
// * * * * * * * * * * * * * * * * * * * * * * * * * * * * * * * * * * * * * //

dimensions      [0 3 -1 0 0 0 0];

internalField   nonuniform List<scalar> 
29271
(
-3.75302e-06
-1.24522e-07
6.70645e-07
3.04344e-06
-4.24996e-06
3.90334e-07
2.19574e-07
3.66843e-06
-1.02828e-05
-4.81696e-07
-7.88466e-07
5.67837e-07
4.77096e-07
1.0508e-05
-9.79785e-06
-4.28262e-07
2.30028e-08
-3.53839e-07
4.80719e-07
1.00762e-05
-9.75128e-06
-6.18309e-08
-6.48798e-07
1.09086e-06
8.59202e-06
7.79022e-07
-1.04196e-05
-1.27728e-07
-9.78146e-07
1.6524e-06
-5.56181e-07
1.04292e-05
-1.184e-05
9.57328e-07
-1.00391e-06
1.83022e-06
-2.92913e-06
1.29855e-05
-1.11044e-05
-1.63518e-08
-2.26928e-06
1.38305e-06
-5.39817e-07
1.25468e-05
-1.34994e-05
-2.129e-06
-1.76203e-08
-1.4647e-06
1.08004e-06
1.60307e-05
-8.0842e-06
-6.40061e-07
1.50369e-07
7.007e-06
1.58705e-06
-3.64469e-06
8.57095e-07
-1.06269e-06
3.72867e-06
-1.02775e-05
-3.91943e-07
1.45144e-06
6.45679e-07
-1.59798e-06
1.01703e-05
-1.15415e-05
4.36638e-06
-1.05016e-06
2.36855e-06
-4.329e-06
1.01857e-05
-9.69058e-06
2.35913e-06
-3.21307e-06
4.44694e-06
-2.04839e-06
8.14597e-06
-1.02749e-05
1.65018e-06
-4.1417e-06
-2.35528e-07
-1.37344e-06
1.43754e-05
-1.02522e-05
5.54354e-09
-7.33683e-07
5.93605e-08
8.59213e-06
2.32882e-06
-9.82077e-06
-1.35305e-07
1.16968e-06
-1.38143e-07
8.12225e-06
8.02272e-07
-1.1746e-05
-2.03361e-06
2.26334e-06
4.17559e-06
-8.53996e-07
8.19469e-06
-9.71578e-06
1.98957e-06
-4.69449e-06
5.71865e-06
-6.17104e-07
7.31916e-06
-1.03387e-05
-6.19583e-07
-7.90239e-07
1.4828e-05
9.10801e-07
-3.99022e-06
-3.43695e-06
3.44666e-07
5.56143e-07
2.54212e-06
-8.53073e-06
-5.37987e-07
1.11976e-06
8.97433e-06
-1.02371e-06
-9.74358e-06
-7.48459e-07
2.85635e-07
-5.16999e-07
1.17724e-05
-1.04905e-06
-3.14979e-06
1.43599e-07
2.86047e-07
2.72718e-06
-4.7162e-06
-1.56716e-06
-2.13427e-06
8.42271e-06
-3.10461e-06
4.30345e-07
-6.96701e-07
3.36481e-06
1.62871e-06
-7.63512e-07
-1.22879e-05
1.70333e-06
-1.13211e-06
1.08515e-05
1.60596e-06
-1.46057e-05
-1.95912e-06
2.09813e-06
-1.32499e-06
1.41857e-05
-8.33869e-06
-2.05725e-07
1.29972e-06
-1.2776e-06
1.07237e-05
-2.20141e-06
1.16438e-06
-3.48329e-07
-1.01579e-05
1.20509e-06
-1.24037e-06
9.37715e-06
-7.24485e-07
2.87927e-06
3.09517e-05
-7.79734e-06
-5.90778e-06
-6.30898e-06
-7.27537e-06
-1.10385e-07
-2.90641e-08
-8.62466e-07
-7.3123e-07
-1.39835e-06
-1.23631e-06
-6.59156e-07
-7.90056e-07
-2.8771e-07
4.28965e-06
3.25957e-05
-8.73129e-06
-9.83663e-06
-1.14513e-05
-1.51205e-05
2.09369e-06
3.23373e-06
6.6741e-07
1.82272e-06
2.92724e-06
8.09839e-07
3.5174e-05
3.18039e-06
2.06706e-06
1.4638e-06
5.16184e-07
3.6833e-06
1.11759e-06
1.1107e-06
-1.11299e-05
-1.2099e-05
-1.40254e-05
-1.50835e-05
-1.04392e-05
9.76218e-08
1.39148e-06
1.18585e-05
-4.28559e-06
3.90422e-09
4.71591e-07
3.8357e-06
-2.01049e-07
-1.00507e-05
1.38526e-07
2.01135e-06
1.54636e-07
7.94729e-06
5.35772e-07
1.35612e-06
3.41961e-05
-6.45575e-06
-6.17338e-06
-5.67539e-06
-6.44263e-06
-3.87242e-06
-2.25963e-06
-1.34975e-06
-9.79803e-07
-3.83186e-06
-5.65168e-07
3.51793e-05
-7.13281e-06
-5.85476e-06
-6.98077e-06
-5.9885e-06
2.12782e-06
6.61902e-07
3.43925e-05
1.97619e-06
5.39362e-07
5.02735e-07
1.90954e-06
2.36363e-07
4.68191e-07
-1.1539e-05
-1.11152e-05
-1.05387e-05
-1.26438e-05
-1.26197e-05
-1.58191e-06
2.20234e-06
3.01203e-07
1.38259e-05
-7.77661e-06
-1.02876e-07
7.26998e-07
2.62149e-07
7.19801e-06
-3.07669e-07
-1.5235e-06
-2.37212e-06
3.83618e-05
-2.31591e-06
-1.45612e-06
-9.07781e-07
-6.82447e-07
-3.24521e-06
-8.17516e-07
-1.39849e-06
-5.55987e-06
-5.49735e-06
-5.57525e-06
-5.65409e-06
-3.0357e-06
-2.93954e-06
4.11196e-05
-3.35692e-06
-9.36108e-07
-1.15219e-06
-4.14796e-06
-1.2347e-06
-1.16947e-06
-6.08907e-06
-5.7656e-06
-6.88497e-06
-6.49608e-06
-1.52269e-05
9.91702e-07
2.64557e-06
9.2158e-06
-3.24021e-06
-2.20027e-07
-1.57983e-06
5.01027e-06
-8.15959e-06
-5.15999e-07
-1.8882e-07
6.58516e-06
-1.33267e-05
-1.89855e-07
2.53859e-06
-2.37079e-06
1.04092e-05
-3.85669e-06
-4.61486e-07
-6.80426e-07
5.00319e-06
-7.0655e-06
9.41608e-08
1.82192e-06
5.20266e-06
-4.54039e-06
-1.17388e-06
-2.51883e-07
5.94585e-06
-2.31026e-07
5.49447e-07
-9.90757e-06
-2.45217e-07
7.01011e-07
9.13336e-06
-8.95377e-07
-1.47469e-05
7.28909e-08
2.05236e-07
1.77588e-06
1.35882e-05
-1.14587e-05
3.2521e-08
7.67632e-07
8.26258e-07
1.02854e-05
-4.53057e-07
3.33699e-07
6.77024e-07
-8.59781e-06
-4.0648e-08
2.71768e-09
7.62502e-06
3.96878e-07
1.99535e-06
4.17343e-05
-2.72745e-06
-3.94575e-06
-9.30659e-07
-1.142e-06
-1.52892e-06
-1.74967e-06
-5.16671e-07
-6.33666e-07
-9.31442e-07
2.23157e-06
4.5399e-05
-4.91306e-06
-6.01437e-06
-1.35269e-06
-1.42639e-06
-1.65749e-06
7.98303e-07
4.41746e-05
-3.52e-06
-1.44705e-06
-6.87565e-07
-4.9872e-07
-1.56248e-06
-6.03513e-07
-7.53502e-07
-1.2624e-05
-1.98523e-07
-3.21902e-07
1.15616e-05
-3.37149e-06
-1.10052e-07
-3.6482e-07
3.84587e-06
1.23968e-07
-7.10066e-06
-4.74679e-07
6.40419e-07
7.96088e-07
6.01486e-06
9.60257e-07
2.53896e-08
3.86806e-05
-1.10677e-06
-7.98724e-07
-8.06884e-07
-7.62419e-07
-1.91488e-06
-3.7018e-07
4.06562e-05
-1.51522e-06
-4.60208e-08
3.80367e-05
-1.23927e-06
-1.21497e-06
-9.83061e-07
-5.73572e-09
2.04344e-07
3.91457e-08
-1.4053e-05
-2.47475e-07
-1.66485e-06
1.20491e-06
1.32452e-05
-6.88129e-06
-4.19403e-08
2.268e-07
4.62897e-07
6.94197e-06
-7.08435e-07
-4.27843e-07
3.88807e-07
3.57887e-05
-7.01808e-08
1.15059e-07
-4.72196e-07
-8.99277e-08
2.99531e-07
1.49734e-06
1.35782e-06
-3.54364e-07
1.18444e-07
4.02219e-05
-1.86426e-07
-3.80595e-07
-1.68562e-07
1.30926e-07
4.97625e-07
4.42642e-07
-8.37541e-06
-4.7848e-07
3.32795e-08
8.42022e-06
-6.31108e-06
-6.73621e-07
2.23717e-07
6.77793e-06
-6.32845e-06
3.84528e-08
-1.61787e-07
6.84413e-06
-1.10353e-05
1.91143e-07
-2.22154e-07
-6.59024e-08
1.12506e-05
-5.64534e-06
-1.82855e-07
6.80156e-08
5.77244e-06
-5.32577e-06
9.30435e-08
-1.35691e-06
6.58388e-06
-6.16669e-06
1.0196e-06
2.0387e-07
4.94322e-06
1.0536e-07
3.10747e-07
-8.94821e-06
-6.92625e-07
6.33713e-07
8.59101e-06
8.2748e-08
-1.25277e-05
2.337e-07
1.52823e-07
5.19491e-07
1.15389e-05
-1.02249e-05
7.67497e-07
1.18842e-06
3.49373e-08
9.05486e-06
-8.20827e-07
-8.42793e-07
-1.86276e-06
-7.56499e-06
2.27246e-06
-3.35028e-07
8.3331e-06
1.26777e-05
6.9653e-07
6.73255e-05
-1.75481e-06
-1.86273e-06
-6.44147e-06
-6.24402e-06
-3.22532e-06
-3.75191e-06
-7.47077e-06
-8.21444e-06
-5.40009e-06
-2.32532e-06
7.8315e-05
-1.33964e-06
-1.19956e-06
-5.30385e-06
-4.66985e-06
-1.2393e-06
-7.41276e-06
7.69943e-05
-1.46771e-06
-2.02918e-06
-6.65125e-06
-7.6424e-06
-3.42464e-07
-5.91512e-06
-5.51958e-06
-1.09364e-05
-1.66568e-06
-3.73871e-07
1.17367e-05
-4.07395e-06
5.22201e-07
-6.19206e-07
4.17096e-06
-4.95504e-07
-5.75547e-06
1.58853e-06
8.28246e-07
-2.6155e-06
6.4497e-06
1.1969e-05
-1.57883e-05
5.97819e-05
-2.44508e-06
-2.75271e-06
-5.64508e-06
-5.74262e-06
1.83344e-07
-1.52912e-05
6.54077e-05
9.79747e-07
-5.6444e-06
6.23623e-05
-4.9262e-07
-2.59649e-06
-4.30358e-06
-3.7141e-06
-8.27821e-06
-7.50535e-06
-1.26404e-05
2.00778e-06
2.90281e-06
-3.45465e-06
1.21642e-05
-6.3648e-06
6.45109e-07
5.74448e-07
-1.86925e-06
3.85156e-06
3.16293e-06
1.73517e-06
-9.89724e-07
3.93242e-05
-2.57668e-06
-2.49549e-06
-4.18442e-06
-3.98949e-06
-1.92654e-06
-1.93691e-06
-2.95968e-06
-1.40288e-06
-2.98129e-06
4.98549e-05
-1.30212e-06
-4.08939e-06
-3.0681e-06
-2.4965e-06
-4.20709e-06
-3.64156e-06
-7.92558e-06
6.45001e-07
-2.8496e-06
3.08289e-06
-7.00165e-06
2.33767e-06
-1.70063e-06
6.36462e-06
-8.6427e-06
-1.44939e-08
1.35664e-06
6.31083e-06
-1.12856e-05
-5.0088e-07
5.71444e-07
-3.6678e-07
8.60052e-06
-6.53354e-06
1.3003e-06
-3.36927e-07
5.57017e-06
-7.48449e-06
-1.08481e-08
4.83493e-07
7.01185e-06
-3.45598e-06
-9.68695e-08
8.86076e-07
2.66677e-06
-5.84502e-07
-1.34804e-07
-6.70053e-06
-3.2613e-07
2.19509e-06
5.55088e-06
-8.71147e-07
-1.00038e-05
4.99359e-07
4.74448e-07
2.3027e-06
7.59847e-06
-4.89666e-06
-9.8144e-07
2.01131e-07
2.3792e-06
4.20184e-06
-9.04075e-07
-1.17026e-06
-6.49385e-07
-6.18631e-06
2.33855e-06
8.96872e-07
4.77053e-06
5.50554e-06
4.82837e-06
7.02962e-05
-3.03415e-06
-3.65464e-06
-6.08208e-07
-8.56522e-07
-2.83133e-06
-2.95178e-06
-8.05725e-08
7.12618e-07
-5.17949e-07
2.5925e-06
8.60539e-05
-2.91051e-06
-2.60005e-06
6.42983e-07
5.59614e-07
-1.85223e-06
-7.41507e-07
7.94198e-05
-2.92409e-06
-1.59976e-06
6.08604e-07
1.00307e-06
-2.08569e-06
2.01899e-06
2.6292e-06
-8.97526e-06
-2.15997e-06
7.11746e-07
8.57125e-06
-3.87804e-06
-3.07415e-07
8.11774e-07
3.37368e-06
-1.28279e-06
-4.56905e-06
-6.7584e-07
2.23772e-06
6.25242e-07
3.66473e-06
6.39341e-06
-5.14077e-06
6.55714e-05
-2.19766e-06
-1.57452e-06
5.38267e-07
1.02021e-06
2.30204e-06
-4.69805e-06
7.67896e-05
-1.32959e-06
-3.26786e-07
6.24509e-05
-1.51429e-06
2.11713e-06
1.73859e-06
-7.45898e-07
1.00892e-06
5.23889e-07
-7.73643e-06
8.45506e-07
1.28466e-07
-7.84684e-07
6.21755e-06
-2.27014e-06
-7.08357e-07
1.23402e-06
-2.02856e-07
2.33267e-06
-3.8534e-07
-9.14527e-07
-8.56564e-07
4.03509e-05
-1.39515e-06
-8.68261e-08
-5.01884e-07
5.8826e-07
-1.74606e-06
-1.10464e-07
-1.14425e-06
2.21019e-08
-1.7133e-06
4.92544e-05
-1.35416e-06
5.80831e-07
1.71419e-07
-2.03152e-06
-7.28117e-07
4.0659e-08
2.03021e-06
-5.64738e-07
-1.25488e-06
-5.1528e-07
-5.11834e-06
9.90366e-07
8.68429e-08
4.04113e-06
-3.88848e-06
2.55038e-07
7.28195e-08
2.70406e-06
-5.99903e-06
-1.15618e-07
2.0391e-07
-8.19998e-07
5.01743e-06
-4.16367e-06
1.12707e-06
2.13411e-07
2.82319e-06
-6.68759e-06
5.17393e-08
1.97278e-07
6.43858e-06
-2.07452e-06
-8.99008e-07
1.07993e-06
1.8936e-06
-8.72579e-07
9.13274e-07
-5.84014e-06
-9.46258e-07
7.39172e-07
6.00653e-06
-9.34586e-07
-7.77929e-06
8.69284e-07
-9.899e-09
7.41477e-08
7.78034e-06
-4.64162e-06
-1.19391e-06
1.4541e-06
-3.45967e-08
5.20509e-06
-7.89078e-07
-1.30715e-06
-1.90072e-07
-4.98309e-06
1.1491e-07
1.37586e-06
4.98954e-06
3.75396e-06
4.39456e-06
6.98924e-05
-1.14746e-06
-1.67552e-06
-1.77649e-06
-2.03093e-06
-2.50123e-07
-3.41229e-08
-4.3359e-07
-3.96516e-07
-3.35538e-07
3.01586e-06
8.64525e-05
1.2391e-07
1.93986e-08
2.59675e-07
2.72073e-07
1.52042e-06
1.16749e-07
7.76756e-05
4.97295e-10
-5.15378e-07
-4.19711e-07
-1.46906e-06
1.16189e-06
6.04287e-07
4.08922e-07
-9.59498e-06
-1.94593e-06
3.28751e-06
1.83921e-06
7.93462e-06
-2.02849e-08
-5.23221e-07
7.37495e-07
-1.93987e-07
-2.99448e-06
-5.12877e-07
1.45277e-06
2.05459e-06
-1.1847e-06
-4.17934e-06
-1.43679e-06
3.3742e-07
1.72466e-06
4.73875e-06
4.85616e-06
-4.21727e-06
6.86736e-05
9.80966e-08
4.79169e-07
-1.75065e-07
2.51237e-07
3.1058e-06
-2.11992e-06
8.36757e-05
7.053e-07
2.24082e-08
6.36876e-05
1.22869e-06
1.66913e-07
3.77079e-07
-1.12733e-07
-6.93034e-09
-3.94835e-07
-7.04317e-06
-4.95186e-07
2.78478e-06
-6.495e-07
6.10838e-06
2.20817e-08
-2.42088e-06
-7.06036e-07
-6.81483e-07
3.78632e-06
-2.69909e-06
-9.94879e-07
9.31699e-07
5.91121e-07
3.68155e-06
-1.5104e-06
-1.04657e-06
-4.14543e-07
4.28724e-05
-9.92549e-07
-1.73274e-07
-1.08371e-06
-3.18335e-07
-1.153e-06
-5.29658e-07
-1.02709e-06
-5.8325e-07
-3.65525e-07
4.92793e-05
-6.76456e-07
-5.99899e-07
-1.35196e-06
2.81425e-07
-1.58918e-07
2.63242e-07
-1.96048e-06
-8.53878e-07
-3.95929e-07
2.64945e-06
-2.72577e-06
1.20817e-06
2.83765e-07
1.23383e-06
-2.33859e-06
6.02478e-07
-1.14882e-06
2.47039e-06
-5.41716e-06
9.26251e-07
-1.08072e-06
-7.52077e-07
5.95818e-06
-1.54133e-06
3.01125e-07
4.1254e-07
8.27667e-07
-5.55788e-06
3.46241e-07
9.66641e-07
4.245e-06
-1.72405e-06
-2.05798e-06
2.26108e-06
1.52096e-06
-1.21156e-06
1.57236e-06
-5.70252e-06
-1.20997e-06
1.67937e-06
4.87232e-06
-1.18838e-06
-7.76011e-06
1.03691e-06
-2.17183e-07
5.30853e-07
7.59792e-06
-4.832e-06
-1.18481e-06
1.56341e-06
1.4386e-06
3.76451e-06
-7.49709e-07
-2.43845e-06
8.16208e-07
-4.7479e-06
-5.44341e-07
2.36601e-06
4.54848e-06
2.62858e-06
5.5711e-06
7.06344e-05
-2.04287e-06
-2.24224e-06
-2.41433e-06
-2.23431e-06
-4.68389e-08
-3.3933e-07
3.59128e-07
1.90801e-08
-1.22723e-06
4.93734e-06
8.7031e-05
-3.24508e-07
-2.59005e-07
-4.30513e-07
-6.46009e-07
1.44184e-07
2.47536e-06
7.91401e-05
-1.59456e-06
-1.26723e-06
-1.6304e-06
-9.64152e-07
1.97934e-07
-2.56285e-07
2.03433e-07
-8.14834e-06
-1.49158e-07
8.81948e-07
1.59706e-06
5.96267e-06
-4.77303e-07
-5.72606e-08
8.32715e-08
-4.28117e-07
-5.00026e-07
1.37944e-06
-1.43141e-06
-1.01106e-06
1.17977e-06
1.26271e-06
-8.63133e-07
-5.01061e-06
-1.87317e-06
6.86975e-07
1.74703e-06
5.31291e-06
2.84041e-06
-1.54087e-06
7.31916e-05
-3.33587e-07
-4.20129e-09
-1.03977e-07
1.95363e-07
1.14717e-06
6.26328e-07
8.968e-05
2.62317e-07
2.29685e-07
6.55841e-05
6.4119e-08
3.5583e-07
-1.58555e-07
2.88586e-07
4.4445e-07
2.3958e-07
-7.12551e-06
-8.02677e-07
5.05878e-07
-3.25898e-08
7.71721e-06
-4.07345e-06
1.07907e-08
-6.64355e-07
9.07176e-08
5.05516e-07
4.13078e-06
-4.2146e-06
-8.61255e-07
9.91187e-07
5.05859e-07
4.74801e-06
-1.16919e-06
-9.53371e-07
-1.77565e-07
4.54787e-05
-9.384e-07
-9.3395e-08
-7.25638e-07
-5.22241e-08
-5.23159e-07
-2.47146e-07
-4.36249e-07
-6.9986e-07
3.97122e-07
5.04945e-05
-1.23342e-06
-5.12249e-07
-1.21525e-06
6.03129e-07
5.13878e-07
6.04349e-07
-3.12624e-06
-8.9565e-07
2.03489e-07
3.34822e-06
-6.4225e-07
-1.25224e-06
1.59987e-06
-9.68967e-07
1.26359e-06
-1.26546e-07
7.92474e-07
-4.21389e-07
-2.44538e-07
-2.53712e-06
8.11156e-07
-1.34381e-06
2.89221e-06
-5.92029e-06
1.28495e-06
-1.68089e-06
7.42434e-07
5.97092e-06
-1.9337e-07
-3.79362e-07
6.38418e-07
-6.56855e-08
-3.21571e-06
2.2651e-07
4.43451e-07
2.54575e-06
-1.13308e-06
-9.09779e-07
1.43276e-06
6.101e-07
-1.23621e-06
8.85694e-07
-3.63526e-06
-7.51491e-07
2.33212e-06
2.40515e-06
-1.08569e-06
-7.10126e-06
4.17494e-07
3.51912e-07
1.2351e-06
6.18245e-06
-3.09772e-06
-4.32722e-07
-1.8544e-07
1.24129e-06
3.01669e-06
-5.42093e-07
-2.1231e-06
9.08903e-07
-4.5959e-06
-9.96664e-07
2.19526e-06
4.6115e-06
3.56428e-07
5.66984e-06
7.17924e-05
-2.47036e-06
-2.59885e-06
-2.32899e-06
-2.3949e-06
7.8514e-07
2.78411e-07
8.50827e-07
6.94478e-07
-1.50088e-06
5.92361e-06
8.76427e-05
-1.16403e-06
-1.38046e-06
-9.86788e-07
-1.14672e-06
-2.46854e-07
3.80918e-06
7.8231e-05
-1.51935e-06
-5.67622e-07
-8.97783e-07
-3.57916e-07
-2.18321e-08
-5.40287e-07
-2.49296e-07
-5.5861e-06
2.33332e-07
-3.32132e-07
4.66975e-08
5.39134e-06
-1.69167e-06
6.62404e-07
1.28064e-07
9.03579e-08
-7.03749e-07
1.51459e-06
-1.28202e-06
-9.97043e-07
9.22725e-07
1.35633e-06
-4.1706e-07
-5.71229e-06
-1.52656e-06
1.63971e-07
9.90377e-07
6.50156e-06
-2.53482e-07
1.33245e-06
7.52258e-05
2.80293e-07
4.09375e-07
9.42301e-07
9.24665e-07
6.22494e-07
3.59269e-06
9.11349e-05
5.73588e-07
6.0995e-07
6.65119e-05
4.63539e-09
5.24232e-07
-3.30652e-07
6.40134e-07
8.66696e-07
6.15276e-07
-7.73328e-06
-2.47936e-08
5.13535e-07
3.96443e-07
7.42168e-06
-4.08574e-06
5.89346e-08
-5.92149e-07
6.69384e-08
6.63972e-07
3.88805e-06
-5.09167e-06
-3.75965e-07
2.05865e-07
-1.59241e-07
5.65087e-06
-2.29856e-07
-1.57156e-06
2.04612e-07
4.64043e-05
-1.05768e-07
5.16525e-07
3.28049e-07
5.95177e-07
1.5874e-07
1.07346e-07
1.73709e-07
-5.59058e-07
1.05711e-06
5.09822e-05
-9.47249e-07
-4.02222e-07
-9.14654e-07
1.07508e-06
1.17616e-06
1.04825e-06
-3.78592e-06
-1.23407e-06
6.80815e-07
4.39006e-06
-1.3299e-06
-7.95684e-07
2.92382e-06
-1.96694e-06
1.16871e-06
5.05011e-07
-7.79061e-07
1.04804e-06
-2.95505e-07
-4.78484e-07
-3.06969e-06
1.01858e-06
-1.23613e-06
3.49186e-06
-5.92725e-06
1.0538e-06
-1.36426e-06
9.99085e-07
6.29573e-06
-3.65657e-08
-8.48427e-07
5.66524e-07
3.18468e-07
-2.04309e-06
7.23461e-08
3.03846e-07
1.6669e-06
-1.99462e-07
1.81768e-07
6.79106e-08
-5.02166e-08
-6.70438e-07
-1.1873e-07
-1.45986e-06
-9.12039e-08
1.54625e-06
7.93976e-07
-9.26944e-07
-5.26457e-06
1.98433e-07
1.28189e-07
1.39034e-06
4.47456e-06
-3.37978e-06
1.86889e-07
-1.06358e-06
2.68527e-07
3.78166e-06
2.06283e-07
-1.03803e-06
5.411e-07
-4.63241e-06
-8.6348e-07
1.28685e-06
4.70597e-06
-3.02377e-06
3.84009e-06
7.29365e-05
-1.68427e-06
-2.23748e-06
-1.32904e-06
-1.87552e-06
1.34906e-06
1.00697e-06
1.37624e-06
1.43365e-06
-1.5758e-06
4.92171e-06
8.56843e-05
-1.32627e-06
-1.25869e-06
-1.02193e-06
-8.04378e-07
-6.08816e-07
2.55818e-06
7.78186e-05
-4.1371e-07
2.26906e-07
-9.58492e-08
1.2839e-07
-4.9175e-07
-1.52586e-06
-9.4089e-07
-6.81662e-06
2.23457e-06
-9.4841e-07
-9.96659e-07
5.91831e-06
-2.24525e-07
2.58065e-07
5.74335e-07
-6.34012e-07
2.6141e-08
-1.44379e-06
-7.0878e-07
5.72948e-07
1.57962e-06
1.97529e-07
-7.56174e-06
-3.9274e-07
-6.32095e-07
-2.99527e-07
8.68857e-06
-2.78912e-06
2.45285e-06
7.38613e-05
1.18395e-06
1.01113e-06
1.78751e-06
1.55825e-06
1.99424e-07
5.10212e-06
8.7966e-05
1.26421e-07
6.95779e-07
6.77295e-05
-3.39027e-07
-4.50953e-07
-1.20526e-06
9.43023e-07
9.01049e-07
8.68998e-07
-6.78335e-06
5.17505e-07
-2.12324e-07
6.1253e-07
5.99206e-06
-3.26027e-06
-1.56919e-07
-2.41475e-07
6.71945e-07
9.53898e-07
2.03283e-06
-6.19361e-06
-5.92376e-08
-8.04155e-07
-5.33451e-07
6.99018e-06
6.00278e-07
-3.07185e-06
3.07705e-07
4.64522e-05
9.37793e-07
1.06577e-06
1.39488e-06
1.05984e-06
3.08281e-07
2.64347e-07
1.38126e-07
-5.25232e-07
1.34629e-06
5.05362e-05
-7.56593e-07
-2.64936e-07
-6.67642e-07
1.14698e-06
1.25323e-06
9.44161e-07
-5.29097e-06
-9.04581e-07
5.84475e-07
5.78163e-06
-1.33929e-06
-2.11339e-06
1.89621e-06
1.55648e-06
-3.74387e-06
9.66973e-07
-9.41666e-07
4.02627e-06
-6.68603e-06
7.88764e-07
-7.87403e-07
9.38483e-07
7.09248e-06
-7.32502e-07
-5.75532e-07
1.30531e-07
1.1775e-06
-1.41792e-06
-3.2485e-08
1.91459e-07
1.25894e-06
1.67099e-07
4.75423e-07
-4.82284e-07
-1.60238e-07
-3.77171e-07
-4.94749e-07
-4.12165e-07
3.84706e-07
6.2064e-07
2.7874e-07
-7.43378e-07
-3.95555e-06
-5.7141e-08
-1.24945e-07
1.32296e-06
3.55805e-06
-4.16722e-06
5.19935e-07
-1.25169e-06
-2.41827e-07
4.56291e-06
5.77888e-07
-2.40146e-07
8.45668e-07
-4.80418e-06
-1.26808e-06
4.91529e-07
4.9752e-06
-5.11733e-06
1.17371e-06
7.32367e-05
-5.03207e-07
-1.41072e-06
-1.43533e-07
-9.86685e-07
1.73419e-06
1.37016e-06
1.83443e-06
1.74878e-06
-1.42822e-06
3.21066e-06
8.19335e-05
-1.19899e-06
-7.17904e-07
-9.87135e-07
-2.44932e-07
-1.56771e-06
1.08251e-06
7.77262e-05
1.4616e-07
6.04145e-07
5.59665e-07
7.52225e-07
-1.3206e-06
-1.03907e-06
-5.53152e-07
-5.54136e-06
1.19216e-06
-1.17823e-06
3.95972e-06
-1.79207e-06
-5.00732e-07
2.95799e-07
1.997e-06
6.19084e-07
-9.76999e-06
4.17922e-07
-1.07325e-06
-9.23787e-07
1.073e-05
-4.16009e-06
8.71451e-07
7.15948e-05
1.60783e-06
1.32301e-06
2.05008e-06
1.74792e-06
-3.91683e-07
4.89149e-06
8.25168e-05
-1.17014e-06
5.01666e-07
6.88487e-05
-1.2933e-06
-4.23038e-07
-6.47564e-07
8.76941e-07
7.9186e-07
9.35216e-07
-7.52142e-06
-2.39078e-08
-2.15008e-06
1.40659e-06
7.11868e-06
-7.9072e-06
1.83215e-08
-1.46672e-06
-4.36387e-07
8.89541e-06
8.96574e-07
-4.58865e-06
2.36201e-07
4.55143e-05
1.71135e-06
1.2201e-06
2.09017e-06
9.6423e-07
-1.02131e-07
3.04628e-07
-2.65206e-08
-5.43329e-07
9.17519e-07
5.00291e-05
-5.92078e-07
-2.24245e-07
-4.91203e-07
6.79856e-07
6.45062e-07
4.18453e-07
-6.60581e-06
-6.19547e-07
2.98962e-07
6.88473e-06
-1.69317e-06
-1.09999e-06
1.44748e-06
1.34568e-06
-4.13865e-06
5.92674e-07
-3.23662e-07
4.10583e-06
-7.36364e-06
2.96883e-08
1.72354e-07
5.78808e-07
7.50031e-06
-1.65734e-06
-6.48046e-08
-3.93064e-07
2.11521e-06
-1.16608e-06
-5.89942e-08
9.09524e-08
1.13412e-06
6.52394e-08
4.70372e-07
-6.29444e-07
9.38331e-08
6.38414e-08
-4.88423e-07
-1.94086e-07
6.1095e-07
-1.91387e-07
1.99105e-07
-5.1312e-07
-3.3008e-06
-2.88748e-07
-2.53023e-07
1.13682e-06
3.21888e-06
-4.86446e-06
7.11008e-07
-1.10486e-06
-6.76503e-07
5.17475e-06
7.60073e-07
4.20289e-07
1.33645e-06
-5.19659e-06
-1.97049e-06
-9.07749e-08
5.50111e-06
-5.61167e-06
-8.5682e-07
7.2115e-05
4.34451e-07
-4.41248e-07
5.21386e-07
6.27232e-08
1.9041e-06
1.3817e-06
2.00132e-06
1.7258e-06
-1.274e-06
2.18607e-06
7.82113e-05
-1.21025e-06
-5.17795e-07
-8.28867e-07
-2.44645e-07
-3.50389e-07
2.53373e-08
7.26027e-05
6.76271e-07
9.95064e-07
1.17945e-06
9.87248e-07
1.01306e-07
-1.76725e-08
2.5286e-07
-2.65338e-06
7.19203e-07
-2.71289e-07
1.85508e-06
-2.09671e-06
-3.52931e-07
3.45973e-07
2.10367e-06
6.69322e-07
-1.17029e-05
6.70009e-07
-1.22215e-06
-1.0396e-06
1.26253e-05
-4.1166e-06
-1.44216e-06
6.95837e-05
1.60532e-06
1.31333e-06
2.07902e-06
1.71541e-06
-2.40849e-07
3.37344e-06
7.74536e-05
-1.1682e-07
3.37467e-07
6.68056e-05
-3.42407e-07
-3.03335e-08
-1.83361e-07
7.97796e-07
6.68381e-07
6.96834e-07
-6.49737e-06
-3.45395e-07
-4.44041e-07
1.00476e-06
6.16522e-06
-9.74462e-06
1.44168e-07
-1.79205e-06
-9.4387e-09
1.04611e-05
9.40847e-07
-5.35168e-06
2.4024e-07
4.34691e-05
2.06306e-06
7.01065e-07
2.30093e-06
3.41767e-07
-8.18638e-08
2.97512e-07
9.20106e-08
-5.856e-07
1.64776e-07
4.96142e-05
-4.72831e-07
-2.39251e-07
-4.28942e-07
3.10461e-08
1.10544e-07
-1.43155e-07
-7.73591e-06
-5.15613e-07
1.61047e-08
7.98728e-06
-1.18821e-06
-8.37031e-07
9.02179e-07
1.12306e-06
-4.06637e-06
-1.12037e-07
5.63045e-07
3.8556e-06
-7.7198e-06
-6.511e-07
1.09858e-06
-3.5797e-07
7.79507e-06
-2.53705e-06
4.04435e-07
-7.28303e-07
2.86092e-06
-1.15411e-06
-1.01264e-07
1.58504e-08
1.23952e-06
-2.93536e-07
7.67173e-07
-9.76412e-07
5.02774e-07
2.72927e-07
-5.66149e-07
-1.94148e-07
8.00627e-07
-5.91119e-07
2.77862e-07
-1.36529e-07
-3.36044e-06
-6.51758e-07
-7.33267e-08
4.46756e-07
3.7753e-06
-5.58917e-06
7.80514e-07
-9.86228e-07
-1.19901e-06
6.17294e-06
8.20959e-07
1.13413e-06
1.21961e-06
-5.82338e-06
-2.25422e-06
-3.99352e-07
6.12321e-06
-5.00378e-06
-1.16115e-06
6.91563e-05
6.82848e-07
3.33139e-07
7.31774e-07
6.86934e-07
1.95211e-06
1.15791e-06
2.13652e-06
1.44238e-06
-2.55222e-06
1.95188e-06
7.57751e-05
-7.53024e-07
-6.38074e-07
-2.52707e-07
-3.23485e-07
9.98218e-08
-1.23794e-06
6.54247e-05
1.32521e-06
1.26585e-06
1.76561e-06
1.18085e-06
4.09668e-08
1.50497e-07
3.49112e-08
-1.50618e-06
2.32147e-07
-3.39254e-08
1.40778e-06
-2.11047e-06
-6.05718e-08
-8.7733e-08
2.25878e-06
1.20929e-06
-1.35009e-05
4.50972e-07
-1.47206e-06
-8.22936e-07
1.41356e-05
-3.29612e-06
-2.47071e-06
6.82968e-05
1.49731e-06
1.12034e-06
1.79854e-06
1.47641e-06
-6.52464e-07
1.74455e-06
7.50173e-05
-2.57193e-07
4.74339e-07
6.29654e-05
-2.31461e-07
-2.26849e-07
-1.04123e-07
6.8409e-07
9.55093e-07
6.55937e-07
-6.05259e-06
-4.23143e-07
-5.32612e-07
8.97893e-07
5.85326e-06
-1.13454e-05
-2.14055e-07
-1.68859e-06
3.07009e-07
1.23758e-05
5.65234e-07
-4.94572e-06
2.74211e-07
4.20463e-05
1.83919e-06
4.01942e-08
1.33184e-06
-5.59972e-08
7.21148e-08
2.69994e-07
1.26281e-07
-6.18383e-07
-2.28492e-07
4.94328e-05
-4.42052e-07
-2.68514e-07
-4.18188e-07
-4.09004e-07
-2.30134e-07
-4.04921e-07
-8.88416e-06
-4.16222e-07
1.08685e-08
9.14547e-06
-1.17186e-06
-5.76911e-07
4.32781e-07
1.31599e-06
-3.68023e-06
-6.13374e-07
1.07973e-06
3.48809e-06
-7.97026e-06
-7.91214e-07
1.18518e-06
-5.93888e-07
7.94169e-06
-3.05965e-06
5.40011e-07
-5.80309e-07
3.09995e-06
-1.36564e-06
-8.24298e-08
-4.50697e-08
1.49314e-06
-7.28523e-07
7.35041e-07
-9.8449e-07
9.77972e-07
2.59881e-07
-4.63005e-07
-3.68697e-07
6.74502e-07
-6.1401e-07
5.11329e-07
6.27926e-08
-4.27317e-06
-8.02911e-07
2.88668e-07
-9.5282e-08
4.8199e-06
-6.90857e-06
8.02739e-07
-6.89864e-07
-1.48481e-06
7.65288e-06
6.27622e-07
1.41376e-06
3.26467e-07
-6.47591e-06
-1.74778e-06
-4.1183e-07
6.89529e-06
-4.02907e-06
1.057e-07
6.402e-05
6.76878e-07
4.89104e-07
6.80518e-07
7.30158e-07
1.96779e-06
1.18891e-06
1.43465e-06
1.89166e-06
-3.79846e-06
2.32717e-06
7.48144e-05
-3.4494e-07
-7.66313e-07
7.63128e-08
-5.62083e-07
8.24846e-08
-2.25119e-07
5.64317e-05
1.51092e-06
1.01947e-06
1.76842e-06
9.05333e-07
-6.89875e-08
1.00292e-07
1.01768e-07
-1.50271e-06
-3.11961e-08
5.36817e-08
1.56271e-06
-2.60921e-06
2.77543e-07
-6.82362e-07
3.01403e-06
1.53943e-06
-1.45441e-05
-9.06804e-09
-1.32034e-06
-2.22199e-07
1.45563e-05
-2.50588e-06
-2.332e-06
6.97779e-05
9.18411e-07
6.8351e-07
1.12791e-06
7.32643e-07
-1.21724e-06
1.60439e-06
7.44514e-05
-3.4082e-07
9.31071e-07
5.79963e-05
-5.5984e-08
-1.96609e-07
7.76177e-08
8.26309e-07
1.46063e-06
8.24441e-07
-5.79055e-06
-2.79542e-07
-3.68091e-07
3.94473e-07
5.70289e-06
-1.28936e-05
-8.29083e-07
8.945e-07
1.87466e-07
1.22235e-05
4.17142e-07
-3.98083e-06
2.83544e-07
4.4126e-05
-2.37588e-07
-1.58708e-07
-6.72831e-07
-1.02897e-07
1.26873e-07
1.86553e-07
1.44178e-07
-6.91033e-07
-2.71897e-07
4.95255e-05
-3.47424e-07
-3.05746e-07
-3.05595e-07
-2.59994e-07
-1.74659e-07
-1.12833e-07
-9.98159e-06
-2.40584e-07
3.10115e-07
1.01521e-05
-1.50304e-06
-9.78465e-08
-1.00073e-07
1.70096e-06
-3.37189e-06
-6.73837e-07
9.78776e-07
3.35049e-06
-8.0653e-06
-5.59197e-07
5.29854e-07
-4.63489e-07
8.28624e-06
-2.99769e-06
4.51595e-07
-2.33514e-07
2.77961e-06
-1.60022e-06
1.33731e-08
-8.88231e-08
1.67567e-06
-1.22457e-06
6.41198e-07
-8.45904e-07
1.42927e-06
1.53853e-07
-3.86244e-07
-6.86011e-07
4.58869e-07
-3.95918e-07
8.55451e-07
-8.0375e-08
-5.3433e-06
-7.07265e-07
4.63475e-07
-1.45067e-07
5.81254e-06
-8.27953e-06
8.65917e-07
-2.43692e-07
-1.3714e-06
8.62226e-06
4.06438e-07
1.14887e-06
-1.02006e-06
-7.2212e-06
1.41702e-07
-4.12743e-07
7.36344e-06
-3.51047e-06
2.21205e-06
5.90774e-05
3.95612e-07
3.47508e-07
2.41604e-07
4.54665e-07
6.71158e-07
1.81211e-06
1.07175e-07
2.21111e-06
-4.01946e-06
2.91993e-06
7.44133e-05
-2.13409e-07
-1.10852e-06
6.24609e-08
-7.5044e-07
-2.43513e-08
2.91983e-06
4.68405e-05
9.92765e-07
3.08839e-07
1.17098e-06
2.01887e-07
4.5402e-09
-5.11114e-08
4.83166e-08
-1.69859e-06
-4.82611e-08
-2.85238e-08
1.75102e-06
-3.28587e-06
4.2643e-07
-4.57672e-07
3.31711e-06
1.14501e-06
-1.45117e-05
-5.24338e-07
-1.19232e-06
3.53454e-07
1.47299e-05
-2.11448e-06
-6.4328e-07
7.30874e-05
5.57912e-07
-1.89259e-07
1.13129e-06
1.6038e-07
-1.1744e-06
2.09101e-06
7.43403e-05
-8.92166e-08
1.21288e-06
5.49746e-05
1.68055e-07
3.62502e-08
2.15864e-07
8.15395e-07
1.63628e-06
7.71626e-07
-5.82223e-06
-3.04922e-08
-2.90489e-08
-2.5152e-07
6.04408e-06
-1.09369e-05
-1.07563e-06
1.983e-06
9.25388e-07
9.56782e-06
-4.63668e-07
-2.65958e-06
2.61494e-07
4.78894e-05
-1.36843e-06
-2.31878e-07
-1.06628e-06
-1.81565e-07
2.83493e-07
2.06832e-07
3.49266e-07
-6.47e-07
4.55317e-08
4.93436e-05
-1.44107e-07
-1.99518e-07
-4.55806e-08
1.55737e-07
1.91322e-07
2.56892e-07
-1.08423e-05
-1.01594e-08
6.70706e-07
1.07476e-05
-1.88012e-06
3.73445e-07
-5.39994e-07
2.04667e-06
-3.41001e-06
-3.6052e-07
3.95697e-07
3.63633e-06
-8.57827e-06
-1.27457e-07
-5.44094e-08
-1.28417e-07
8.93409e-06
-2.57747e-06
1.92354e-07
-9.35771e-08
2.47869e-06
-1.71393e-06
5.87222e-08
-5.39784e-08
1.70919e-06
-1.55425e-06
8.03096e-07
-8.35125e-07
1.58628e-06
6.15682e-08
-5.6888e-07
-1.01951e-06
4.50439e-07
-5.5476e-08
1.13186e-06
-4.37216e-07
-6.22894e-06
-4.80846e-07
3.691e-07
2.16288e-07
6.56161e-06
-8.71083e-06
8.6731e-07
8.21451e-08
-9.61564e-07
8.50315e-06
2.19782e-07
9.2092e-07
-1.44569e-06
-7.40071e-06
1.31578e-06
-9.20196e-07
7.52989e-06
-2.72131e-06
3.53715e-06
5.64746e-05
-2.46807e-08
-6.90687e-08
-1.08877e-07
-7.31924e-08
-4.32934e-07
1.54653e-06
-5.86326e-07
1.53555e-06
-3.65005e-06
3.67064e-06
7.34142e-05
-3.67781e-07
-9.45012e-07
-1.88999e-07
-2.40996e-07
-1.36981e-07
4.73888e-06
3.8973e-05
2.54789e-07
-2.86924e-07
2.04046e-07
-3.23672e-07
-1.97143e-08
-1.88217e-07
-2.4795e-08
-1.84511e-06
1.06453e-07
-3.20406e-07
1.92209e-06
-3.10478e-06
6.34311e-07
-3.25181e-07
2.79565e-06
5.08987e-07
-1.53557e-05
-1.92997e-07
-1.1376e-06
4.6484e-07
1.57125e-05
-1.95209e-06
1.54438e-06
7.57508e-05
5.62272e-07
-4.8736e-07
1.02906e-06
1.77484e-07
-1.17388e-06
3.18801e-06
7.40447e-05
7.31708e-08
1.12065e-06
5.44058e-05
2.63892e-07
1.06717e-07
2.37498e-07
5.17625e-07
1.44214e-06
3.72125e-07
-6.36536e-06
2.89467e-07
2.31703e-07
-7.57751e-07
6.67511e-06
-8.54194e-06
-1.25104e-06
1.57961e-06
9.92663e-07
7.93826e-06
-7.17558e-07
6.92748e-07
3.65027e-07
4.94462e-05
-1.30224e-06
-4.24939e-07
-4.71851e-07
-3.7547e-07
5.49292e-07
3.28599e-07
6.26376e-07
-2.91387e-07
4.61321e-07
5.0209e-05
3.64571e-07
2.94197e-07
5.17026e-07
5.10201e-07
5.97458e-07
5.62018e-07
-1.12289e-05
2.98386e-07
7.02513e-07
1.10573e-05
-2.2115e-06
7.76318e-07
-9.35281e-07
2.37046e-06
-3.8531e-06
-8.6883e-08
1.1171e-07
4.1933e-06
-9.30137e-06
-3.76092e-08
-1.01391e-07
1.38683e-07
9.76301e-06
-2.48974e-06
3.63953e-08
-1.33684e-07
2.58703e-06
-1.67087e-06
2.50455e-08
3.31437e-08
1.61268e-06
-1.5241e-06
1.11693e-06
-9.68307e-07
1.37548e-06
5.98928e-08
-8.19229e-07
-1.25678e-06
5.75596e-07
7.44737e-08
1.36605e-06
-6.78248e-07
-6.80188e-06
-2.38839e-07
1.40239e-07
6.76353e-07
6.90237e-06
-8.14309e-06
9.56209e-07
1.42715e-07
-7.98786e-07
7.78711e-06
5.5841e-08
9.7278e-07
-8.16562e-07
-7.6529e-06
1.59845e-06
-1.56421e-06
7.46245e-06
-1.12172e-06
2.85109e-06
5.79409e-05
-6.85561e-08
-3.70006e-07
-1.4858e-08
-2.47225e-07
-9.71759e-07
-8.38453e-08
-9.79063e-07
-4.60403e-07
-2.40583e-06
5.24842e-06
7.08804e-05
-7.4853e-07
-3.07363e-07
-6.72356e-07
2.97769e-07
-1.03838e-07
3.31028e-06
3.35682e-05
-2.37751e-08
-2.66409e-07
3.56789e-07
-2.74311e-07
7.44262e-08
-1.58773e-07
8.4615e-08
-1.99684e-06
2.9776e-07
-5.78437e-07
2.17368e-06
-2.54276e-06
4.02813e-07
-2.24704e-07
2.36465e-06
3.80807e-08
-1.55674e-05
2.09664e-07
-2.39703e-07
7.29448e-07
1.48299e-05
-1.85488e-06
1.69557e-06
7.79928e-05
3.12469e-07
-3.35451e-07
6.40463e-07
1.50825e-07
-8.07337e-07
4.40701e-06
7.38386e-05
1.39068e-07
5.13947e-07
5.52198e-05
2.66358e-07
1.5719e-07
1.77362e-07
-5.70963e-08
7.20849e-07
-2.28766e-07
-6.99538e-06
4.75599e-07
3.24972e-07
-9.61542e-07
7.29542e-06
-7.75511e-06
-8.31387e-07
5.91075e-07
1.0072e-06
7.66232e-06
-6.74094e-07
4.71592e-06
2.23532e-07
4.72864e-05
-6.88955e-07
-6.53246e-07
-3.17997e-07
-6.37037e-07
5.26519e-07
1.40142e-07
5.46463e-07
6.63875e-07