/*--------------------------------*- C++ -*----------------------------------*\
| =========                 |                                                 |
| \\      /  F ield         | OpenFOAM: The Open Source CFD Toolbox           |
|  \\    /   O peration     | Version:  5.x                                   |
|   \\  /    A nd           | Web:      www.OpenFOAM.org                      |
|    \\/     M anipulation  |                                                 |
\*---------------------------------------------------------------------------*/
FoamFile
{
    version     2.0;
    format      ascii;
    class       volVectorField;
    location    "6";
    object      U;
}
// * * * * * * * * * * * * * * * * * * * * * * * * * * * * * * * * * * * * * //

dimensions      [0 1 -1 0 0 0 0];

internalField   nonuniform List<vector> 
10571
(
(0.0715628 0.278339 1.01776)
(0.0275346 0.0109859 0.408916)
(0.0491468 -0.0142143 0.697577)
(-0.0149213 -0.00314948 0.647241)
(-0.07276 0.019715 0.582817)
(0.0280384 -0.075344 0.876054)
(0.0360834 -0.310295 1.29197)
(0.16189 -0.106209 1.15094)
(0.00814703 0.154666 1.3487)
(-0.0868256 0.0429213 0.583211)
(0.127873 -0.11438 1.09407)
(-0.0161328 -0.1558 0.888151)
(0.103778 -0.454766 1.39575)
(0.262773 -0.259386 1.08801)
(0.18175 -0.154997 1.0222)
(-0.0561391 -0.00282243 0.626133)
(0.0171043 -0.0191704 0.643594)
(0.1681 -0.0354405 1.33784)
(0.312079 -0.0542982 1.04443)
(0.0597317 -0.00564581 0.833276)
(-0.0630521 -0.0192494 0.50568)
(0.0819206 0.0561415 0.779029)
(0.0562164 0.116641 0.593375)
(-0.0183133 -0.0237785 0.434301)
(0.20747 -0.166273 0.942458)
(0.0251975 -0.0385362 0.329954)
(0.0874303 -0.15366 0.592101)
(0.169027 -0.122931 0.771169)
(0.151826 -0.0059735 0.572174)
(0.0120362 -0.142656 0.656939)
(-0.00706723 0.078085 0.376746)
(-0.0249304 0.0977137 0.454207)
(0.0711297 -0.0235716 0.546532)
(0.222811 0.0124193 0.95932)
(0.0304404 0.00499158 1.0593)
(0.0184898 0.0239839 0.779868)
(0.0661141 0.0900024 0.330068)
(-0.0517346 0.0610852 0.261246)
(-0.057593 0.0571177 0.360584)
(0.190137 0.102157 0.911825)
(0.0112878 0.040248 0.652121)
(0.0349413 -0.0387809 0.336792)
(-0.0869479 -0.0563432 0.295556)
(-0.19129 0.157471 0.803374)
(0.0728742 -0.00910938 0.694706)
(0.0467979 -0.31359 0.641548)
(0.0802579 -0.321111 0.704976)
(0.0541347 -0.0118527 0.674364)
(0.00957394 0.121682 1.45159)
(-0.119296 -0.0121824 0.424219)
(-0.0722368 0.0343522 0.791656)
(0.00937945 0.0932425 1.22434)
(0.104678 0.0016602 0.81088)
(-0.0863276 -0.0360796 0.521952)
(0.11416 0.190219 0.419609)
(-0.0194392 0.191707 0.346937)
(-0.10012 0.119478 0.320674)
(-0.242064 0.00603984 0.915761)
(-0.0343299 0.022571 0.453209)
(0.0225426 0.115427 0.520599)
(0.126376 0.0251298 0.595077)
(-0.0279541 0.0344622 0.657754)
(-0.130947 -0.0137899 0.474583)
(-0.212826 0.10773 0.633105)
(0.0223641 0.100966 0.365849)
(0.0380579 -0.011798 0.765144)
(-0.0713882 -0.0449233 0.760468)
(-0.0808828 -0.0193947 0.397507)
(-0.0188309 0.090323 0.540867)
(-0.0149362 -0.00896744 0.445005)
(-0.036935 -0.0257389 0.408503)
(-0.015216 0.019523 0.334682)
(-0.0367702 -0.0820379 1.64587)
(0.0676313 -0.00417059 0.821868)
(-0.0765384 0.00768118 0.935399)
(-0.00821641 0.0129551 1.04781)
(0.0929942 -0.0360497 1.00593)
(0.179806 0.0406048 0.789895)
(0.412697 0.327495 1.0592)
(0.0588377 0.241987 1.21868)
(-0.291664 0.318957 1.25749)
(-0.0316354 0.0277919 1.19371)
(-0.0278266 -0.0798185 0.924609)
(0.0442024 -0.151429 0.624853)
(0.304307 -0.290726 0.820109)
(0.147165 -0.289802 0.804852)
(-0.175581 -0.55944 0.990054)
(0.161327 -0.267492 0.981023)
(-0.0277295 -0.184983 0.229173)
(0.235708 -0.280644 0.553674)
(-0.186224 -0.28093 0.749937)
(-0.0221361 -0.263827 0.244495)
(0.084051 -0.184129 0.834314)
(0.133756 0.0442232 0.199369)
(0.033173 -0.111305 0.166492)
(0.0367113 -0.0280509 0.402168)
(-0.00696474 0.000499609 0.970564)
(-0.0231198 0.0385979 0.329174)
(-0.00137498 0.0584239 0.311507)
(-0.0193214 0.0431438 0.310247)
(0.029044 0.0866482 0.282659)
(0.0690454 0.0863703 0.314617)
(0.15536 0.227445 0.523604)
(0.0186558 0.142988 0.663751)
(-0.0568646 0.217682 0.662698)
(-0.250571 0.154594 0.471501)
(0.0121202 0.0458128 0.541336)
(0.0959412 0.0461769 0.242275)
(0.11404 -0.081155 0.52906)
(0.0935243 -0.0698812 0.652493)
(-0.0331802 -0.254023 0.528752)
(-0.192546 -0.114284 0.299278)
(0.0553646 0.00217167 0.0806713)
(0.0942563 -0.105323 0.350051)
(-0.12433 -0.0921358 0.42115)
(0.057905 0.0751962 -0.172555)
(0.0339976 -0.11124 0.421994)
(0.0171047 -0.033776 0.110368)
(0.00679075 -0.130534 0.155832)
(-0.00108599 0.00143861 0.338548)
(-0.00838733 0.00302002 0.954545)
(-0.0451417 0.0558584 0.158738)
(-0.0662962 0.0913726 0.272029)
(-0.0502846 0.0957281 0.348239)
(0.0636707 0.119398 0.231939)
(0.0554394 0.101315 0.237275)
(0.122797 0.218833 0.743244)
(0.00869085 0.143068 0.91515)
(-0.0469934 0.231173 0.90397)
(0.113 0.212892 0.399957)
(-0.118025 0.0559805 0.0014061)
(0.0528615 0.0823488 0.352232)
(0.0949833 0.114214 0.211179)
(0.0863101 -0.0584627 0.696127)
(0.0891681 -0.032023 0.818261)
(-0.0155554 -0.227692 0.718626)
(0.0540735 -0.0711667 0.244755)
(0.161781 -0.0168393 0.154187)
(0.0837256 0.0653803 0.119773)
(0.096133 -0.095445 0.448169)
(-0.132674 -0.0499482 0.542907)
(0.00158295 0.116181 0.0644377)
(0.0394745 -0.057927 0.0960913)
(-0.05265 0.00575719 0.110601)
(-0.0606965 -0.0151516 0.225819)
(-0.0178631 0.0619136 0.0941007)
(-0.0239706 0.0574011 0.702797)
(-0.113129 0.118756 0.116586)
(-0.0922521 0.120325 0.240778)
(-0.0675033 0.11169 0.340672)
(0.0778996 0.143198 0.1672)
(-0.0255121 0.19112 0.200737)
(0.099665 0.204756 0.720331)
(-0.00664365 0.145301 0.91065)
(-0.0460398 0.22634 0.878817)
(0.0432032 0.138109 0.306294)
(0.0153602 -0.0283234 0.0434274)
(0.027204 0.149615 0.182819)
(0.0843448 0.130261 0.224587)
(0.0491874 -0.00657691 0.737219)
(0.0512834 0.0222341 0.931797)
(-0.0143564 -0.130568 0.73704)
(0.0465406 -0.0222456 0.349195)
(0.0709271 0.0120792 0.156003)
(0.0842172 0.0363024 0.175041)
(0.0681933 -0.0514685 0.479783)
(-0.100081 -0.00709078 0.537947)
(-0.0235264 0.0902252 0.135501)
(-0.0822282 0.0712964 0.0666358)
(-0.059557 -0.00703936 -0.0108445)
(-0.0685851 0.00941919 0.136195)
(-0.111741 0.0364101 0.233485)
(-0.0460965 0.0548224 -0.0155687)
(-0.0287851 0.0252871 0.40323)
(-0.0446483 0.0669396 0.0614259)
(-0.0692625 0.144272 0.126112)
(-0.0216587 0.109188 0.295977)
(0.00481823 0.103742 0.1116)
(-0.0461285 0.187636 0.205931)
(0.0269996 0.177884 0.701646)
(-0.0130094 0.132929 0.886467)
(-0.0437702 0.194176 0.857353)
(-0.0134093 -0.00676617 0.297845)
(0.00627841 -0.0572678 0.0769025)
(0.0147863 0.155143 0.187718)
(0.0454038 0.0923528 0.265537)
(-0.0239469 0.0243928 0.760106)
(0.0157892 0.0619774 0.948791)
(0.0122049 -0.0483098 0.718336)
(0.0410212 -0.0122688 0.356571)
(0.0284111 0.0153703 0.159943)
(0.0298067 -0.0227743 0.208752)
(0.00793812 0.0173312 0.49054)
(-0.0604109 0.0622082 0.546278)
(-0.0199212 0.0930846 0.172747)
(-0.175369 0.0836971 0.0814712)
(-0.0357797 0.0296882 -0.0400629)
(-0.0782477 0.0180068 0.166323)
(-0.0912045 0.0661414 0.237499)
(-0.0531207 0.057087 0.00568218)
(-0.0124311 0.012432 0.260039)
(0.0151981 -0.00100134 0.00219006)
(0.00627467 0.0852903 0.046351)
(-0.00961172 0.0929747 0.210631)
(-0.0573392 0.05083 0.138645)
(-0.0261508 0.129458 0.205091)
(-0.0738965 0.105145 0.722216)
(-0.0166087 0.0863462 0.881739)
(-0.0252671 0.111712 0.868759)
(-0.0649019 -0.123377 0.274225)
(0.0422218 -0.0595862 -0.00140712)
(0.00749064 0.135589 0.212995)
(0.00196225 -0.00404099 0.359541)
(-0.0810972 0.0356157 0.756817)
(-0.0132385 0.07995 0.928411)
(0.0419931 -0.00833925 0.746326)
(-0.0193005 -0.0427354 0.306718)
(0.0166141 0.0311961 0.109287)
(-0.0376431 -0.0427806 0.256151)
(-0.0552156 0.0443775 0.491414)
(-0.0517986 0.093972 0.53797)
(-0.0120714 0.0860452 0.234334)
(-0.0910871 0.123228 0.104449)
(-0.0675427 0.0168399 0.198604)
(-0.0711749 0.0799302 0.272081)
(-0.023412 0.0416644 0.085986)
(-0.00366578 0.00673448 0.189135)
(0.0321991 -0.0157832 -0.0144312)
(0.039886 0.0430712 0.0141207)
(-0.00812723 0.0789639 0.163751)
(-0.0740545 0.0145197 0.170967)
(-0.0705991 0.0774887 0.216278)
(-0.122482 0.0296132 0.736634)
(-0.03559 0.0391444 0.852774)
(0.0087291 0.0342962 0.83185)
(-0.0945337 -0.106204 0.226173)
(0.00266087 0.120033 0.274488)
(-0.0238654 -0.0604587 0.452457)
(-0.105021 0.0163334 0.731347)
(-0.0328001 0.0718581 0.867123)
(0.0487078 0.0112509 0.728896)
(-0.113072 0.0185898 0.267218)
(-0.0698971 -0.0456277 0.328967)
(-0.108896 0.0146476 0.485615)
(-0.0532251 0.0926629 0.530334)
(-0.00942612 0.0661699 0.283248)
(-0.0700636 0.108892 0.121412)
(-0.0475859 0.0230835 0.208028)
(-0.0109719 0.0428076 0.29256)
(0.0241881 0.0167552 0.172433)
(-0.00218077 0.000678434 0.163103)
(0.0384912 -0.0113553 1.61063e-05)
(0.0482242 0.0136673 0.00911171)
(0.00683032 0.0495943 0.14134)
(-0.0705372 -0.0252358 0.196703)
(-0.141382 0.0165527 0.235951)
(-0.11928 -0.00800451 0.729701)
(-0.0594953 0.0258007 0.799717)
(0.0217746 -0.0153256 0.804618)
(-0.0327025 -0.0645404 0.103239)
(0.00778755 0.112151 0.300955)
(-0.0396948 -0.0716126 0.535146)
(-0.0990166 -0.0166516 0.707335)
(-0.0407035 0.0506935 0.802826)
(0.0425065 0.0165898 0.722589)
(-0.0159217 0.0186932 0.244546)
(-0.0882506 -0.047089 0.394033)
(-0.139511 -0.0309309 0.468596)
(-0.0560893 0.0588881 0.520303)
(-0.0161999 0.0445708 0.331603)
(-0.0451662 0.0702934 0.101879)
(0.00874979 0.0432291 0.199489)
(0.0594715 -0.00925979 0.304579)
(0.053078 -0.0126952 0.247538)
(0.00215551 -0.00201079 0.168973)
(0.0589033 -0.0356177 0.0298884)
(0.052687 -0.0085639 0.0101537)
(0.0401416 0.00876848 0.154815)
(-0.0782972 -0.0631634 0.230475)
(-0.145901 -0.0642231 0.263876)
(-0.0918425 -0.00825791 0.715297)
(-0.0753703 0.0292342 0.768329)
(-0.0067512 -0.0845107 0.735083)
(0.0176632 -0.0359807 0.0705821)
(-0.00619818 0.094487 0.307034)
(-0.0728624 -0.0723956 0.612536)
(-0.0756047 -0.0276884 0.690018)
(-0.0386812 0.0404431 0.765434)
(0.0185957 0.0373577 0.694926)
(-0.0273122 0.037116 0.234221)
(-0.0932349 -0.0314907 0.463373)
(-0.129468 -0.0543618 0.445455)
(-0.0563484 0.0139027 0.517878)
(-0.0197548 0.0491321 0.382898)
(-0.0127824 0.035746 0.110742)
(0.056196 0.0554283 0.179631)
(0.0769691 -0.0236976 0.312105)
(0.043466 -0.0231897 0.28318)
(0.00303921 -0.0045751 0.205003)
(0.0512665 -0.0486967 0.0620711)
(0.0380006 -0.00120826 0.0193076)
(0.0664412 -0.0141668 0.200277)
(-0.0803403 -0.0782874 0.287412)
(-0.0630871 -0.124056 0.294265)
(-0.0715965 0.0211087 0.672939)
(-0.0711282 0.0406697 0.754405)
(-0.0491382 -0.098065 0.65129)
(0.032762 -0.00827993 0.0756081)
(-0.0268735 0.0337343 0.402769)
(-0.0984334 -0.0586623 0.644555)
(-0.0581402 -0.0172617 0.687569)
(-0.0302745 0.0430681 0.753536)
(-0.00744491 0.0887309 0.637415)
(-0.0233051 0.0381662 0.224497)
(0.0608497 -0.0860807 0.504008)
(-0.0975424 -0.0554942 0.442035)
(-0.0544675 0.00670562 0.520579)
(-0.0237173 0.0761627 0.431089)
(0.0177147 0.00108323 0.143741)
(0.0583049 0.0535319 0.168873)
(0.051669 -0.0254718 0.319716)
(0.0313268 -0.0222303 0.264581)
(-0.00665764 -0.00627106 0.236119)
(0.038263 -0.0536796 0.0974144)
(0.0231968 0.0107137 0.034229)
(0.0677186 -0.000711531 0.246323)
(-0.0662291 -0.075992 0.335583)
(0.0544726 -0.128824 0.320044)
(-0.0745972 0.0566894 0.605676)
(-0.0533792 0.053508 0.749172)
(-0.0732207 -0.0132028 0.538749)
(0.0314048 -0.00274516 0.086233)
(-0.0175773 -0.00349026 0.48089)
(-0.108441 0.0109923 0.634492)
(-0.0477615 0.0148982 0.712621)
(-0.0273223 0.0511747 0.753727)
(-0.00754405 0.115101 0.58905)
(0.00121467 0.0180672 0.233552)
(0.103366 0.0379591 0.395797)
(-0.0552755 -0.0322815 0.484225)
(-0.0472898 0.0146649 0.520809)
(-0.0200506 0.0967951 0.466032)
(0.0388242 -0.0337676 0.176062)
(0.0237669 0.0406767 0.177141)
(0.010598 -0.000633139 0.344972)
(0.0262976 -0.0112181 0.227976)
(-0.0208455 -0.00292721 0.246106)
(0.0423306 -0.0585103 0.11617)
(0.0327937 0.0163158 0.0475754)
(0.042731 0.0364853 0.28178)
(-0.0412127 -0.0617657 0.338539)
(0.118365 -0.108049 0.330746)
(-0.0524488 0.0533187 0.562008)
(-0.0475669 0.0615012 0.744564)
(-0.0693608 0.0604225 0.438182)
(0.0161614 -0.0140263 0.0947682)
(-0.0152556 -0.0611336 0.42165)
(-0.0957765 0.0469888 0.68776)
(-0.0300877 0.0606191 0.75228)
(-0.0356019 0.0680752 0.751096)
(-0.00113937 0.108169 0.569874)
(0.0125785 -0.0139667 0.257254)
(0.0926393 0.0913176 0.31662)
(0.0209144 -0.00303051 0.53084)
(0.00190295 0.035575 0.524512)
(-0.00708581 0.0904028 0.479686)
(0.0549617 -0.0683603 0.205926)
(0.000655787 0.036597 0.201965)
(0.00750944 0.0333777 0.374844)
(0.0234911 -0.00149537 0.229097)
(-0.0175385 0.00293982 0.235986)
(0.06163 -0.0658705 0.107287)
(0.0509001 0.00999732 0.057584)
(0.00228814 0.0677895 0.303221)
(-0.0254589 -0.074931 0.310354)
(0.112839 -0.101239 0.336379)
(-0.00336175 0.0132234 0.559185)
(-0.0382758 0.0720954 0.727524)
(-0.0409649 0.0454431 0.377757)
(0.00794 -0.0305964 0.103879)
(-0.00209322 -0.0363856 0.34832)
(0.00278589 0.0932881 0.676768)
(-0.023346 0.0781457 0.775562)
(-0.0375166 0.107156 0.746205)
(0.0119305 0.0727406 0.574185)
(0.0115001 -0.0295991 0.281713)
(0.0617125 0.0847563 0.301867)
(0.0897427 -0.0157078 0.514064)
(0.0784562 0.0450109 0.535689)
(0.0570086 0.0451593 0.495689)
(0.0578393 -0.088928 0.238721)
(-0.0181108 0.0278519 0.231631)
(0.0130493 0.0547988 0.413219)
(0.0176483 0.00775756 0.257555)
(0.0162491 0.0033706 0.220362)
(0.0676245 -0.0648071 0.0753266)
(0.0617367 -0.00290448 0.0699103)
(-0.0281655 0.0826821 0.306807)
(-0.021916 -0.0877134 0.292251)
(0.0304586 -0.0341884 0.287874)
(0.0565783 -0.0362645 0.589467)
(-0.0158451 0.0859457 0.692551)
(-0.0148741 -0.0101632 0.335204)
(0.00458726 -0.0467218 0.122183)
(0.0141025 0.00840993 0.303437)
(0.138434 -0.0165482 0.564427)
(-0.0427016 0.0819574 0.795783)
(-0.0219328 0.14123 0.744865)
(0.0343316 0.0254919 0.592366)
(0.0147673 -0.0295699 0.302594)
(0.0300517 0.0621167 0.296537)
(0.109455 -0.0485777 0.477515)
(0.115324 0.0179026 0.563945)
(0.113196 -0.0163961 0.52393)
(0.0425185 -0.0792206 0.274164)
(-0.0372702 0.0056065 0.255044)
(-0.0026892 0.051399 0.446216)
(0.00961312 0.0176807 0.285122)
(0.0468844 0.00266898 0.221865)
(0.0529085 -0.0437648 0.0451116)
(0.0594456 -0.0112525 0.0812416)
(-0.0303481 0.0792833 0.315024)
(-0.0198362 -0.0680618 0.298783)
(-0.0084205 0.0354524 0.216719)
(0.0806405 -0.0428639 0.6119)
(-0.00997767 0.09262 0.668916)
(-0.011411 -0.0460357 0.307632)
(-0.00344628 -0.0572411 0.148932)
(0.0141937 0.0361815 0.243903)
(0.125722 -0.0293776 0.460958)
(-0.0823741 0.0758089 0.835397)
(0.000231293 0.153156 0.747216)
(0.0408095 0.0184226 0.603067)
(0.0285589 -0.023074 0.316904)
(0.0223335 0.0203157 0.279012)
(0.0795789 -0.0704016 0.458713)
(0.109597 -0.0251453 0.61217)
(0.10911 -0.0693991 0.555446)
(0.0173368 -0.0377813 0.286536)
(-0.0483126 -0.0187519 0.270144)
(-0.0329383 0.0350581 0.447771)
(-0.0119829 0.0235962 0.297897)
(0.0677007 0.00146065 0.228409)
(0.0319989 -0.0221815 0.025334)
(0.0464959 -0.0133715 0.0946901)
(-0.023618 0.0333617 0.342178)
(0.00410145 0.0331123 0.308712)
(0.0314482 0.0323233 0.173842)
(0.0825249 -0.0350146 0.613307)
(-0.0264369 0.0943888 0.641523)
(-0.0178461 -0.0507293 0.297932)
(-0.0207429 -0.0629209 0.174344)
(0.00810328 0.044129 0.187958)
(0.0542263 -0.0141077 0.450251)
(-0.100408 0.0530057 0.877224)
(0.0302985 0.13744 0.753222)
(0.0412062 0.0233035 0.604294)
(0.0449853 -0.0235076 0.323533)
(0.0259778 0.000358867 0.264465)
(-0.00686685 -0.0726756 0.44925)
(0.0776391 -0.0484656 0.65471)
(0.0645218 -0.0771813 0.573058)
(0.00764591 0.000683303 0.288401)
(-0.0510043 -0.0310753 0.276941)
(-0.0426993 0.0232238 0.420205)
(-0.0413731 0.0248399 0.299956)
(0.0770538 -0.00049628 0.254776)
(0.0207088 -0.0207539 0.0146431)
(0.0284301 -0.0101235 0.112398)
(-0.014818 -0.0164853 0.369015)
(0.0148524 0.0558835 0.27279)
(0.0343883 0.00729595 0.151212)
(0.090372 -0.0281949 0.603612)
(-0.0644675 0.079523 0.626243)
(-0.0205113 -0.042483 0.296232)
(-0.0471951 -0.0669494 0.189203)
(-0.0002581 0.0226379 0.152967)
(-0.0205575 -0.00529772 0.489647)
(-0.079638 0.0253579 0.895466)
(0.0770277 0.0872188 0.760274)
(0.0405691 0.0257479 0.599463)
(0.0551658 -0.0319143 0.317594)
(0.0282957 -0.00307347 0.264645)
(-0.0724444 -0.0532036 0.445112)
(0.0341661 -0.0372537 0.659796)
(0.0330156 -0.0288786 0.565305)
(0.00602122 0.0187763 0.296719)
(-0.053032 -0.0340049 0.284551)
(-0.0523289 0.0250524 0.388317)
(-0.0594172 0.0331428 0.299862)
(0.0694526 -0.00291519 0.296668)
(0.0129728 -0.0249614 0.0258394)
(0.0103351 -0.0108131 0.135163)
(0.0221911 -0.0481036 0.383005)
(0.0178127 0.0494986 0.246111)
(0.00829707 -0.0222599 0.139186)
(0.100405 -0.0311031 0.574341)
(-0.0899813 0.0336048 0.642894)
(-0.00824901 -0.0301383 0.297102)
(-0.0650632 -0.068267 0.192246)
(-0.00344812 0.00177676 0.150123)
(-0.0677416 0.010062 0.520785)
(-0.00497194 -0.00644183 0.881596)
(0.0991508 0.0390183 0.768317)
(0.0369664 0.0153353 0.591029)
(0.052289 -0.0578343 0.302242)
(0.0293776 0.0144849 0.282807)
(-0.0955869 -0.0312256 0.442249)
(-0.0145059 -0.00224152 0.631926)
(0.0207472 0.045167 0.538679)
(0.00519886 0.0101302 0.301793)
(-0.0565346 -0.0335966 0.303164)
(-0.0648331 0.0339266 0.371914)
(-0.0662934 0.0454365 0.314919)
(0.0464992 -0.00715401 0.343337)
(0.00594023 -0.0260352 0.0599104)
(0.00873295 -0.0144822 0.167063)
(0.0471625 -0.0715249 0.386677)
(0.0286581 0.0289228 0.247998)
(-0.0131396 -0.0481237 0.133136)
(0.0663618 -0.0311436 0.524729)
(-0.0618478 -0.0444409 0.664242)
(0.0274308 -0.0125407 0.307313)
(-0.0649627 -0.0682851 0.19163)
(-0.00200188 0.00736357 0.15525)
(-0.0949596 0.0231384 0.517011)
(0.0843026 -0.00848192 0.838443)
(0.0787317 0.010019 0.774355)
(0.0427723 -0.00154175 0.566134)
(0.0419249 -0.0672591 0.297053)
(0.0201591 0.0382689 0.325467)
(-0.0899877 -0.018043 0.446119)
(-0.0539182 0.0239896 0.587251)
(0.0147148 0.0707287 0.511445)
(0.00742181 -0.0111403 0.269092)
(-0.0552259 -0.0377726 0.332568)
(-0.0736459 0.0393849 0.372905)
(-0.0735166 0.0510414 0.336737)
(0.0214975 -0.00770496 0.390119)
(-0.00383294 -0.020024 0.106031)
(0.0240129 -0.0278342 0.199453)
(0.04023 -0.0712717 0.395672)
(0.0398221 0.00176542 0.278181)
(-0.0184243 -0.0623276 0.128202)
(-0.0153395 0.00564777 0.452602)
(0.0299197 -0.0917858 0.634627)
(0.0619772 0.0128026 0.334405)
(-0.0509307 -0.0702962 0.200987)
(-0.0024907 0.00514834 0.161905)
(-0.100773 0.0373145 0.496685)
(0.0995564 0.0151518 0.793254)
(0.0280604 -0.0107755 0.754454)
(0.0583714 0.0115597 0.543601)
(0.0347149 -0.0472155 0.312606)
(-0.00477948 0.0481936 0.38071)
(-0.0502797 0.0080598 0.476749)
(-0.0619839 0.0253944 0.544007)
(0.0122395 0.0717806 0.480348)
(-0.00017558 0.0113254 0.227945)
(-0.0417923 -0.0448676 0.363972)
(-0.0779839 0.0350141 0.38388)
(-0.0772758 0.0533919 0.353814)
(-0.00211832 -0.00573984 0.420177)
(-0.0158834 -0.0073479 0.153355)
(0.0391588 -0.0478622 0.22451)
(0.0123356 -0.0478118 0.420958)
(0.0452051 -0.00685615 0.313684)
(0.00426452 -0.0686717 0.115918)
(-0.0629755 0.0413765 0.39546)
(0.0827788 -0.0516507 0.573938)
(0.0646419 0.0394898 0.36489)
(-0.0398171 -0.0679149 0.230475)
(-0.00717408 -0.0236209 0.18434)
(-0.0933869 0.0424865 0.490482)
(0.0424616 0.0284025 0.760702)
(0.0165654 -0.0181496 0.724286)
(0.0681672 0.03679 0.531456)
(0.0186235 -0.0396146 0.319609)
(-0.0342164 0.0411318 0.429411)
(-0.00955056 0.0422993 0.518419)
(-0.0339987 0.0251699 0.519622)
(0.0136144 0.0715652 0.461845)
(-0.0173016 0.0444709 0.214897)
(-0.0230977 -0.0425003 0.394912)
(-0.068624 0.0187149 0.396797)
(-0.0737204 0.051501 0.373872)
(-0.001781 -0.00594528 0.465616)
(-0.0235418 0.00213189 0.193305)
(0.0465255 -0.057479 0.2474)
(0.000526516 -0.0563525 0.436802)
(0.0411311 0.010083 0.326587)
(0.0321923 -0.0709174 0.107946)
(-0.0716741 0.0520677 0.35538)
(0.0535893 0.0228377 0.500161)
(0.0386002 0.0370995 0.397147)
(-0.0315672 -0.0431093 0.272918)
(-0.0129422 -0.061477 0.220155)
(-0.0915137 0.0347589 0.487288)
(-0.020305 0.0447942 0.715895)
(0.0484238 -0.00230351 0.692223)
(0.0641127 0.0521915 0.535761)
(0.0173569 -0.0397999 0.30415)
(-0.0568765 0.0300942 0.464468)
(0.00194745 0.0682621 0.540762)
(0.010697 0.0508795 0.518579)
(0.0134691 0.0742446 0.463864)
(-0.0264451 0.0605041 0.217315)
(-0.00991582 -0.0255781 0.426882)
(-0.0472382 -0.000615823 0.415908)
(-0.0626938 0.0463004 0.403155)
(0.00902363 -0.00411388 0.544187)
(-0.0313738 0.00791881 0.226752)
(0.0461564 -0.0587262 0.265793)
(0.00697194 -0.0546832 0.431707)
(0.0234944 0.0419675 0.299783)
(0.0486863 -0.0707883 0.115072)
(-0.0554548 0.040898 0.338479)
(0.000518116 0.0531996 0.445205)
(0.000431047 -0.00838649 0.421566)
(-0.016523 -0.00128045 0.303232)
(-0.0164509 -0.0952953 0.253664)
(-0.0762535 0.0108717 0.476432)
(-0.0269926 0.084701 0.647161)
(0.0768386 0.0684588 0.655037)
(0.0447882 0.0547184 0.542174)
(0.0187137 -0.0230402 0.276205)
(-0.0689623 0.0224169 0.491986)
(-0.00490422 0.0900871 0.551375)
(0.0348082 0.094987 0.539321)
(0.00696206 0.0739939 0.493246)
(-0.0236294 0.0596467 0.223676)
(-0.00460081 -0.00521407 0.464951)
(-0.0263626 0.00973731 0.447692)
(-0.0433721 0.0375664 0.450584)
(0.0011829 0.00202927 0.588923)
(-0.0440142 0.0107945 0.257803)
(0.0319556 -0.0585023 0.287086)
(-0.00187717 0.0197723 0.397667)
(0.00339761 0.0465746 0.275362)
(0.0583908 -0.0672466 0.138253)
(-0.0129853 -0.00485627 0.334272)
(-0.0328596 0.0479593 0.421284)
(-0.0164962 -0.0509439 0.410366)
(-0.000149895 0.0207642 0.306431)
(-0.0202732 -0.124236 0.26442)
(-0.0122562 -0.0277449 0.453738)
(-0.0480838 0.118024 0.57312)
(0.0209807 0.132059 0.621947)
(0.0316524 0.0426066 0.53443)
(0.0203792 -0.00017425 0.262282)
(-0.0730654 0.0153852 0.523097)
(-0.0168193 0.0994991 0.565111)
(0.0293095 0.12031 0.575398)
(-0.00664605 0.0619903 0.534292)
(-0.0127555 0.039984 0.236388)
(-0.00863352 0.00821988 0.510275)
(-0.00386752 0.041887 0.505571)
(-0.0107967 0.016919 0.507592)
(-0.00536307 0.00125103 0.582367)
(-0.0586474 0.0175287 0.292263)
(0.01412 -0.0556152 0.326525)
(-0.0287507 0.0767372 0.346914)
(-0.0155867 0.021428 0.294032)
(0.0582874 -0.0521143 0.174965)
(0.0172067 -0.0565393 0.342434)
(-0.055771 0.0273954 0.412198)
(-0.0132091 -0.0707797 0.380649)
(0.00941454 0.0266786 0.306239)
(-0.0192288 -0.137233 0.267364)
(0.0448578 -0.0753266 0.429226)
(-0.0827432 0.109557 0.51645)
(-0.0533908 0.129819 0.563749)
(0.0205059 0.00260545 0.488393)
(0.0192757 0.0165136 0.259574)
(-0.0671648 -0.00431859 0.547146)
(-0.0141547 0.102104 0.586095)
(0.0218839 0.10933 0.620007)
(-0.00588196 0.062172 0.569954)
(-0.00406644 0.0139568 0.258278)
(-0.0146463 0.0150913 0.556549)
(0.0108706 0.0544945 0.570164)
(0.0299615 -0.000605026 0.562205)
(-0.0166785 0.0121609 0.44623)
(-0.0769542 0.0442939 0.322933)
(-0.00933196 -0.054544 0.372216)
(-0.0379289 0.0693176 0.337262)
(-0.0282214 -0.00230687 0.325346)
(0.0443262 -0.00787804 0.215426)
(0.0199013 -0.0840186 0.368448)
(-0.068404 0.000573502 0.405219)
(-0.00556217 -0.0720519 0.354073)
(0.0128778 0.0282068 0.310501)
(-0.00823732 -0.112415 0.253379)
(0.0639726 -0.0970981 0.332903)
(-0.075075 0.0782343 0.493726)
(-0.0656581 0.0681396 0.50691)
(-0.00397257 -0.0472162 0.407606)
(0.0114293 0.0306121 0.262888)
(-0.0463684 -0.0282504 0.569393)
(-0.00723203 0.105125 0.604723)
(0.0176383 0.0840096 0.650054)
(-6.43076e-05 0.0604928 0.589097)
(-0.00378152 -0.00944264 0.277089)
(-0.0158631 0.0180056 0.596771)
(0.0183499 0.0485658 0.622738)
(0.0533724 -0.00536275 0.611827)
(0.0227937 0.00556481 0.326967)
(-0.0918766 0.0743335 0.332263)
(-0.0302838 -0.0572945 0.404072)
(-0.0496151 0.0100767 0.366603)
(-0.0291093 -0.00876543 0.335415)
(0.0295615 0.045477 0.234514)
(0.016452 -0.092125 0.402544)
(-0.0592355 -0.0272856 0.402338)
(-0.000193644 -0.0682841 0.335468)
(0.0142861 0.0262977 0.316909)
(-0.00183534 -0.0536672 0.22949)
(0.0778619 -0.0577145 0.245816)
(-0.00854485 0.0287152 0.497888)
(-0.0318022 0.00444004 0.4699)
(-0.0160051 -0.0661912 0.354194)
(-0.00127671 0.0435739 0.259041)
(-0.0140892 -0.0214966 0.585781)
(-0.00833998 0.0926858 0.618408)
(0.0119422 0.070011 0.654618)
(0.00045073 0.0540283 0.592821)
(-0.011941 -0.0159098 0.28417)
(-0.0175067 0.02231 0.6303)
(0.0213593 0.0377498 0.659015)
(0.0615188 -0.00961728 0.64711)
(0.0297373 0.000667474 0.310639)
(-0.0935979 0.0828225 0.33068)
(-0.0443723 -0.0545484 0.419346)
(-0.0359534 -0.0265961 0.39293)
(-0.0171566 -0.00856852 0.342197)
(0.0160653 0.0820498 0.241455)
(0.0233546 -0.0887445 0.4247)
(-0.0379768 -0.0513023 0.403377)
(-0.000497902 -0.0666987 0.323607)
(0.0194408 0.0258456 0.323054)
(0.00124749 0.00290062 0.220429)
(0.0809756 -0.000815203 0.216285)
(0.0746586 -0.0271498 0.503027)
(0.00695108 -0.0369661 0.452364)
(-0.0134269 -0.0732529 0.328306)
(-0.0124267 0.0576237 0.244977)
(0.0464434 -0.0388102 0.545553)
(-0.00569646 0.0694906 0.6263)
(0.00483813 0.0652109 0.642837)
(0.00863669 0.0520588 0.588046)
(-0.0178366 -0.00640566 0.292318)
(-0.0108288 0.022848 0.657844)
(0.0274545 0.024324 0.685523)
(0.0625104 -0.0154288 0.674702)
(0.0229189 -0.00332677 0.329623)
(-0.085994 0.0792225 0.323277)
(-0.0478448 -0.0501362 0.42572)
(-0.0146482 -0.0445387 0.411249)
(-0.00101873 -0.00793424 0.359891)
(-0.00136032 0.0994179 0.243052)
(0.0306177 -0.0821851 0.427554)
(-0.0243933 -0.0645554 0.410684)
(-0.00841308 -0.0596414 0.317587)
(0.0263283 0.034906 0.316476)
(0.00180656 0.0403629 0.227918)
(0.0654684 0.052339 0.213118)
(0.11003 -0.0608468 0.495545)
(0.0214676 -0.0624039 0.44682)
(-0.00582401 -0.0805556 0.324384)
(-0.0134043 0.0664771 0.241206)
(0.00509994 -0.0160079 0.448747)
(0.0188069 0.0575397 0.637654)
(0.00586067 0.0440921 0.616176)
(0.0242205 0.0240839 0.586241)
(-0.00972691 -0.0129184 0.316158)
(0.00726548 0.0288454 0.682274)
(0.0313339 0.0206995 0.707245)
(0.0612623 -0.0149078 0.699648)
(0.0200317 -0.00488336 0.359164)
(-0.0799428 0.0741687 0.306746)
(-0.0397998 -0.0514174 0.426979)
(-0.00331972 -0.0513112 0.431186)
(0.0149822 0.004217 0.382546)
(-0.0181971 0.108675 0.234816)
(0.0316528 -0.0790126 0.420642)
(-0.0211054 -0.071317 0.425735)
(-0.0231223 -0.0278807 0.317863)
(0.0313673 0.0819229 0.283091)
(0.0027628 0.0584395 0.249096)
(0.0428257 0.0939238 0.222032)
(0.104802 -0.0855372 0.47585)
(0.0200286 -0.0775541 0.449877)
(0.00453961 -0.0834496 0.337286)
(-0.00379494 0.0605051 0.266983)
(-0.00226571 0.0260341 0.375657)
(0.0673224 0.0191856 0.654423)
(0.0246759 0.00107197 0.591622)
(0.0155659 -0.0407937 0.570116)
(0.00558364 -0.0357538 0.342886)
(0.0105865 0.00240509 0.705212)
(0.0294736 0.0201881 0.724707)
(0.0510734 -0.0194459 0.715789)
(0.0153026 -0.00391606 0.386994)
(-0.0654297 0.0645807 0.298577)
(-0.0303831 -0.0275937 0.432085)
(0.00196577 -0.0542739 0.442254)
(0.0399851 0.0258415 0.398728)
(-0.025658 0.11054 0.225685)
(0.0210962 -0.0710551 0.41264)
(-0.0150312 -0.0773402 0.44726)
(-0.0292299 0.0121329 0.328234)
(0.0218302 0.0873151 0.26163)
(0.00485686 0.058855 0.27055)
(0.0198895 0.117951 0.242354)
(0.074424 -0.0920051 0.451839)
(0.0207098 -0.0814169 0.457209)
(0.0161809 -0.0786645 0.370159)
(0.00838189 0.0178117 0.322849)
(0.00398759 0.0602557 0.361161)
(0.0917258 -0.0487152 0.632392)
(0.0431601 -0.0405077 0.577873)
(0.018784 -0.0793956 0.525912)
(0.0214428 -0.0553414 0.361696)
(0.0505421 -0.0109335 0.714144)
(0.0333081 0.0141156 0.729492)
(0.0424009 -0.0211503 0.720066)
(-0.00767557 -0.00355796 0.382534)
(-0.0354717 0.0419398 0.297996)
(-0.0569927 0.0335341 0.405425)
(0.012747 -0.037532 0.453203)
(0.0578413 0.0486627 0.398532)
(-0.0191732 0.0985423 0.222417)
(-0.00798635 -0.0291242 0.41276)
(-0.00301598 -0.0723964 0.467453)
(-0.0217621 0.0286603 0.354585)
(0.0107227 0.0523101 0.26662)
(0.00678386 0.0363586 0.27281)
(0.00508798 0.118316 0.273242)
(0.0251573 -0.0478507 0.436884)
(0.025176 -0.0771643 0.460435)
(0.0194342 -0.0759092 0.402309)
(0.022501 -0.0238301 0.37864)
(-0.00810701 0.069166 0.3837)
(0.0673797 -0.0784032 0.58221)
(0.0566711 -0.0663246 0.562381)
(0.0348584 -0.0896675 0.480807)
(0.0350909 -0.0636542 0.381924)
(0.0985764 -0.00817521 0.710143)
(0.0366 0.0128094 0.732798)
(0.0213504 -0.00728211 0.74109)
(-0.0272662 -0.00116885 0.342197)
(-0.0176624 0.0225272 0.290004)
(-0.0606335 0.0439945 0.372055)
(-0.000687087 0.0135975 0.463075)
(0.0575812 0.0587409 0.37575)
(-0.00467077 0.0621596 0.2214)
(-0.0269778 0.0348424 0.404245)
(0.00928848 -0.0400103 0.48026)
(-0.00575176 0.0342033 0.394929)
(0.00389176 0.0157777 0.299805)
(0.00436261 -0.00523427 0.251154)
(0.00146282 0.0886615 0.306306)
(-0.025881 0.03595 0.424989)
(0.0317423 -0.0542868 0.45813)
(0.0161944 -0.0737292 0.430449)
(0.026373 -0.042868 0.416156)
(-0.0253881 0.0554827 0.425362)
(0.0158306 -0.0348361 0.535811)
(0.0649441 -0.0719145 0.530384)
(0.0474235 -0.0816804 0.457839)
(0.0391857 -0.064441 0.406913)
(0.0995142 0.014811 0.670616)
(0.0307247 0.0164308 0.740498)
(-0.0279448 0.00042061 0.696956)
(-0.0174278 0.000167352 0.314143)
(-0.0110396 0.0113122 0.282973)
(-0.0490094 0.0280921 0.358493)
(-0.0232011 0.0191566 0.42129)
(0.0217431 0.033425 0.354215)
(0.0110294 0.0123361 0.224831)
(-0.0136708 0.0609697 0.385971)
(0.0250621 0.0168696 0.485316)
(0.0117349 0.0435845 0.438505)
(0.00294328 -0.00185187 0.340699)
(0.00129151 -0.0363504 0.229681)
(0.0102929 0.0192064 0.33414)
(-0.0340393 0.078503 0.410944)
(0.0287149 0.00321862 0.461166)
(0.0126729 -0.0563893 0.455728)
(0.0230861 -0.0434999 0.442126)
(-0.0248331 0.0225886 0.46694)
(-0.0158617 0.016777 0.50559)
(0.0621817 -0.0612179 0.495436)
(0.0529091 -0.0670686 0.449289)
(0.0400009 -0.0608984 0.429261)
(0.0671885 0.0416208 0.658084)
(0.0405369 0.0130041 0.779279)
(0.0255302 -0.0138387 0.581289)
(-0.0024481 -0.00012339 0.296844)
(-0.00860109 0.00490717 0.284627)
(-0.029106 0.0159741 0.352584)
(-0.0269798 0.0177657 0.361534)
(-0.0136274 0.00163545 0.330677)
(0.0204082 -0.0242725 0.233881)
(0.0172039 0.0523251 0.375243)
(0.0307758 0.0458261 0.492146)
(0.0194692 0.0624811 0.471244)
(0.00479397 -0.00184099 0.371879)
(-0.000248036 -0.0432406 0.226046)
(0.0478666 -0.0634463 0.331736)
(-0.0218317 0.0823693 0.400754)
(0.020465 0.0453337 0.476072)
(0.0134205 -0.0195614 0.480926)
(0.0199319 -0.037137 0.465214)
(-0.0234309 -0.0281372 0.49522)
(-0.0162624 0.0261642 0.492319)
(0.0543302 -0.0428099 0.480639)