/*--------------------------------*- C++ -*----------------------------------*\
| =========                 |                                                 |
| \\      /  F ield         | OpenFOAM: The Open Source CFD Toolbox           |
|  \\    /   O peration     | Version:  5.x                                   |
|   \\  /    A nd           | Web:      www.OpenFOAM.org                      |
|    \\/     M anipulation  |                                                 |
\*---------------------------------------------------------------------------*/
FoamFile
{
    version     2.0;
    format      ascii;
    class       volVectorField;
    location    "6";
    object      Us;
}
// * * * * * * * * * * * * * * * * * * * * * * * * * * * * * * * * * * * * * //

dimensions      [0 1 -1 0 0 0 0];

internalField   nonuniform List<vector> 
10571
(
(0.0166141 -0.0334488 -0.0249053)
(0.00582389 0.000240071 -0.00421913)
(0.0249407 0.0156693 -0.0465301)
(0.00242171 0.00669276 -0.0197003)
(-0.0021534 0.00623886 -0.00333295)
(0.0222199 0.000581563 -0.0647696)
(0.0216181 -0.00427568 -0.0368817)
(0.021571 -0.0142728 -0.0759832)
(0.004367 0.00453612 -0.0244689)
(-0.00418657 0.00552451 -0.00813042)
(-0.0304201 -0.011081 -0.0618712)
(-0.00563297 -0.00298025 -0.0680186)
(0.0101227 -0.0121357 -0.0180101)
(0.0272887 -0.0119331 -0.111725)
(0.0228389 -0.010198 -0.118213)
(-0.00867139 -0.00128017 -0.015461)
(0.0148648 -0.0110502 -0.0359361)
(0.00778477 -0.00806373 -0.0198816)
(0.025921 -0.00799597 -0.117251)
(-0.00229151 -0.0141733 -0.0320845)
(0.000176125 -0.00216257 -0.00283453)
(0.0169813 0.00491727 -0.0429228)
(0.0170403 0.00272511 -0.0496287)
(0.0029597 -0.00294144 -0.00750688)
(0.00633946 0.0211515 -0.100914)
(-0.000449959 -0.00163802 -0.0828448)
(-0.0147828 0.00248713 -0.092649)
(0.0128146 0.00244991 -0.115646)
(0.029145 -0.00519535 -0.135258)
(0.00134753 -0.0117705 -0.0532689)
(-0.00732477 0.0323362 -0.0377131)
(-0.0155859 0.0321857 -0.0449831)
(0.00649511 0.000465041 -0.0316804)
(0.0156238 0.00674892 -0.0672306)
(0.0147236 0.0147832 -0.0254437)
(0.0050288 0.0277119 -0.030662)
(0.00233306 0.0159112 -0.055474)
(-0.0154924 0.0140239 -0.0696221)
(-0.02453 0.012732 -0.0554303)
(-0.000306111 0.00602236 -0.0872012)
(0.0074082 0.0153629 -0.0263033)
(-0.00220863 -0.00709951 -0.054747)
(-0.023033 -0.010288 -0.0645808)
(-0.0408812 0.00648084 -0.0758083)
(0.0191056 -0.0166753 -0.0945002)
(-0.00327579 -0.0338842 -0.0461218)
(-0.00420822 -0.0486627 -0.0606608)
(-0.00929875 0.00393713 -0.0871276)
(-0.0199953 0.00938667 0.083045)
(-0.0152124 0.0102151 0.0250277)
(-0.0319286 0.0131959 0.0674954)
(-0.0161152 0.0192882 0.0778609)
(0.0160385 0.000286797 0.0436955)
(-0.00896849 0.00184147 0.047484)
(0.0104365 0.0476532 -0.00480296)
(-0.0174531 0.0547513 -0.0190918)
(-0.0347443 0.0276493 -0.0255174)
(-0.0243541 0.00276667 0.0315999)
(0.000710279 0.00666093 0.0229072)
(0.0062709 0.0168384 0.0343835)
(0.0164648 0.0124617 -0.0314349)
(-0.0153957 0.0137673 -0.0459821)
(-0.037344 0.00409998 -0.0401659)
(-0.0343907 0.0156325 0.0177572)
(0.0105321 0.0183437 -0.00430987)
(0.00330377 -0.001484 -0.0383331)
(-0.0217381 -0.00779935 -0.0417252)
(-0.0282157 0.000744905 -0.0162084)
(-0.00985506 0.0112398 0.00355395)
(-0.0047153 -0.00267645 -0.0121983)
(-0.0198669 -0.00712094 0.00522231)
(-0.0166746 0.00707338 -0.000222523)
(-0.0128808 -0.00544721 0.0686876)
(0 0 0)
(-0.0314667 0.0123098 0.0620949)
(-0.0120283 0.00839854 0.0566641)
(0.0170701 -0.00388338 0.0408598)
(-0.00994022 0.00558246 0.0434983)
(-0.00589069 0.0685004 0.0184941)
(-0.016281 0.0676537 -0.00229552)
(-0.0240622 0.0413425 -0.0151141)
(-0.00676177 -3.18595e-05 0.0202318)
(0 0 0)
(5.41818e-05 0.0118644 0.0231271)
(0 0 0)
(0 0 0)
(-0.0413355 0.0264713 -0.020238)
(0 0 0)
(0 0 0)
(0 0 0)
(0 0 0)
(0 0 0)
(0 0 0)
(0 0 0)
(0 0 0)
(0 0 0)
(0 0 0)
(0 0 0)
(0 0 0)
(0 0 0)
(0 0 0)
(0 0 0)
(0 0 0)
(0 0 0)
(0 0 0)
(0 0 0)
(0 0 0)
(0 0 0)
(0 0 0)
(0 0 0)
(0 0 0)
(0 0 0)
(0 0 0)
(0 0 0)
(0 0 0)
(0 0 0)
(0 0 0)
(0 0 0)
(0 0 0)
(0 0 0)
(0 0 0)
(0 0 0)
(0 0 0)
(0 0 0)
(0 0 0)
(0 0 0)
(0 0 0)
(0 0 0)
(0 0 0)
(0 0 0)
(0 0 0)
(0 0 0)
(0 0 0)
(0 0 0)
(0 0 0)
(0 0 0)
(0 0 0)
(0 0 0)
(0 0 0)
(0 0 0)
(0 0 0)
(0 0 0)
(0 0 0)
(0 0 0)
(0 0 0)
(0 0 0)
(0 0 0)
(0 0 0)
(0 0 0)
(0 0 0)
(0 0 0)
(0 0 0)
(0 0 0)
(0 0 0)
(0 0 0)
(0 0 0)
(0 0 0)
(0 0 0)
(0 0 0)
(0 0 0)
(0 0 0)
(0 0 0)
(0 0 0)
(0 0 0)
(0 0 0)
(0 0 0)
(0 0 0)
(0 0 0)
(0 0 0)
(0 0 0)
(0 0 0)
(0 0 0)
(0 0 0)
(0 0 0)
(0 0 0)
(0 0 0)
(0 0 0)
(0 0 0)
(0 0 0)
(0 0 0)
(0 0 0)
(0 0 0)
(0 0 0)
(0 0 0)
(0 0 0)
(0 0 0)
(0 0 0)
(0 0 0)
(0 0 0)
(0 0 0)
(0 0 0)
(0 0 0)
(0 0 0)
(0 0 0)
(0 0 0)
(0 0 0)
(0 0 0)
(0 0 0)
(0 0 0)
(0 0 0)
(0 0 0)
(0 0 0)
(0 0 0)
(0 0 0)
(0 0 0)
(0 0 0)
(0 0 0)
(0 0 0)
(0 0 0)
(0 0 0)
(0 0 0)
(0 0 0)
(0 0 0)
(0 0 0)
(0 0 0)
(0 0 0)
(0 0 0)
(0 0 0)
(0 0 0)
(0 0 0)
(0 0 0)
(0 0 0)
(0 0 0)
(0 0 0)
(0 0 0)
(0 0 0)
(0 0 0)
(0 0 0)
(0 0 0)
(0 0 0)
(0 0 0)
(0 0 0)
(0 0 0)
(0 0 0)
(0 0 0)
(0 0 0)
(0 0 0)
(0 0 0)
(0 0 0)
(0 0 0)
(0 0 0)
(0 0 0)
(0 0 0)
(0 0 0)
(0 0 0)
(0 0 0)
(0 0 0)
(0 0 0)
(0 0 0)
(0 0 0)
(0 0 0)
(0 0 0)
(0 0 0)
(0 0 0)
(0 0 0)
(0 0 0)
(0 0 0)
(0 0 0)
(0 0 0)
(0 0 0)
(0 0 0)
(0 0 0)
(0 0 0)
(0 0 0)
(0 0 0)
(0 0 0)
(0 0 0)
(0 0 0)
(0 0 0)
(0 0 0)
(0 0 0)
(0 0 0)
(0 0 0)
(0 0 0)
(0 0 0)
(0 0 0)
(0 0 0)
(0 0 0)
(0 0 0)
(0 0 0)
(0 0 0)
(0 0 0)
(0 0 0)
(0 0 0)
(0 0 0)
(0 0 0)
(0 0 0)
(0 0 0)
(0 0 0)
(0 0 0)
(0 0 0)
(0 0 0)
(0 0 0)
(0 0 0)
(0 0 0)
(0 0 0)
(0 0 0)
(0 0 0)
(0 0 0)
(0 0 0)
(0 0 0)
(0 0 0)
(0 0 0)
(0 0 0)
(0 0 0)
(0 0 0)
(0 0 0)
(0 0 0)
(0 0 0)
(0 0 0)
(0 0 0)
(0 0 0)
(0 0 0)
(0 0 0)
(0 0 0)
(0 0 0)
(0 0 0)
(0 0 0)
(0 0 0)
(0 0 0)
(0 0 0)
(0 0 0)
(0 0 0)
(0 0 0)
(0 0 0)
(0 0 0)
(0 0 0)
(0 0 0)
(0 0 0)
(0 0 0)
(0 0 0)
(0 0 0)
(0 0 0)
(0 0 0)
(0 0 0)
(0 0 0)
(0 0 0)
(0 0 0)
(0 0 0)
(0 0 0)
(0 0 0)
(0 0 0)
(0 0 0)
(0 0 0)
(0 0 0)
(0 0 0)
(0 0 0)
(0 0 0)
(0 0 0)
(0 0 0)
(0 0 0)
(0 0 0)
(0 0 0)
(0 0 0)
(0 0 0)
(0 0 0)
(0 0 0)
(0 0 0)
(0 0 0)
(0 0 0)
(0 0 0)
(0 0 0)
(0 0 0)
(0 0 0)
(0 0 0)
(0 0 0)
(0 0 0)
(0 0 0)
(0 0 0)
(0 0 0)
(0 0 0)
(0 0 0)
(0 0 0)
(0 0 0)
(0 0 0)
(0 0 0)
(0 0 0)
(0 0 0)
(0 0 0)
(0 0 0)
(0 0 0)
(0 0 0)
(0 0 0)
(0 0 0)
(0 0 0)
(0 0 0)
(0 0 0)
(0 0 0)
(0 0 0)
(0 0 0)
(0 0 0)
(0 0 0)
(0 0 0)
(0 0 0)
(0 0 0)
(0 0 0)
(0 0 0)
(0 0 0)
(0 0 0)
(0 0 0)
(0 0 0)
(0 0 0)
(0 0 0)
(0 0 0)
(0 0 0)
(0 0 0)
(0 0 0)
(0 0 0)
(0 0 0)
(0 0 0)
(0 0 0)
(0 0 0)
(0 0 0)
(0 0 0)
(0 0 0)
(0 0 0)
(0 0 0)
(0 0 0)
(0 0 0)
(0 0 0)
(0 0 0)
(0 0 0)
(0 0 0)
(0 0 0)
(0 0 0)
(0 0 0)
(0 0 0)
(0 0 0)
(0 0 0)
(0 0 0)
(0 0 0)
(0 0 0)
(0 0 0)
(0 0 0)
(0 0 0)
(0 0 0)
(0 0 0)
(0 0 0)
(0 0 0)
(0 0 0)
(0 0 0)
(0 0 0)
(0 0 0)
(0 0 0)
(0 0 0)
(0 0 0)
(0 0 0)
(0 0 0)
(0 0 0)
(0 0 0)
(0 0 0)
(0 0 0)
(0 0 0)
(0 0 0)
(0 0 0)
(0 0 0)
(0 0 0)
(0 0 0)
(0 0 0)
(0 0 0)
(0 0 0)
(0 0 0)
(0 0 0)
(0 0 0)
(0 0 0)
(0 0 0)
(0 0 0)
(0 0 0)
(0 0 0)
(0 0 0)
(0 0 0)
(0 0 0)
(0 0 0)
(0 0 0)
(0 0 0)
(0 0 0)
(0 0 0)
(0 0 0)
(0 0 0)
(0 0 0)
(0 0 0)
(0 0 0)
(0 0 0)
(0 0 0)
(0 0 0)
(0 0 0)
(0 0 0)
(0 0 0)
(0 0 0)
(0 0 0)
(0 0 0)
(0 0 0)
(0 0 0)
(0 0 0)
(0 0 0)
(0 0 0)
(0 0 0)
(0 0 0)
(0 0 0)
(0 0 0)
(0 0 0)
(0 0 0)
(0 0 0)
(0 0 0)
(0 0 0)
(0 0 0)
(0 0 0)
(0 0 0)
(0 0 0)
(0 0 0)
(0 0 0)
(0 0 0)
(0 0 0)
(0 0 0)
(0 0 0)
(0 0 0)
(0 0 0)
(0 0 0)
(0 0 0)
(0 0 0)
(0 0 0)
(0 0 0)
(0 0 0)
(0 0 0)
(0 0 0)
(0 0 0)
(0 0 0)
(0 0 0)
(0 0 0)
(0 0 0)
(0 0 0)
(0 0 0)
(0 0 0)
(0 0 0)
(0 0 0)
(0 0 0)
(0 0 0)
(0 0 0)
(0 0 0)
(0 0 0)
(0 0 0)
(0 0 0)
(0 0 0)
(0 0 0)
(0 0 0)
(0 0 0)
(0 0 0)
(0 0 0)
(0 0 0)
(0 0 0)
(0 0 0)
(0 0 0)
(0 0 0)
(0 0 0)
(0 0 0)
(0 0 0)
(0 0 0)
(0 0 0)
(0 0 0)
(0 0 0)
(0 0 0)
(0 0 0)
(0 0 0)
(0 0 0)
(0 0 0)
(0 0 0)
(0 0 0)
(0 0 0)
(0 0 0)
(0 0 0)
(0 0 0)
(0 0 0)
(0 0 0)
(0 0 0)
(0 0 0)
(0 0 0)
(0 0 0)
(0 0 0)
(0 0 0)
(0 0 0)
(0 0 0)
(0 0 0)
(0 0 0)
(0 0 0)
(0 0 0)
(0 0 0)
(0 0 0)
(0 0 0)
(0 0 0)
(0 0 0)
(0 0 0)
(0 0 0)
(0 0 0)
(0 0 0)
(0 0 0)
(0 0 0)
(0 0 0)
(0 0 0)
(0 0 0)
(0 0 0)
(0 0 0)
(0 0 0)
(0 0 0)
(0 0 0)
(0 0 0)
(0 0 0)
(0 0 0)
(0 0 0)
(0 0 0)
(0 0 0)
(0 0 0)
(0 0 0)
(0 0 0)
(0 0 0)
(0 0 0)
(0 0 0)
(0 0 0)
(0 0 0)
(0 0 0)
(0 0 0)
(0 0 0)
(0 0 0)
(0 0 0)
(0 0 0)
(0 0 0)
(0 0 0)
(0 0 0)
(0 0 0)
(0 0 0)
(0 0 0)
(0 0 0)
(0 0 0)
(0 0 0)
(0 0 0)
(0 0 0)
(0 0 0)
(0 0 0)
(0 0 0)
(0 0 0)
(0 0 0)
(0 0 0)
(0 0 0)
(0 0 0)
(0 0 0)
(0 0 0)
(0 0 0)
(0 0 0)
(0 0 0)
(0 0 0)
(0 0 0)
(0 0 0)
(0 0 0)
(0 0 0)
(0 0 0)
(0 0 0)
(0 0 0)
(0 0 0)
(0 0 0)
(0 0 0)
(0 0 0)
(0 0 0)
(0 0 0)
(0 0 0)
(0 0 0)
(0 0 0)
(0 0 0)
(0 0 0)
(0 0 0)
(0 0 0)
(0 0 0)
(0 0 0)
(0 0 0)
(0 0 0)
(0 0 0)
(0 0 0)
(0 0 0)
(0 0 0)
(0 0 0)
(0 0 0)
(0 0 0)
(0 0 0)
(0 0 0)
(0 0 0)
(0 0 0)
(0 0 0)
(0 0 0)
(0 0 0)
(0 0 0)
(0 0 0)
(0 0 0)
(0 0 0)
(0 0 0)
(0 0 0)
(0 0 0)
(0 0 0)
(0 0 0)
(0 0 0)
(0 0 0)
(0 0 0)
(0 0 0)
(0 0 0)
(0 0 0)
(0 0 0)
(0 0 0)
(0 0 0)
(0 0 0)
(0 0 0)
(0 0 0)
(0 0 0)
(0 0 0)
(0 0 0)
(0 0 0)
(0 0 0)
(0 0 0)
(0 0 0)
(0 0 0)
(0 0 0)
(0 0 0)
(0 0 0)
(0 0 0)
(0 0 0)
(0 0 0)
(0 0 0)
(0 0 0)
(0 0 0)
(0 0 0)
(0 0 0)
(0 0 0)
(0 0 0)
(0 0 0)
(0 0 0)
(0 0 0)
(0 0 0)
(0 0 0)
(0 0 0)
(0 0 0)
(0 0 0)
(0 0 0)
(0 0 0)
(0 0 0)
(0 0 0)
(0 0 0)
(0 0 0)
(0 0 0)
(0 0 0)
(0 0 0)
(0 0 0)
(0 0 0)
(0 0 0)
(0 0 0)
(0 0 0)
(0 0 0)
(0 0 0)
(0 0 0)
(0 0 0)
(0 0 0)
(0 0 0)
(0 0 0)
(0 0 0)
(0 0 0)
(0 0 0)
(0 0 0)
(0 0 0)
(0 0 0)
(0 0 0)
(0 0 0)
(0 0 0)
(0 0 0)
(0 0 0)
(0 0 0)
(0 0 0)
(0 0 0)
(0 0 0)
(0 0 0)
(0 0 0)
(0 0 0)
(0 0 0)
(0 0 0)
(0 0 0)
(0 0 0)
(0 0 0)
(0 0 0)
(0 0 0)
(0 0 0)
(0 0 0)
(0 0 0)
(0 0 0)
(0 0 0)
(0 0 0)
(0 0 0)
(0 0 0)
(0 0 0)
(0 0 0)
(0 0 0)
(0 0 0)
(0 0 0)
(0 0 0)
(0 0 0)
(0 0 0)
(0 0 0)
(0 0 0)
(0 0 0)
(0 0 0)
(0 0 0)
(0 0 0)
(0 0 0)
(0 0 0)
(0 0 0)
(0 0 0)
(0 0 0)
(0 0 0)
(0 0 0)
(0 0 0)
(0 0 0)
(0 0 0)
(0 0 0)
(0 0 0)
(0 0 0)
(0 0 0)
(0 0 0)
(0 0 0)
(0 0 0)
(0 0 0)
(0 0 0)
(0 0 0)
(0 0 0)
(0 0 0)
(0 0 0)
(0 0 0)
(0 0 0)
(0 0 0)
(0 0 0)
(0 0 0)
(0 0 0)
(0 0 0)
(0 0 0)
(0 0 0)
(0 0 0)
(0 0 0)
(0 0 0)
(0 0 0)
(0 0 0)
(0 0 0)
(0 0 0)
(0 0 0)
(0 0 0)
(0 0 0)
(0 0 0)
(0 0 0)
(0 0 0)
(0 0 0)
(0 0 0)
(0 0 0)
(0 0 0)
(0 0 0)
(0 0 0)
(0 0 0)
(0 0 0)
(0 0 0)
(0 0 0)
(0 0 0)
(0 0 0)
(0 0 0)
(0 0 0)
(0 0 0)
(0 0 0)
(0 0 0)
(0 0 0)
(0 0 0)
(0 0 0)
(0 0 0)
(0 0 0)
(0 0 0)
(0 0 0)
(0 0 0)
(0 0 0)
(0 0 0)
(0 0 0)
(0 0 0)
(0 0 0)
(0 0 0)
(0 0 0)
(0 0 0)
(0 0 0)
(0 0 0)
(0 0 0)
(0 0 0)
(0 0 0)
(0 0 0)
(0 0 0)
(0 0 0)
(0 0 0)
(0 0 0)
(0 0 0)
(0 0 0)
(0 0 0)
(0 0 0)
(0 0 0)
(0 0 0)
(0 0 0)
(0 0 0)
(0 0 0)
(0 0 0)
(0 0 0)
(0 0 0)
(0 0 0)
(0 0 0)
(0 0 0)
(0 0 0)
(0 0 0)
(0 0 0)
(0 0 0)
(0 0 0)
(0 0 0)
(0 0 0)
(0 0 0)
(0 0 0)
(0 0 0)
(0 0 0)
(0 0 0)
(0 0 0)
(0 0 0)
(0 0 0)
(0 0 0)
(0 0 0)
(0 0 0)
(0 0 0)
(0 0 0)
(0 0 0)
(0 0 0)
(0 0 0)
(0 0 0)
(0 0 0)
(0 0 0)
(0 0 0)
(0 0 0)
(0 0 0)
(0 0 0)
(0 0 0)
(0 0 0)
(0 0 0)
(0 0 0)
(0 0 0)
(0 0 0)
(0 0 0)
(0 0 0)
(0 0 0)
(0 0 0)
(0 0 0)
(0 0 0)
(0 0 0)
(0 0 0)
(0 0 0)
(0 0 0)
(0 0 0)
(0 0 0)
(0 0 0)
(0 0 0)
(0 0 0)
(0 0 0)
(0 0 0)
(0 0 0)
(0 0 0)
(0 0 0)
(0 0 0)
(0 0 0)
(0 0 0)
(0 0 0)
(0 0 0)
(0 0 0)
(0 0 0)
(0 0 0)
(0 0 0)
(0 0 0)
(0 0 0)
(0 0 0)
(0 0 0)
(0 0 0)
(0 0 0)
(0 0 0)
(0 0 0)
(0 0 0)
(0 0 0)
(0 0 0)
(0 0 0)
(0 0 0)
(0 0 0)
(0 0 0)
(0 0 0)
(0 0 0)
(0 0 0)
(0 0 0)
(0 0 0)
(0 0 0)
(0 0 0)
(0 0 0)
(0 0 0)
(0 0 0)
(0 0 0)
(0 0 0)
(0 0 0)
(0 0 0)
(0 0 0)
(0 0 0)
(0 0 0)
(0 0 0)
(0 0 0)
(0 0 0)
(0 0 0)
(0 0 0)
(0 0 0)
(0 0 0)
(0 0 0)
(0 0 0)
(0 0 0)
(0 0 0)
(0 0 0)
(0 0 0)
(0 0 0)
(0 0 0)
(0 0 0)
(0 0 0)
(0 0 0)
(0 0 0)
(0 0 0)
(0 0 0)
(0 0 0)
(0 0 0)
(0 0 0)
(0 0 0)
(0 0 0)
(0 0 0)
(0 0 0)
(0 0 0)
(0 0 0)
(0 0 0)
(0 0 0)
(0 0 0)
(0 0 0)
(0 0 0)
(0 0 0)
(0 0 0)
(0 0 0)
(0 0 0)
(0 0 0)
(0 0 0)
(0 0 0)
(0 0 0)
(0 0 0)
(0 0 0)
(0 0 0)
(0 0 0)
(0 0 0)
(0 0 0)
(0 0 0)
(0 0 0)
(0 0 0)
(0 0 0)
(0 0 0)
(0 0 0)
(0 0 0)
(0 0 0)
(0 0 0)
(0 0 0)
(0 0 0)
(0 0 0)
(0 0 0)
(0 0 0)
(0 0 0)
(0 0 0)
(0 0 0)
(0 0 0)
(0 0 0)
(0 0 0)
(0 0 0)
(0 0 0)
(0 0 0)
(0 0 0)
(0 0 0)
(0 0 0)
(0 0 0)
(0 0 0)
(0 0 0)
(0 0 0)
(0 0 0)
(0 0 0)
(0 0 0)
(0 0 0)
(0 0 0)
(0 0 0)
(0 0 0)
(0 0 0)
(0 0 0)
(0 0 0)
(0 0 0)
(0 0 0)
(0 0 0)
(0 0 0)
(0 0 0)
(0 0 0)
(0 0 0)
(0 0 0)
(0 0 0)
(0 0 0)
(0 0 0)
(0 0 0)
(0 0 0)
(0 0 0)
(0 0 0)
(0 0 0)
(0 0 0)
(0 0 0)
(0 0 0)
(0 0 0)
(0 0 0)
(0 0 0)
(0 0 0)
(0 0 0)
(0 0 0)
(0 0 0)
(0 0 0)
(0 0 0)
(0 0 0)
(0 0 0)
(0 0 0)
(0 0 0)
(0 0 0)
(0 0 0)
(0 0 0)
(0 0 0)
(0 0 0)
(0 0 0)
(0 0 0)
(0 0 0)
(0 0 0)
(0 0 0)
(0 0 0)
(0 0 0)
(0 0 0)
(0 0 0)
(0 0 0)
(0 0 0)
(0 0 0)
(0 0 0)
(0 0 0)
(0 0 0)
(0 0 0)
(0 0 0)
(0 0 0)
(0 0 0)
(0 0 0)
(0 0 0)
(0 0 0)
(0 0 0)
(0 0 0)
(0 0 0)
(0 0 0)
(0 0 0)
(0 0 0)
(0 0 0)
(0 0 0)
(0 0 0)
(0 0 0)
(0 0 0)
(0 0 0)
(0 0 0)
(0 0 0)
(0 0 0)
(0 0 0)
(0 0 0)
(0 0 0)
(0 0 0)
(0 0 0)
(0 0 0)
(0 0 0)
(0 0 0)
(0 0 0)
(0 0 0)
(0 0 0)
(0 0 0)
(0 0 0)
(0 0 0)
(0 0 0)
(0 0 0)
(0 0 0)
(0 0 0)
(0 0 0)
(0 0 0)
(0 0 0)
(0 0 0)
(0 0 0)
(0 0 0)
(0 0 0)
(0 0 0)
(0 0 0)
(0 0 0)
(0 0 0)
(0 0 0)
(0 0 0)
(0 0 0)
(0 0 0)
(0 0 0)
(0 0 0)
(0 0 0)
(0 0 0)
(0 0 0)
(0 0 0)
(0 0 0)
(0 0 0)
(0 0 0)
(0 0 0)
(0 0 0)
(0 0 0)
(0 0 0)
(0 0 0)
(0 0 0)
(0 0 0)
(0 0 0)
(0 0 0)
(0 0 0)
(0 0 0)
(0 0 0)
(0 0 0)
(0 0 0)
(0 0 0)
(0 0 0)
(0 0 0)
(0 0 0)
(0 0 0)
(0 0 0)
(0 0 0)
(0 0 0)
(0 0 0)
(0 0 0)
(0 0 0)
(0 0 0)
(0 0 0)
(0 0 0)
(0 0 0)
(0 0 0)
(0 0 0)
(0 0 0)
(0 0 0)
(0 0 0)
(0 0 0)
(0 0 0)
(0 0 0)
(0 0 0)
(0 0 0)
(0 0 0)
(0 0 0)
(0 0 0)
(0 0 0)
(0 0 0)
(0 0 0)
(0 0 0)
(0 0 0)
(0 0 0)
(0 0 0)
(0 0 0)
(0 0 0)
(0 0 0)
(0 0 0)
(0 0 0)
(0 0 0)
(0 0 0)
(0 0 0)
(0 0 0)
(0 0 0)
(0 0 0)
(0 0 0)
(0 0 0)
(0 0 0)
(0 0 0)
(0 0 0)
(0 0 0)
(0 0 0)
(0 0 0)
(0 0 0)
(0 0 0)
(0 0 0)
(0 0 0)
(0 0 0)
(0 0 0)
(0 0 0)
(0 0 0)
(0 0 0)
(0 0 0)
(0 0 0)
(0 0 0)
(0 0 0)
(0 0 0)
(0 0 0)
(0 0 0)
(0 0 0)
(0 0 0)
(0 0 0)
(0 0 0)
(0 0 0)
(0 0 0)
(0 0 0)
(0 0 0)
(0 0 0)
(0 0 0)
(0 0 0)
(0 0 0)
(0 0 0)
(0 0 0)
(0 0 0)
(0 0 0)
(0 0 0)
(0 0 0)
(0 0 0)
(0 0 0)
(0 0 0)
(0 0 0)
(0 0 0)
(0 0 0)
(0 0 0)
(0 0 0)
(0 0 0)
(0 0 0)
(0 0 0)
(0 0 0)
(0 0 0)
(0 0 0)
(0 0 0)
(0 0 0)
(0 0 0)
(0 0 0)
(0 0 0)
(0 0 0)
(0 0 0)
(0 0 0)
(0 0 0)
(0 0 0)
(0 0 0)
(0 0 0)
(0 0 0)
(0 0 0)
(0 0 0)
(0 0 0)
(0 0 0)
(0 0 0)
(0 0 0)
(0 0 0)
(0 0 0)
(0 0 0)
(0 0 0)
(0 0 0)
(0 0 0)
(0 0 0)
(0 0 0)
(0 0 0)
(0 0 0)
(0 0 0)
(0 0 0)
(0 0 0)
(0 0 0)
(0 0 0)
(0 0 0)
(0 0 0)
(0 0 0)
(0 0 0)
(0 0 0)
(0 0 0)
(0 0 0)
(0 0 0)
(0 0 0)
(0 0 0)
(0 0 0)
(0 0 0)
(0 0 0)
(0 0 0)
(0 0 0)
(0 0 0)
(0 0 0)
(0 0 0)
(0 0 0)
(0 0 0)
(0 0 0)
(0 0 0)
(0 0 0)
(0 0 0)
(0 0 0)
(0 0 0)
(0 0 0)
(0 0 0)
(0 0 0)
(0 0 0)
(0 0 0)
(0 0 0)
(0 0 0)
(0 0 0)
(0 0 0)
(0 0 0)
(0 0 0)
(0 0 0)
(0 0 0)
(0 0 0)
(0 0 0)
(0 0 0)
(0 0 0)
(0 0 0)
(0 0 0)
(0 0 0)
(0 0 0)
(0 0 0)
(0 0 0)
(0 0 0)
(0 0 0)
(0 0 0)
(0 0 0)
(0 0 0)
(0 0 0)
(0 0 0)
(0 0 0)
(0 0 0)
(0 0 0)
(0 0 0)
(0 0 0)
(0 0 0)
(0 0 0)
(0 0 0)
(0 0 0)
(0 0 0)
(0 0 0)
(0 0 0)
(0 0 0)
(0 0 0)
(0 0 0)
(0 0 0)
(0 0 0)
(0 0 0)
(0 0 0)
(0 0 0)
(0 0 0)
(0 0 0)
(0 0 0)
(0 0 0)
(0 0 0)
(0 0 0)
(0 0 0)
(0 0 0)
(0 0 0)
(0 0 0)
(0 0 0)
(0 0 0)
(0 0 0)
(0 0 0)
(0 0 0)
(0 0 0)
(0 0 0)
(0 0 0)
(0 0 0)
(0 0 0)
(0 0 0)
(0 0 0)
(0 0 0)
(0 0 0)
(0 0 0)
(0 0 0)
(0 0 0)
(0 0 0)
(0 0 0)
(0 0 0)
(0 0 0)
(0 0 0)
(0 0 0)
(0 0 0)
(0 0 0)
(0 0 0)
(0 0 0)
(0 0 0)
(0 0 0)
(0 0 0)
(0 0 0)
(0 0 0)
(0 0 0)
(0 0 0)
(0 0 0)
(0 0 0)
(0 0 0)
(0 0 0)
(0 0 0)
(0 0 0)
(0 0 0)
(0 0 0)
(0 0 0)
(0 0 0)
(0 0 0)
(0 0 0)
(0 0 0)
(0 0 0)
(0 0 0)
(0 0 0)
(0 0 0)
(0 0 0)
(0 0 0)
(0 0 0)
(0 0 0)
(0 0 0)
(0 0 0)
(0 0 0)
(0 0 0)
(0 0 0)
(0 0 0)
(0 0 0)
(0 0 0)
(0 0 0)
(0 0 0)
(0 0 0)
(0 0 0)
(0 0 0)
(0 0 0)
(0 0 0)
(0 0 0)
(0 0 0)
(0 0 0)
(0 0 0)
(0 0 0)
(0 0 0)
(0 0 0)
(0 0 0)
(0 0 0)
(0 0 0)
(0 0 0)
(0 0 0)
(0 0 0)
(0 0 0)
(0 0 0)
(0 0 0)
(0 0 0)
(0 0 0)
(0 0 0)
(0 0 0)
(0 0 0)
(0 0 0)
(0 0 0)
(0 0 0)
(0 0 0)
(0 0 0)
(0 0 0)
(0 0 0)
(0 0 0)
(0 0 0)
(0 0 0)
(0 0 0)
(0 0 0)
(0 0 0)
(0 0 0)
(0 0 0)
(0 0 0)
(0 0 0)
(0 0 0)
(0 0 0)
(0 0 0)
(0 0 0)
(0 0 0)
(0 0 0)
(0 0 0)
(0 0 0)
(0 0 0)
(0 0 0)
(0 0 0)
(0 0 0)
(0 0 0)
(0 0 0)
(0 0 0)
(0 0 0)
(0 0 0)
(0 0 0)
(0 0 0)
(0 0 0)
(0 0 0)
(0 0 0)
(0 0 0)
(0 0 0)
(0 0 0)
(0 0 0)
(0 0 0)
(0 0 0)
(0 0 0)
(0 0 0)
(0 0 0)
(0 0 0)
(0 0 0)
(0 0 0)
(0 0 0)
(0 0 0)
(0 0 0)
(0 0 0)
(0 0 0)
(0 0 0)
(0 0 0)
(0 0 0)
(0 0 0)
(0 0 0)
(0 0 0)
(0 0 0)
(0 0 0)
(0 0 0)
(0 0 0)
(0 0 0)
(0 0 0)
(0 0 0)
(0 0 0)
(0 0 0)
(0 0 0)
(0 0 0)
(0 0 0)
(0 0 0)
(0 0 0)
(0 0 0)
(0 0 0)
(0 0 0)
(0 0 0)
(0 0 0)
(0 0 0)
(0 0 0)
(0 0 0)
(0 0 0)
(0 0 0)
(0 0 0)
(0 0 0)
(0 0 0)
(0 0 0)
(0 0 0)
(0 0 0)
(0 0 0)
(0 0 0)
(0 0 0)
(0 0 0)
(0 0 0)
(0 0 0)
(0 0 0)
(0 0 0)
(0 0 0)
(0 0 0)
(0 0 0)
(0 0 0)
(0 0 0)
(0 0 0)
(0 0 0)
(0 0 0)
(0 0 0)
(0 0 0)
(0 0 0)
(0 0 0)
(0 0 0)
(0 0 0)
(0 0 0)
(0 0 0)
(0 0 0)
(0 0 0)
(0 0 0)
(0 0 0)
(0 0 0)
(0 0 0)
(0 0 0)
(0 0 0)
(0 0 0)
(0 0 0)
(0 0 0)
(0 0 0)
(0 0 0)
(0 0 0)
(0 0 0)
(0 0 0)
(0 0 0)
(0 0 0)
(0 0 0)
(0 0 0)
(0 0 0)
(0 0 0)
(0 0 0)
(0 0 0)
(0 0 0)
(0 0 0)
(0 0 0)
(0 0 0)
(0 0 0)
(0 0 0)
(0 0 0)
(0 0 0)
(0 0 0)
(0 0 0)
(0 0 0)
(0 0 0)
(0 0 0)
(0 0 0)
(0 0 0)
(0 0 0)
(0 0 0)
(0 0 0)
(0 0 0)
(0 0 0)
(0 0 0)
(0 0 0)
(0 0 0)
(0 0 0)
(0 0 0)
(0 0 0)
(0 0 0)
(0 0 0)
(0 0 0)
(0 0 0)
(0 0 0)
(0 0 0)
(0 0 0)
(0 0 0)
(0 0 0)
(0 0 0)
(0 0 0)
(0 0 0)
(0 0 0)
(0 0 0)
(0 0 0)
(0 0 0)
(0 0 0)
(0 0 0)
(0 0 0)
(0 0 0)
(0 0 0)
(0 0 0)
(0 0 0)
(0 0 0)
(0 0 0)
(0 0 0)
(0 0 0)
(0 0 0)
(0 0 0)
(0 0 0)
(0 0 0)
(0 0 0)
(0 0 0)
(0 0 0)
(0 0 0)
(0 0 0)
(0 0 0)
(0 0 0)
(0 0 0)
(0 0 0)
(0 0 0)
(0 0 0)
(0 0 0)
(0 0 0)
(0 0 0)
(0 0 0)
(0 0 0)
(0 0 0)
(0 0 0)
(0 0 0)
(0 0 0)
(0 0 0)
(0 0 0)
(0 0 0)
(0 0 0)
(0 0 0)
(0 0 0)
(0 0 0)
(0 0 0)
(0 0 0)
(0 0 0)
(0 0 0)
(0 0 0)
(0 0 0)
(0 0 0)
(0 0 0)
(0 0 0)
(0 0 0)
(0 0 0)
(0 0 0)
(0 0 0)
(0 0 0)
(0 0 0)
(0 0 0)
(0 0 0)
(0 0 0)
(0 0 0)
(0 0 0)
(0 0 0)
(0 0 0)
(0 0 0)
(0 0 0)
(0 0 0)
(0 0 0)
(0 0 0)
(0 0 0)
(0 0 0)
(0 0 0)
(0 0 0)
(0 0 0)
(0 0 0)
(0 0 0)
(0 0 0)
(0 0 0)
(0 0 0)
(0 0 0)
(0 0 0)
(0 0 0)
(0 0 0)
(0 0 0)
(0 0 0)
(0 0 0)
(0 0 0)
(0 0 0)
(0 0 0)
(0 0 0)
(0 0 0)
(0 0 0)
(0 0 0)
(0 0 0)
(0 0 0)
(0 0 0)
(0 0 0)
(0 0 0)
(0 0 0)
(0 0 0)
(-0.000653695 0.000416411 0.000798579)
(0.000883377 -0.000330354 0.00137504)
(0.000825609 0.000232407 0.000797052)
(0.00337893 0.00040695 -0.000630073)
(0.000942575 -5.79534e-05 -0.000181943)
(0.00313803 -0.000476432 -0.000275991)
(0.00258174 0.000791444 -0.000380393)
(0.000563663 0.000893043 -0.000264184)
(0.00197125 0.00191941 -0.00134632)
(0.00148441 0.00100552 -0.000184095)
(-0.000138988 0.00224241 1.4191e-05)
(0.00510717 0.00471885 -0.000108761)
(0.00898858 0.00516424 0.00192686)
(0.00367483 0.00475615 -0.000924407)
(0.00140126 0.0011453 -0.00105581)
(0.0013554 0.00447712 -0.000242831)
(0.000817332 0.00625346 -0.00200809)
(0.00313532 0.00279403 -0.00154566)
(0.00505588 0.00458542 -0.00174252)
(0.00363563 0.00778923 -0.000626123)
(0.00561673 0.0124371 0.00068605)
(0.00248003 0.0035433 -0.000244924)
(-0.000457822 0.00205318 -0.000465849)
(0.00170871 0.0109441 0.000118796)
(-0.000215946 0.0044411 -0.000186705)
(-0.00076254 0.00145257 -0.000565209)
(0.000891451 0.00325823 -0.00139538)
(-0.00340609 -0.00329161 -0.000471405)
(0.00149529 -0.00409341 -0.00158665)
(0.00556103 0.00314417 -0.00149422)
(0.00615163 0.00129171 -0.000101346)
(0.00204803 -0.00224078 -0.00131069)
(0.00423069 -0.00210953 -0.000422665)
(0.00578232 0.00320358 0.00133465)
(0.00117456 0.00411608 0.00154392)
(0.00477387 -0.000998791 0.0010199)
(0.000115468 -0.000130916 0.000745738)
(0.000755786 0.000885291 0.000457287)
(0.00303918 0.00748282 0.00266858)
(-0.00380685 0.00279958 -0.00520172)
(0.00595899 0.00296578 -0.0022295)
(-0.00309394 0.00768082 0.00271964)
(-0.00716917 0.00659155 0.000590044)
(-0.00195016 0.0034191 0.00170815)
(-0.00982049 0.00530026 0.000576195)
(-0.0030709 0.00204641 -0.00130056)
(-0.00295614 0.00215595 -0.00161781)
(-0.000811591 0.00047863 -0.00112479)
(-0.00298453 -0.00279517 -9.61209e-05)
(-0.000188086 -0.00378786 -0.00235397)
(0.000245998 -0.00426374 -0.0012871)
(0.000101719 -0.00259779 -0.00108778)
(0.00500984 -0.00166232 -0.00140099)
(0.00295223 -0.00493549 -0.00216333)
(0.00440724 -0.00361227 -0.000974326)
(0.00549477 -0.00178792 0.000650934)
(0.00211278 -0.00112051 0.000287277)
(0.00501721 -0.00209577 0.000376355)
(0.00311537 -0.00096105 0.000234591)
(0.000952743 0.00435653 0.00152509)
(4.63853e-05 0.00323367 0.00200956)
(0.00183314 0.000287056 0.00021119)
(0.000315193 -0.000705022 0.000683197)
(-0.00435739 0.000650818 0.00157151)
(-0.00988902 -0.000833015 0.00166499)
(-0.00605243 -0.00566451 0.00228099)
(-0.0087853 -0.00722679 0.000244604)
(-0.00627969 0.000114588 -0.000859278)
(-0.00230298 -7.76639e-05 -0.000785315)
(-0.00332931 -0.00203889 -0.000660419)
(0.00300046 0.00115365 -0.00212512)
(0.0071792 -0.00389657 -0.00184197)
(0.0070149 -0.00515516 -0.0017394)
(0.00298863 -0.000389898 -0.000842631)
(0.00656703 -0.00280129 -0.0019996)
(0.0052032 -0.00312412 -0.000174891)
(0.00523644 -0.00139132 -0.000783341)
(0.00893146 -0.0035351 -0.000118764)
(0.00560642 -0.00356701 0.000369928)
(0.00302938 -0.00204997 0.000435473)
(-0.0017885 -0.00405201 0.00105616)
(0.00266266 -0.00310434 0.000148832)
(-0.00260662 -0.00420038 0.00055591)
(-0.00821788 -0.00646789 -9.15079e-05)
(-0.00246367 -0.00354338 -0.00141054)
(-0.00463018 -0.00316509 -0.000419794)
(-0.00151599 -0.000581588 -0.000780017)
(-0.000631562 5.10945e-05 -0.000417795)
(0.00224536 0.000743824 -0.000596508)
(0.00400762 -0.000498208 -0.000706602)
(0.00223712 -0.000354937 -0.00140853)
(0.00120646 0.00170599 6.75341e-06)
(0.00205587 -0.000376638 -0.00176326)
(0.000866314 -0.00216024 -0.00152363)
(0.000568026 0.0020078 3.96913e-05)
(0.000319753 -0.00150295 -0.000893698)
(0.00635159 -0.00138262 -0.00295855)
(0.0195925 -0.0059507 -0.0445969)
(0.0112734 -0.0207708 -0.0206205)
(0.0235677 -0.00526501 -0.0241575)
(0.00106253 0.00508385 -0.0271101)
(0.0082128 -0.00275007 -0.142013)
(0.0198414 -0.00882746 -0.0882139)
(0.00152055 0.00257814 -0.13505)
(0.00843035 -0.00660778 -0.00931689)
(0.00252267 -0.00100974 -0.00676562)
(0.0177731 -0.0168826 -0.0951732)
(0.0207841 0.0109943 -0.114205)
(0.0110788 0.00198909 -0.0797997)
(-0.00244421 3.26437e-05 -0.0036196)
(0.00237945 0.00357601 -0.0610162)
(0.00219314 0.00341016 -0.0201978)
(0.00481271 0.00180046 -0.0483826)
(0.0135656 0.00936195 -0.018001)
(0.0173856 0.00797655 -0.0268433)
(0.023279 0.0108181 -0.0647295)
(0.0120036 0.00030354 -0.0321976)
(0.0225178 0.00827937 -0.0509286)
(0.0209638 0.00683711 -0.0642199)
(0.0152788 -0.00382375 -0.135667)
(-0.00188899 0.00427425 -0.00450349)
(0.00239268 0.0241878 -0.00941946)
(-0.00498532 0.0142026 -0.00620329)
(0.000403627 0.00650796 -0.0406122)
(-5.5058e-05 0.00808638 -0.0420971)
(0.00905453 0.00567938 -0.0676269)
(0.00230063 0.0138382 -0.0383884)
(-0.00141793 0.00459701 -0.00415919)
(0.00590773 0.0121099 -0.046097)
(0.00527367 0.00929735 -0.0698617)
(-0.0293103 -0.00783506 -0.0628588)
(0.0105421 -0.0135237 -0.0659111)
(0.00678798 -0.00271482 -0.127287)
(0.00349183 -0.00229692 -0.130189)
(0.0131607 -0.00323398 -0.138165)
(-0.00666957 0.00276787 -0.0111445)
(-0.00254916 0.000352568 -0.00788021)
(-0.00424032 0.0120096 -0.0277305)
(-0.00252735 0.0039525 -0.0408604)
(0.00277018 0.00142415 -0.0328094)
(0.00436542 0.000337631 -0.0563927)
(-0.00165205 -0.00996548 -0.054306)
(-0.00280801 0.00441782 -0.114672)
(0.00110318 0.00642648 -0.111323)
(-0.00537996 0.00264353 -0.079872)
(-0.00281508 0.000228043 -0.00722096)
(-0.000802383 -0.00308199 -0.00706269)
(0.000556915 -0.0013774 -0.0477721)
(0.00102132 0.00204765 -0.0239133)
(-0.00239049 -0.009406 -0.0214029)
(0.00126406 -0.0031857 -0.0233826)
(0.000376532 0.00164608 -0.0547806)
(0.00398765 -0.0170204 -0.0475968)
(0.00740233 -0.00325628 -0.0143437)
(0.0196132 -0.00991503 -0.0250887)
(0.00431101 -0.000485504 -0.0595911)
(-0.0117622 -0.00368502 -0.0933891)
(0.00496105 -0.00190205 -0.0380868)
(0.013203 -0.00636608 -0.0561199)
(-0.000543209 -0.00656411 -0.00867884)
(-0.0026232 -0.00807899 -0.00891674)
(-0.000472971 -0.00079303 -0.00377918)
(0.013477 0.00390759 -0.0892012)
(0.00299619 -0.00826961 -0.0282258)
(0.00079772 -0.00863764 -0.0413785)
(0.00177933 -0.00223584 -0.0207729)
(0.00433096 -0.00812531 -0.0291259)
(0.01266 0.0049845 -0.0154293)
(0.0219102 0.00672043 -0.0440511)
(0.00892697 0.00520555 -0.0493111)
(0.0150148 0.0117804 -0.0136232)
(0.00727741 -0.0101577 -0.10201)
(0.00855027 -0.00706535 -0.122616)
(0.0117251 -0.000776778 -0.111447)
(0.0012978 0.00174169 -0.0394702)
(0.0139521 0.0178812 -0.024622)
(0.0216446 -0.0111354 -0.121783)
(0.00483798 -0.00470815 -0.0933525)
(0.0143634 -0.00704657 -0.134876)
(0.00224006 -0.00346876 -0.0363623)
(-0.00909493 0.00393284 -0.103046)
(-0.0187986 0.0105501 0.0199301)
(-0.0030411 0.0102918 -0.116265)
(-0.0160043 0.00619953 -0.102552)
(-0.0086802 0.0107115 -0.115753)
(-0.0181934 0.0141541 0.00617856)
(-0.0266089 0.0087732 0.00937475)
(-0.0220169 0.0185727 -0.00364628)
(0.00875246 0.0177254 -0.129658)
(0.0251127 0.00814929 -0.127685)
(-0.00655756 0.0197358 0.0162719)
(-0.00282564 0.0234406 -0.0142285)
(0.0119977 0.00438456 -0.0113198)
(0.0190015 0.00634756 -0.153206)
(0.00920673 0.000994302 -0.0138453)
(0.00370502 -0.00641103 -0.071623)
(-0.00277436 0.00324662 0.0180473)
(-0.00795087 -0.00430517 -0.0843084)
(-0.000637263 -0.0103055 -0.0618907)
(-0.00436688 -0.0115785 -0.068113)
(-0.00827802 0.00703089 0.0148047)
(-0.018301 0.00743925 0.0224366)
(-0.00827551 0.003914 0.0251075)
(-0.0144041 0.00291685 0.0287679)
(0.0148004 0.00539389 -0.137168)
(0.0326668 -0.00597107 -0.112914)
(0.0382899 -0.0019483 -0.122252)
(0.0189343 -0.00567464 -0.0127668)
(0.0089354 0.000623613 -0.00193713)
(0.0179107 -0.0187456 -0.00580409)
(0.0216256 -0.0132807 -0.00552872)
(0.0187017 0.014984 -0.127756)
(0.00983961 0.00734335 -0.00244081)
(0.0045992 -0.00832583 -0.0491045)
(0.0120218 0.00841697 -0.038675)
(0.0102341 0.00323591 -0.0498292)
(0.000588 0.00120887 0.0289948)
(0.00520315 0.0028284 0.0286001)
(0.0064585 0.0021458 0.0328296)
(0.0299973 0.0103256 -0.0870196)
(0.0167287 0.015432 -0.0716137)
(0.0142057 0.00517779 0.0172272)
(0.0240773 0.0055299 0.00256444)
(0.0124921 0.00852397 0.0389898)
(0.010785 0.0216925 -0.0363158)
(0.00325618 0.0230884 -0.021314)
(0.00792993 0.00927274 0.0285134)
(0.0111039 0.0143867 0.0278493)
(0.00673928 0.0140966 0.0177523)
(0.00803613 0.00658584 -0.0460489)
(-0.00329377 -0.00227638 -0.0636595)
(0.00683064 0.00461232 0.0133122)
(0.00271294 0.00121241 0.0594424)
(0.00503042 0.00644428 0.0201634)
(0.00725747 0.0156968 -0.0391321)
(0.00685774 0.0114943 0.0032953)
(0.0215531 -0.00129152 -0.0338555)
(0.0105705 0.0102054 -0.0495307)
(0.0212738 -0.00341243 -0.0473398)
(0.00863772 0.0108406 -0.00514889)
(0.00665636 0.00621861 -0.0137643)
(0.0078817 0.00822548 -0.0175204)
(0.00620134 0.00530701 -0.0270283)
(0.0278087 -0.00640171 -0.0863964)
(-0.0543032 0.0074861 -0.078569)
(0.00947113 0.00232699 -0.087843)
(-0.01647 0.0157089 -0.0148814)
(-0.00900532 0.0140821 0.00486681)
(-0.01992 0.00897145 0.00343882)
(-0.0113956 0.0101859 0.00649281)
(-0.00310205 0.00594147 0.00884582)
(0.00388921 -0.00263119 -0.0477611)
(0.00258919 0.0029725 -0.0243289)
(-0.00983326 -0.0482 -0.0534927)
(-0.0133569 -0.0319406 -0.000219291)
(-0.0035885 -0.00194445 -0.0195439)
(-0.0144898 -0.0160876 -0.00693261)
(-0.014424 -0.0145474 0.0201588)
(0.000923235 -0.0577913 -0.0478806)
(0.0011536 -0.0282962 -0.00496456)
(-0.0174309 -0.00984318 0.00777787)
(-0.0204673 -0.000214775 0.0139641)
(-0.0140299 -0.00775777 0.0261594)
(-0.0183568 0.00817918 0.00681296)
(-0.0264253 0.01194 0.0440701)
(-0.0281449 0.00888618 0.0569772)
(-0.0259849 0.00890995 0.0785536)
(-0.0340068 0.0101716 0.0643106)
(-0.0286213 0.0128944 0.0740627)
(-0.0239793 0.00166443 0.0767518)
(-0.032334 0.00797827 0.0689794)
(-0.0281452 0.00470744 0.0739383)
(-0.0127712 0.0143048 0.073569)
(0.00204643 0.00195157 0.0596248)
(-0.0179164 -0.00178245 0.074635)
(-0.0130542 -0.000215998 0.0709286)
(0.00151681 -0.00271193 0.0575112)
(0.00549647 0.000198717 0.0371368)
(0.00845765 -0.00227399 0.0447506)
(-0.00664859 0.00440577 0.023525)
(-0.0144352 0.00113166 0.0350609)
(-0.028376 0.0101037 0.0488964)
(-0.0177645 0.00436504 0.0381646)
(-0.0244952 0.00974343 0.0570577)
(-0.0229486 0.00589645 0.041113)
(-0.0310127 0.00898621 0.0580349)
(-0.0217839 0.0037665 0.0475662)
(-0.0244209 0.0107713 0.0601734)
(0.0109201 0.00624114 0.0225946)
(0.012117 0.0333518 0.0561813)
(0.0145802 0.0189606 0.026715)
(0.0143012 -0.00346211 0.0443255)
(0.0128168 0.0024672 0.0314774)
(0.0109221 0.0150516 0.0432049)
(0.0106202 0.00828206 0.0280796)
(0.0069282 0.00926609 0.0160311)
(0.00429946 0.00411659 0.0216887)
(-0.00500213 0.00374797 0.0320418)
(-0.000383062 0.0054744 0.0242063)
(-0.0034147 0.00464578 0.0351127)
(-0.0112988 0.00420321 0.0373367)
(-0.00387955 0.00396575 0.0284627)
(-0.00713672 0.00573066 0.0352003)
(-0.0299974 0.0025918 0.0212995)
(-0.00727979 0.00154463 0.0660408)
(-0.013147 0.000755232 0.0211426)
(-0.0269987 0.000235374 0.00820953)
(-0.0080087 -0.00557998 0.0326789)
(0.00107787 0.0109223 0.0272441)
(0.00522196 0.0164446 0.0156711)
(-0.00321259 0.00677969 0.0223044)
(-0.00236961 0.0108055 0.0245109)
(0.00146344 0.0178068 0.012513)
(-0.011 0.00965376 0.0748028)
(-0.0227517 0.0186745 0.0151911)
(-0.0323324 0.0114619 0.00610824)
(-0.00896652 0.0100663 0.046024)
(-0.0192245 0.0145659 0.00235262)
(0.00796217 0.0152165 0.00165317)
(0.00577568 0.0194162 0.00108378)
(0.0120624 0.0173721 -0.0116434)
(0.0104643 0.0121681 -0.013734)
(0.0108596 0.0122871 -0.0231236)
(0.0116344 0.0266851 -0.00316328)
(0.0172623 0.0255127 -0.0114457)
(0.0134644 0.0201826 -0.0106794)
(0.0147852 0.0193689 -0.0211186)
(-0.0186102 0.00556367 -0.00395778)
(-0.0230939 0.00826297 -0.0021814)
(-0.0126524 0.0107073 0.000336522)
(-0.0303619 -0.00273637 -0.023777)
(-0.0198934 0.00485668 -0.0133508)
(-0.0232646 0.00862288 -0.00855598)
(-0.0123205 0.0127529 -0.00431705)
(-0.0125336 0.0131321 -0.000935683)
(0.00269124 0.00264686 -0.0170618)
(-0.00411192 0.00628401 -0.0150113)
(-0.0158935 -0.00891827 0.000562516)
(-0.016294 -0.00322041 0.0170582)
(-0.00631749 -0.00173604 -0.0107332)
(-0.0201016 -0.0132175 -0.000245438)
(-0.0202684 -0.0052455 0.0142148)
(-0.0202625 -0.00190385 0.00526232)
(-0.01689 -0.000210054 0.0179279)
(-0.0189429 -0.00955359 -0.00169961)
(-0.0176438 -0.00261955 -0.00237943)
(-0.0180807 0.000640679 0.0134575)
(-0.0191817 0.00769922 -0.00197335)
(-0.0372463 0.00896991 0.0653733)
(0 0 0)
(-0.0211101 -0.00330593 0.0710203)
(-0.0336172 0.00666543 0.0678207)
(-0.025128 0.00246995 0.0680668)