/*--------------------------------*- C++ -*----------------------------------*\
| =========                 |                                                 |
| \\      /  F ield         | OpenFOAM: The Open Source CFD Toolbox           |
|  \\    /   O peration     | Version:  5.x                                   |
|   \\  /    A nd           | Web:      www.OpenFOAM.org                      |
|    \\/     M anipulation  |                                                 |
\*---------------------------------------------------------------------------*/
FoamFile
{
    version     2.0;
    format      ascii;
    class       volVectorField;
    location    "3.5";
    object      U;
}
// * * * * * * * * * * * * * * * * * * * * * * * * * * * * * * * * * * * * * //

dimensions      [0 1 -1 0 0 0 0];

internalField   nonuniform List<vector> 
10571
(
(0.11157 -0.0335317 2.52211)
(0.0084598 0.242693 0.583404)
(0.634561 0.0642268 1.71608)
(0.386519 -0.592239 2.87683)
(-0.425957 -0.415046 2.77923)
(0.26547 0.893117 3.38875)
(0.0833207 0.00562213 3.12239)
(-0.561736 -1.51731 2.86081)
(-0.357241 -1.721 4.13918)
(-0.327081 -0.0974355 1.08791)
(0.316963 -0.241606 0.979603)
(1.10403 -1.69629 4.26739)
(-1.39052 -2.64902 4.43557)
(-2.35992 -1.88568 4.26044)
(-0.642875 -1.39962 2.21287)
(0.0798128 -0.363192 1.56268)
(1.03049 -1.0065 3.8575)
(-0.984194 -2.73828 3.99793)
(-1.63273 -3.03224 3.59736)
(-0.495658 -0.735058 1.20008)
(0.231228 -0.56063 0.948599)
(-0.508679 -0.780529 1.71245)
(-0.524708 -0.390377 2.0154)
(-0.147457 -0.200348 0.807064)
(-0.297778 -0.151933 3.09344)
(-0.176183 0.141682 0.126193)
(-0.461612 0.187765 1.39454)
(-0.30084 -0.527083 3.64635)
(0.0479987 -0.153274 3.06278)
(-0.383316 0.00612922 3.37366)
(-0.92703 -1.13307 4.70489)
(-0.258876 -0.747456 2.57848)
(-0.565596 -0.119969 3.14557)
(-0.389071 -0.344466 0.463632)
(0.0859728 0.230947 1.37491)
(-0.519729 -2.09352 4.07966)
(-0.857045 -2.15565 4.6231)
(-0.310074 -2.39207 4.13231)
(-0.744752 -1.28345 3.32893)
(-0.705386 -0.664274 2.60272)
(-0.455058 -0.649944 1.23159)
(-0.368897 -0.989877 1.52729)
(0.0354445 -0.796875 1.27011)
(0.208424 -0.773811 1.07215)
(0.264905 -0.28386 0.984686)
(-0.28485 -0.203631 0.248112)
(-0.0224175 -0.298432 0.3332)
(0.0223136 -0.114281 0.14462)
(-0.793463 -0.200038 3.46502)
(-0.290395 0.0715874 0.263634)
(-1.13228 0.167016 2.12516)
(-0.879446 -0.40354 3.3654)
(0.406227 0.418575 3.04647)
(-1.08352 0.141034 4.14433)
(-1.26127 -0.150331 4.87538)
(-0.348559 0.033561 2.44728)
(-0.479022 -0.11107 3.53808)
(0.000389279 -0.172164 0.769048)
(0.354288 0.989034 1.81644)
(-0.624263 -0.938868 4.47237)
(-1.41738 -1.45533 4.5565)
(-0.626696 -1.20178 3.04274)
(-0.767426 -0.490918 2.03385)
(-0.473271 -0.209008 1.0884)
(-0.470168 -0.518411 1.58899)
(-0.231563 -0.231884 0.459166)
(-0.0922712 -0.0908462 0.416803)
(-0.046291 -0.183176 0.325539)
(-0.0409558 0.00259584 -0.0101948)
(-0.175127 -0.084617 -0.181196)
(-0.0617595 -0.0884838 -0.117287)
(0.00974538 -0.0367262 -0.215701)
(-1.47022 -0.616051 4.25929)
(-0.403521 -0.0975014 0.777348)
(-1.62494 0.497867 3.52589)
(-0.624473 0.0269481 1.77657)
(0.89632 0.674017 2.68383)
(-1.52905 0.242692 5.31089)
(-0.635414 0.0468553 3.3576)
(-0.375905 -0.0492273 1.93449)
(-0.285257 -0.288044 3.44522)
(0.108471 -0.0915147 1.06442)
(0.215513 0.759985 0.910078)
(-0.631629 -0.0505826 5.25285)
(-1.46376 -0.0997656 3.83702)
(-0.810842 -0.100722 2.01849)
(-0.402811 0.362342 2.70261)
(0.0981758 -0.00858802 0.395692)
(0.357554 -0.229746 1.37203)
(-0.186729 -0.056376 0.186143)
(-0.211433 0.0123004 0.291107)
(-0.316363 0.15307 0.290277)
(-0.0115066 -0.0104875 -0.111163)
(-0.105166 -0.0514868 -0.284731)
(-0.0627185 -0.0256412 -0.280433)
(-0.0169319 0.000594484 -0.306969)
(-1.14981 0.2909 6.32493)
(0.426037 -0.833718 2.42071)
(-1.11604 0.419 4.16033)
(-0.285959 1.09622 2.60911)
(-0.324734 -0.378035 3.62025)
(-1.37337 -0.266731 5.96424)
(0.198966 0.0831882 3.54579)
(-0.200638 -0.229742 3.06017)
(0.00509357 -0.116158 1.97471)
(0.318738 0.157049 2.11614)
(-0.237397 0.468269 0.919628)
(-0.665995 0.474942 6.07567)
(-1.28057 0.151124 4.23764)
(-0.620164 -0.13844 2.23322)
(0.0432263 -0.0169461 0.459867)
(0.101286 -0.147143 -0.016262)
(0.910685 0.699607 1.65305)
(-0.0114868 0.0800065 0.56087)
(-0.161778 0.0604488 0.266031)
(-0.186307 0.142545 0.655574)
(0.0354047 -0.0639271 -0.120483)
(-0.0150478 -0.0189563 -0.29112)
(-0.0269012 -0.0194286 -0.297544)
(-0.0216696 0.0173795 -0.269712)
(-0.223351 0.168904 2.83474)
(0.443381 -0.649848 3.0427)
(-0.548448 -0.476927 4.14018)
(0.0962596 0.229083 2.63963)
(0.0250417 -0.0956094 2.10019)
(-0.72548 -0.747634 4.20603)
(0.317685 -0.141812 2.44141)
(0.311276 -0.144692 2.87825)
(0.000423269 -0.167547 3.36447)
(0.618765 -0.0502765 2.45258)
(-0.00453228 0.00362032 -0.00101957)
(-0.116955 0.562304 2.34056)
(-0.842453 0.85144 6.46817)
(-0.494048 0.0160022 4.35554)
(0.133227 -0.0598727 1.53941)
(0.114103 -0.314547 2.18989)
(-0.196657 -0.141228 0.31017)
(-0.0030228 -0.00474457 -0.00187591)
(0.457609 0.798333 1.73558)
(0.265973 0.387948 0.703618)
(0.105523 0.0820611 0.34712)
(0.0527177 -0.0225897 0.42723)
(0.0310014 -0.0652803 -0.188055)
(0.173438 0.00761496 -0.0665244)
(0.38705 0.0347415 0.0946958)
(0.0614794 -0.0398529 0.011869)
(-0.124877 0.0966473 2.24606)
(0.454647 -0.482598 3.54501)
(-0.142148 -0.47788 4.26664)
(0.218599 0.0565048 2.96798)
(0.172674 -0.027737 1.38479)
(-0.28612 -0.824627 4.49798)
(0.118518 -0.449386 2.40928)
(0.241818 -0.0828098 2.80299)
(-0.0184644 -0.224618 2.67472)
(0.300261 -0.14218 2.41594)
(-0.294128 -0.293804 0.0490872)
(0.18615 0.387593 2.9355)
(-0.642942 0.244925 4.5384)
(-0.163188 -0.0788661 2.89511)
(0.790946 -0.0151283 1.56113)
(0.107208 -0.119683 1.27455)
(-0.103956 -0.475939 0.0818517)
(-0.592104 -0.704571 0.134208)
(0.415459 0.864099 2.62743)
(0.296463 0.517509 0.760365)
(0.166833 -0.0717401 0.240227)
(-0.0807394 0.226677 0.0526771)
(-0.722141 0.050848 -0.362841)
(-1.00955 -0.276085 -0.825877)
(0.324717 0.0646677 0.143606)
(0.301048 0.0378576 0.129067)
(0.109664 -0.0375386 0.059076)
(0.11984 0.13054 2.00476)
(0.452184 -0.507423 3.65685)
(0.0893565 -0.451195 4.18779)
(0.265432 0.0582004 3.08486)
(0.164367 -0.0309956 1.4568)
(-0.0390588 -0.42963 4.14643)
(0.144788 -0.332741 2.30474)
(0.0137584 -0.00540001 2.68014)
(0.0909727 -0.278313 2.60652)
(0.331392 -0.0453227 2.50598)
(-0.205336 0.0201143 0.364641)
(0.0910664 0.0964207 2.80624)
(-0.2912 -0.225047 4.47848)
(-0.143093 -0.11336 2.28531)
(0.595205 0.0245788 1.39322)
(0.101703 0.00978907 1.4432)
(0.226498 -0.376573 0.530658)
(-0.581498 -0.197914 0.0112419)
(0.236825 0.604108 2.63897)
(0.332482 0.218946 0.997866)
(0.0596435 -0.127591 0.372352)
(-0.0481169 0.18757 0.408779)
(-0.103162 0.015967 -0.385607)
(-0.610817 0.104458 -0.919451)
(0.335072 0.00616471 0.326156)
(0.186778 -0.0298091 0.18246)
(-0.0203913 0.012344 0.108241)
(0.423535 0.0748025 1.98966)
(0.417055 -0.422621 3.61846)
(0.196356 -0.379159 4.04246)
(0.302945 0.0506035 3.20338)
(0.135059 -0.0212859 1.46708)
(-0.031739 -0.409978 4.12725)
(0.0590514 -0.180159 2.22887)
(-0.0434111 0.0207474 2.66277)
(0.139961 -0.23502 2.643)
(0.255449 0.167677 2.61193)
(0.831296 0.589887 0.740907)
(0.00566782 -0.0413327 2.7828)
(-0.106065 -0.241772 3.81872)
(-0.19746 -0.162158 2.19917)
(0.17679 0.0459565 1.32423)
(0.12459 0.174728 1.41266)
(0.411476 -0.247007 0.604702)
(0.171531 0.498837 -0.406728)
(0.214442 0.504495 2.75534)
(0.314406 -0.260618 0.903562)
(0.0430143 -0.12724 0.453655)
(0.0373042 0.307784 0.423685)
(0.194009 -0.0288342 -0.165459)
(0.266239 -0.0515486 0.435649)
(0.0810717 -0.00905668 0.223392)
(-0.100614 0.0685592 0.189895)
(0.565039 0.0497953 2.11793)
(0.384152 -0.389332 3.6153)
(0.271948 -0.302024 3.81954)
(0.303041 0.0463869 3.27888)
(0.0906591 0.0170988 1.55329)
(-0.0449705 -0.386702 4.04206)
(0.0384944 -0.191088 2.27339)
(-0.06977 0.0355384 2.65232)
(0.193727 -0.2255 2.60168)
(0.0563477 0.331178 2.78132)
(0.0667456 -0.015431 2.69066)
(-0.129597 -0.213382 3.73807)
(-0.214577 -0.164079 1.85626)
(-0.0891429 0.0373432 1.28045)
(0.159003 0.273525 1.09133)
(-0.189472 0.258092 0.52088)
(0.201769 0.348341 2.71786)
(0.221413 -0.290952 0.798912)
(-0.0133994 -0.105555 0.545503)
(-0.00926903 0.280728 0.42203)
(0.161284 -0.134505 0.125101)
(0.1374 -0.106159 0.422595)
(-0.0619879 0.03671 0.269879)
(-0.110633 0.0760546 0.218311)
(0.664459 0.012003 2.3967)
(0.37331 -0.392655 3.64483)
(0.306783 -0.2563 3.72938)
(0.311482 0.0323572 3.40297)
(0.053545 0.0555546 1.69338)
(-0.0693613 -0.381512 4.0184)
(0.0355998 -0.214792 2.38122)
(-0.112732 0.0424901 2.60359)
(0.20856 -0.245692 2.50212)
(0.0900837 0.386497 2.90245)
(0.0349883 0.0312937 2.50981)
(-0.155643 -0.261299 3.59613)
(-0.159317 -0.149064 1.75439)
(-0.197716 0.0721751 1.22967)
(0.122001 0.288337 0.981441)
(0.0476136 0.232997 0.922539)
(0.145809 0.2249 2.65162)
(0.114064 -0.25337 0.832611)
(-0.108363 -0.0557315 0.594122)
(-0.0810094 0.101115 0.433816)
(0.112371 -0.119612 0.303417)
(0.00954119 -0.0526108 0.466354)
(-0.106448 0.0712553 0.276561)
(-0.0783575 0.0583524 0.191213)
(0.665225 -0.0140752 2.59629)
(0.358534 -0.392017 3.66787)
(0.333161 -0.211207 3.67005)
(0.304396 -0.0175268 3.49969)
(0.0526848 0.0798667 1.82685)
(-0.0670824 -0.399834 4.05694)
(0.0383525 -0.231871 2.47236)
(-0.195871 0.0187309 2.48928)
(0.207141 -0.263287 2.35978)
(0.102066 0.390619 2.96903)
(0.0198886 -0.00506428 2.48023)
(-0.23449 -0.259573 3.52522)
(-0.135964 -0.135424 1.7079)
(-0.232169 0.105635 1.17997)
(0.02472 0.255633 0.877275)
(0.0170668 0.322101 1.20772)
(0.0949283 0.17093 2.62147)
(-0.0240206 -0.201951 0.868418)
(-0.179127 -0.0139484 0.603048)
(-0.0436205 -0.0197429 0.39553)
(0.0803191 -0.117208 0.34966)
(-0.0385996 0.0491738 0.554778)
(-0.106249 0.0699455 0.24472)
(-0.0229405 0.00422769 0.168846)
(0.657548 -0.0247494 2.7725)
(0.351833 -0.399053 3.72086)
(0.338261 -0.198704 3.65322)
(0.288685 -0.0552773 3.58239)
(0.0647451 0.101278 2.01626)
(-0.0518018 -0.428536 4.10309)
(0.0650623 -0.241388 2.55497)
(-0.247077 -0.0282325 2.37747)
(0.219003 -0.231948 2.20125)
(0.111068 0.343693 3.05093)
(0.0020548 -0.0291196 2.52503)
(-0.293515 -0.222955 3.47385)
(-0.141879 -0.123448 1.64369)
(-0.230892 0.089111 1.13811)
(-0.0185307 0.196071 0.785286)
(0.0169577 0.446344 1.48562)
(0.0662615 0.14755 2.62597)
(-0.114247 -0.1449 0.900529)
(-0.201218 -0.0087626 0.570135)
(-0.0245648 -0.0781399 0.348999)
(0.0714609 -0.113488 0.378351)
(-0.00335244 0.124582 0.647957)
(-0.0625412 0.0590761 0.206397)
(0.0250882 -0.0273446 0.137806)
(0.604484 -0.0383589 2.9438)
(0.344251 -0.401418 3.75908)
(0.343419 -0.204245 3.67635)
(0.265841 -0.0607552 3.61801)
(0.0659883 0.105737 2.20397)
(-0.0233668 -0.446407 4.10851)
(0.0906653 -0.251985 2.6167)
(-0.233562 -0.0546137 2.29188)
(0.215642 -0.184505 2.03665)
(0.121622 0.282784 3.08783)
(-0.00796961 -0.0549077 2.61099)
(-0.312039 -0.195899 3.41519)
(-0.178478 -0.125667 1.55198)
(-0.21027 0.03054 1.0805)
(-0.0396769 0.134298 0.720568)
(0.0307441 0.545021 1.69471)
(0.0700475 0.152028 2.61927)
(-0.132817 -0.119294 0.916566)
(-0.174599 -0.0230207 0.524087)
(-0.0155045 -0.111714 0.290606)
(0.0245846 -0.0167067 0.490962)
(0.0427802 0.155848 0.729765)
(0.00538363 0.0216991 0.174989)
(0.0616408 -0.0487066 0.103512)
(0.553419 -0.0337176 3.10751)
(0.340123 -0.402297 3.80265)
(0.354862 -0.208387 3.7269)
(0.248185 -0.0457512 3.6469)
(0.0385219 0.0979908 2.38764)
(0.00291359 -0.447502 4.07609)
(0.0883985 -0.249623 2.67606)
(-0.188848 -0.0528029 2.26167)
(0.182564 -0.165445 1.89603)
(0.119825 0.244813 3.10795)
(-0.0047147 -0.054127 2.68378)
(-0.302126 -0.173497 3.34322)
(-0.187373 -0.126853 1.48121)
(-0.183061 -0.0218625 1.02547)
(-0.0710038 0.0731511 0.673443)
(0.045138 0.575904 1.80123)
(0.0844128 0.169298 2.61266)
(-0.122745 -0.118239 0.920272)
(-0.104902 -0.0374363 0.473477)
(-0.0200148 -0.139187 0.248579)
(-0.0434257 0.123155 0.68197)
(0.0877442 0.160446 0.78384)
(0.0692652 -0.00990812 0.145466)
(0.078167 -0.0601953 0.0722619)
(0.507979 -0.0247361 3.24071)
(0.330675 -0.398817 3.84545)
(0.375524 -0.198064 3.78807)
(0.239147 -0.00992401 3.66907)
(-0.00300383 0.0755233 2.58327)
(0.031011 -0.435874 4.01319)
(0.0782412 -0.234951 2.74483)
(-0.141214 -0.0325851 2.28366)
(0.13132 -0.152417 1.78728)
(0.112966 0.230838 3.0964)
(-0.000657419 -0.0398609 2.72195)
(-0.281509 -0.133211 3.25381)
(-0.137935 -0.10939 1.42872)
(-0.124482 -0.0459896 0.999393)
(-0.109625 0.0235672 0.63759)
(0.0479703 0.556722 1.83738)
(0.103606 0.186294 2.59314)
(-0.0725618 -0.122685 0.918998)
(-0.048564 -0.0350728 0.454036)
(-0.0439683 -0.146371 0.237114)
(-0.0906947 0.23888 0.875005)
(0.124726 0.152148 0.807308)
(0.121577 -0.0229433 0.123698)
(0.0760234 -0.0591306 0.0595429)
(0.46094 -0.0172088 3.31812)
(0.323255 -0.391045 3.88168)
(0.395933 -0.177837 3.8567)
(0.239615 0.0401426 3.68624)
(-0.0436041 0.0451544 2.7806)
(0.0534285 -0.431934 3.94088)
(0.0716121 -0.225882 2.78328)
(-0.0655028 0.0280444 2.35195)
(0.0836308 -0.126337 1.73436)
(0.112185 0.220551 3.03106)
(0.00712596 -0.0385294 2.74653)
(-0.276504 -0.0839131 3.15876)
(-0.10051 -0.0705825 1.34082)
(-0.0144758 -0.0346187 1.00941)
(-0.160121 0.00549348 0.624189)
(0.0327338 0.519671 1.81623)
(0.139615 0.192362 2.54868)
(0.00670726 -0.138507 0.908343)
(-0.011456 -0.013698 0.479726)
(-0.0814931 -0.130098 0.257921)
(-0.129407 0.318102 0.997143)
(0.145068 0.139412 0.818981)
(0.150202 -0.0232513 0.125763)
(0.0652293 -0.0494535 0.0686392)
(0.418128 -0.0147813 3.35694)
(0.315498 -0.375935 3.91014)
(0.409347 -0.157174 3.90868)
(0.244058 0.091045 3.7053)
(-0.091317 0.00416671 2.95803)
(0.0671012 -0.425684 3.87783)
(0.0676408 -0.224969 2.7877)
(0.0142262 0.111061 2.42259)
(0.0381342 -0.0904019 1.7149)
(0.10577 0.210897 2.92073)
(0.00998449 -0.0420136 2.74741)
(-0.254564 -0.078001 3.06209)
(-0.107988 -0.0252766 1.23587)
(0.0475099 -0.00295569 1.0502)
(-0.232987 0.027657 0.641248)
(0.0182981 0.448923 1.75189)
(0.178402 0.192475 2.47967)
(0.0604756 -0.154706 0.909489)
(0.0136281 0.00858568 0.544321)
(-0.120195 -0.0968165 0.31079)
(-0.163384 0.353676 1.00143)
(0.17026 0.126526 0.813488)
(0.151504 -0.0128222 0.156787)
(0.0534501 -0.0372184 0.0989635)
(0.383672 -0.017131 3.37333)
(0.305697 -0.354525 3.92354)
(0.409378 -0.141755 3.93275)
(0.262131 0.136287 3.71227)
(-0.136658 -0.046198 3.10693)
(0.0791866 -0.398745 3.818)
(0.0638725 -0.227991 2.77852)
(0.0978132 0.18654 2.50079)
(0.0127732 -0.0439694 1.73033)
(0.075869 0.188947 2.75617)
(0.0129745 -0.0511803 2.69992)
(-0.215659 -0.093272 2.9929)
(-0.126072 0.00351203 1.15047)
(0.0316769 0.0288138 1.11841)
(-0.295617 0.0761576 0.679936)
(-0.0269977 0.432626 1.65524)
(0.190732 0.187354 2.4048)
(0.121029 -0.183972 0.91391)
(0.0578357 0.00614951 0.633877)
(-0.142009 -0.0510846 0.407082)
(-0.238635 0.383873 0.838492)
(0.204319 0.123054 0.800061)
(0.148711 0.00330454 0.217356)
(0.0465814 -0.024336 0.147469)
(0.360146 -0.0202089 3.3992)
(0.295343 -0.332731 3.91456)
(0.400691 -0.134491 3.9332)
(0.285831 0.172224 3.70423)
(-0.175983 -0.0906563 3.21596)
(0.101957 -0.359044 3.75754)
(0.0547728 -0.229408 2.74349)
(0.179742 0.222464 2.59409)
(0.0425171 0.00767996 1.7969)
(0.0264873 0.143662 2.59493)
(0.000868298 -0.0774721 2.63641)
(-0.170767 -0.102586 2.94978)
(-0.114601 0.0103527 1.09814)
(-0.0206959 0.0651276 1.22152)
(-0.329875 0.143066 0.728583)
(-0.0109557 0.274738 1.49485)
(0.188468 0.165771 2.33903)
(0.188847 -0.222554 0.895082)
(0.119776 -0.0260532 0.730738)
(-0.10147 -0.0032348 0.54635)
(-0.222041 0.279423 0.60137)
(0.271415 0.109829 0.744741)
(0.151945 0.0172779 0.301718)
(0.0385271 -0.0043816 0.214442)
(0.339661 -0.0214306 3.43832)
(0.287722 -0.315837 3.89806)
(0.383481 -0.138736 3.91847)
(0.307847 0.202143 3.69901)
(-0.202805 -0.120542 3.28006)
(0.108627 -0.323242 3.68426)
(0.0498314 -0.225024 2.67477)
(0.239386 0.237328 2.67548)
(0.0867009 0.0539023 1.87994)
(-0.0183234 0.111149 2.37112)
(0.0035593 -0.0569234 2.54812)
(-0.126514 -0.103848 2.9012)
(-0.0755306 0.00259829 1.08089)
(-0.0544991 0.111983 1.36227)
(-0.336547 0.186621 0.802567)
(-0.00576408 0.358419 1.27518)
(0.164102 0.120169 2.28606)
(0.238143 -0.256001 0.848458)
(0.173087 -0.0551098 0.822043)
(-0.00630658 0.0276365 0.698069)
(-0.132783 0.126478 0.51934)
(0.324065 0.0409419 0.562124)
(0.116612 0.0356479 0.405597)
(0.0228702 0.0201716 0.295591)
(0.323265 -0.0206433 3.49146)
(0.279551 -0.301509 3.8721)
(0.35802 -0.149182 3.89144)
(0.328771 0.22075 3.70619)
(-0.221793 -0.137957 3.31795)
(0.101935 -0.298477 3.59404)
(0.0469761 -0.220272 2.59066)
(0.257823 0.258376 2.73802)
(0.0472675 0.0739226 1.92825)
(-0.054875 0.0664704 2.21421)
(0.00982535 -0.019327 2.37301)
(-0.0779174 -0.0773214 2.85333)
(-0.0168939 -0.0148746 1.08401)
(-0.0392695 0.17546 1.54271)
(-0.291992 0.168082 0.912022)
(-0.246707 0.385416 0.902282)
(0.173794 0.101277 2.23684)
(0.269099 -0.261251 0.816257)
(0.218565 -0.0469664 0.901695)
(0.111759 0.0106415 0.830367)
(-0.0205678 -0.0116088 0.546566)
(0.272366 -0.0553616 0.3778)
(0.0449666 0.0585458 0.495792)
(0.000598763 0.0393196 0.37333)
(0.307378 -0.0183161 3.55918)
(0.268851 -0.288656 3.84607)
(0.334295 -0.160437 3.86249)
(0.347505 0.229853 3.72988)
(-0.235568 -0.138396 3.34373)
(0.0936096 -0.284827 3.50264)
(0.0464965 -0.216049 2.50707)
(0.25819 0.278359 2.80341)
(0.002165 0.104763 2.05204)
(-0.0628726 -0.0127312 1.96256)
(-0.00230003 -0.0311381 2.21319)
(-0.0221588 -0.0672491 2.77438)
(0.0548322 -0.0380138 1.10107)
(0.00420274 0.239624 1.70604)
(-0.170097 0.115205 1.0822)
(-0.273608 0.21684 0.750706)
(0.161954 0.0762574 2.14247)
(0.309704 -0.231437 0.791034)
(0.261063 -0.00417358 0.974147)
(0.199403 -0.023319 0.924491)
(0.0578753 -0.0955902 0.588282)
(0.118946 -0.0693582 0.356227)
(-0.0170856 0.0795829 0.539722)
(-0.0189054 0.0547783 0.430833)
(0.288045 -0.0153435 3.63421)
(0.258876 -0.27666 3.81506)
(0.315153 -0.167387 3.8312)
(0.354303 0.238373 3.76326)
(-0.241171 -0.136285 3.35959)
(0.0896558 -0.27135 3.40969)
(0.0706003 -0.203769 2.44702)
(0.258944 0.287466 2.86214)
(-0.0210605 0.147508 2.19214)
(-0.0949488 -0.0369171 1.6675)
(-0.00879326 -0.0352732 2.10603)
(0.0401522 -0.0909017 2.67028)
(0.138389 -0.065685 1.13639)
(0.0538852 0.286771 1.8218)
(-0.0222472 0.108227 1.24562)
(-0.11565 0.016545 0.763539)
(0.0989491 -0.0867423 1.76805)
(0.326867 -0.195726 0.758875)
(0.283312 0.0501461 1.05187)
(0.244196 -0.0388318 0.992652)
(0.0903485 -0.137887 0.611349)
(0.0205938 -0.0653525 0.40316)
(-0.0665122 0.0924982 0.580387)
(-0.0479971 0.0747245 0.471293)
(0.270269 -0.0113035 3.71745)
(0.250029 -0.270177 3.78116)
(0.302696 -0.168126 3.80081)
(0.348882 0.244222 3.79777)
(-0.24115 -0.136829 3.35819)
(0.0875719 -0.254341 3.31463)
(0.102061 -0.167045 2.39863)
(0.258453 0.289075 2.9029)
(-0.00624378 0.188812 2.28417)
(-0.204408 -0.00222822 1.31178)
(-0.00303057 -0.0268471 2.00182)
(0.079896 -0.133555 2.54167)
(0.242504 -0.0750976 1.18193)
(0.118653 0.313129 1.89486)
(0.11276 0.141899 1.39846)
(0.003854 -0.056384 0.824052)
(-0.0138038 -0.0421372 1.22037)
(0.28242 -0.152309 0.734145)
(0.270471 0.107918 1.15207)
(0.242789 -0.0280365 1.06326)
(0.0872106 -0.12502 0.62563)
(-0.0546622 -0.0854562 0.462992)
(-0.114202 0.0925419 0.632185)
(-0.0970168 0.100323 0.497506)
(0.256555 -0.00962421 3.80666)
(0.240724 -0.265475 3.75332)
(0.291092 -0.161118 3.76391)
(0.334126 0.242416 3.83342)
(-0.24096 -0.138293 3.34241)
(0.0917043 -0.238998 3.21852)
(0.146969 -0.145457 2.3561)
(0.271756 0.281117 2.93289)
(0.0370676 0.23 2.396)
(-0.145898 -0.00482625 1.0565)
(-0.000931207 -0.0174836 1.8714)
(0.109685 -0.0823089 2.39934)
(0.36258 -0.064291 1.20927)
(0.210776 0.317639 1.94062)
(0.221879 0.170419 1.54831)
(0.101474 -0.0685351 0.930129)
(-0.0100345 0.130788 0.881126)
(0.191873 -0.12279 0.734625)
(0.242216 0.165859 1.27279)
(0.210263 0.00785743 1.1459)
(0.0539771 -0.0778716 0.622969)
(-0.113819 -0.117026 0.506718)
(-0.155972 0.0870475 0.682321)
(-0.139438 0.120176 0.519777)
(0.250712 -0.00940443 3.90613)
(0.234828 -0.260215 3.72423)
(0.280625 -0.148076 3.72042)
(0.317031 0.240609 3.86625)
(-0.237937 -0.13799 3.32003)
(0.0968507 -0.22974 3.09947)
(0.215737 -0.155014 2.34866)
(0.29118 0.267444 2.96612)
(0.0840065 0.255262 2.4992)
(-0.0509089 -0.0632135 1.02942)
(0.00334565 -0.0548076 1.74985)
(0.115786 -0.144204 2.19677)
(0.406996 -0.0494917 1.2238)
(0.297131 0.299464 1.96815)
(0.290295 0.178175 1.68171)
(0.172097 -0.0577191 1.07196)
(0.114772 0.138544 0.719848)
(0.0700154 -0.112476 0.762742)
(0.196528 0.215985 1.39492)
(0.165509 0.0660151 1.24139)
(0.0114731 -0.0231995 0.593196)
(-0.164247 -0.143081 0.527526)
(-0.193952 0.0892063 0.718862)
(-0.159516 0.123688 0.551304)
(0.25103 -0.0087021 4.00818)
(0.231026 -0.256101 3.69346)
(0.279171 -0.132514 3.6813)
(0.308251 0.242384 3.89788)
(-0.234513 -0.143461 3.29337)
(0.0978305 -0.248926 2.96455)
(0.266002 -0.148691 2.36565)
(0.30684 0.261637 3.0111)
(0.122305 0.259439 2.58941)
(0.0374534 -0.0944511 1.1933)
(-0.0127347 -0.144356 1.80851)
(0.0333958 -0.285941 1.81978)
(0.381899 -0.0336483 1.23725)
(0.327836 0.277461 1.99928)
(0.311794 0.169514 1.79229)
(0.197167 -0.0519621 1.20168)
(0.0925146 -0.0363433 0.674126)
(-0.0533618 -0.0967049 0.801486)
(0.12528 0.227009 1.47616)
(0.123963 0.124484 1.33729)
(-0.0137005 0.0416773 0.581968)
(-0.211385 -0.156538 0.532823)
(-0.23182 0.0942721 0.740185)
(-0.170026 0.124946 0.588217)
(0.255052 -0.00721259 4.10965)
(0.22411 -0.249083 3.66676)
(0.282438 -0.117668 3.64149)
(0.306311 0.244224 3.93417)
(-0.228076 -0.144816 3.27107)
(0.0826632 -0.254861 2.81854)
(0.277253 -0.131604 2.36877)
(0.317193 0.267402 3.0579)
(0.159066 0.244192 2.68119)
(0.12396 -0.083649 1.43563)
(-0.0218556 -0.187818 1.90603)
(0.00885794 -0.231135 1.49232)
(0.310459 -0.0350803 1.19388)
(0.3085 0.260206 2.03986)
(0.298633 0.151397 1.879)
(0.185064 -0.0476275 1.2913)
(-0.069625 -0.13489 0.625974)
(-0.14952 -0.0776866 0.833832)
(0.0315379 0.196341 1.5061)
(0.0885058 0.163931 1.41888)
(-0.0220683 0.0881807 0.620082)
(-0.245729 -0.140307 0.535088)
(-0.258113 0.0922647 0.751736)
(-0.182666 0.130063 0.627913)
(0.265484 -0.005118 4.21342)
(0.215552 -0.237147 3.63245)
(0.284957 -0.110305 3.60217)
(0.311102 0.243591 3.97915)
(-0.208061 -0.133814 3.25025)
(0.0742396 -0.2392 2.69129)
(0.267787 -0.121799 2.36)
(0.316351 0.270792 3.08805)
(0.200237 0.221036 2.76233)
(0.15994 -0.0795187 1.67277)
(-0.0284809 -0.157008 1.97437)
(-0.0171608 -0.159301 1.30783)
(0.213661 -0.0708196 1.1182)
(0.26072 0.231548 2.07225)
(0.266881 0.133456 1.96401)
(0.152008 -0.0432027 1.32175)
(-0.134432 -0.153801 0.592853)
(-0.213781 -0.0826292 0.839929)
(-0.0499011 0.145836 1.49406)
(0.0675985 0.184816 1.48113)
(-0.0235063 0.103177 0.66541)
(-0.261585 -0.0988347 0.550306)
(-0.266815 0.0855995 0.758414)
(-0.195121 0.135221 0.661491)
(0.282717 -0.00142953 4.31679)
(0.209232 -0.223661 3.59421)
(0.289005 -0.113098 3.56809)
(0.32135 0.233764 4.02974)
(-0.179204 -0.110163 3.22445)
(0.0936497 -0.206553 2.58709)
(0.244602 -0.101619 2.33047)
(0.312271 0.266999 3.11004)
(0.229189 0.200775 2.83622)
(0.192398 -0.0468772 1.88927)
(-0.030978 -0.107771 1.99423)
(-0.018493 -0.136932 1.24677)
(0.135808 -0.101866 1.07404)
(0.215711 0.199122 2.10459)
(0.223042 0.122528 2.04876)
(0.101477 -0.0382888 1.2917)
(-0.163713 -0.158414 0.602514)
(-0.242595 -0.105913 0.820067)
(-0.107251 0.0944922 1.4509)
(0.0517666 0.204802 1.52848)
(-0.0119652 0.0858934 0.689445)
(-0.262912 -0.0569862 0.576568)
(-0.263278 0.0815849 0.759259)
(-0.206233 0.138519 0.683051)
(0.30688 0.00360302 4.41334)
(0.202288 -0.213486 3.54951)
(0.287449 -0.116684 3.53121)
(0.330542 0.217475 4.07863)
(-0.151952 -0.0790764 3.2062)
(0.0741783 -0.17923 2.50505)
(0.236398 -0.075664 2.29812)
(0.303734 0.272652 3.1344)
(0.237476 0.190921 2.89625)
(0.215338 -0.0141682 2.0722)
(-0.0403352 -0.038667 1.97435)
(0.00753397 -0.118175 1.2604)
(0.0590761 -0.0995865 1.05538)
(0.183314 0.186252 2.15328)
(0.162069 0.125657 2.1236)
(0.0647298 0.00193301 1.26556)
(-0.177211 -0.150271 0.627003)
(-0.234386 -0.130193 0.778825)
(-0.131742 0.0639194 1.39671)
(0.018527 0.222365 1.55746)
(0.00283456 0.0537544 0.700387)
(-0.255738 -0.0330483 0.600176)
(-0.249312 0.0831018 0.757699)
(-0.210122 0.138266 0.695244)
(0.331255 0.00966734 4.4969)
(0.198504 -0.20706 3.49616)
(0.291939 -0.115199 3.49454)
(0.333935 0.201083 4.11753)
(-0.125612 -0.0392946 3.20577)
(0.0665287 -0.137227 2.42549)
(0.232468 -0.040506 2.25311)
(0.283812 0.289286 3.14126)
(0.240105 0.191536 2.93658)
(0.227644 0.01259 2.21964)
(-0.0282439 -0.0416733 1.93675)
(0.0618207 -0.0792375 1.30146)
(-0.00154725 -0.0392459 1.06358)
(0.154576 0.190354 2.20748)
(0.0969845 0.13814 2.18429)
(0.0573834 0.0584221 1.27563)
(-0.166919 -0.114274 0.653064)
(-0.188369 -0.132696 0.742746)
(-0.129829 0.0673916 1.35035)
(-0.000283046 0.223463 1.56615)
(0.0113076 0.027048 0.709272)
(-0.245224 -0.0216489 0.618379)
(-0.231112 0.0918803 0.763708)
(-0.203551 0.135227 0.705116)
(0.34563 0.0165825 4.55698)
(0.184353 -0.196933 3.42452)
(0.289403 -0.104459 3.44143)
(0.325154 0.190018 4.14051)
(-0.103938 -0.000738796 3.22655)
(0.0313853 -0.11483 2.3343)
(0.229748 -0.00830117 2.18046)
(0.263785 0.302115 3.12771)
(0.245389 0.196686 2.96303)
(0.232593 0.0264503 2.33411)
(-0.00922923 -0.0241396 1.83656)
(0.220971 -0.0617586 1.31481)
(-0.0280585 0.0668332 1.08843)
(0.112526 0.183627 2.26053)
(0.0480186 0.150238 2.23073)
(0.06197 0.114571 1.3241)
(-0.136141 -0.0525179 0.688515)
(-0.114141 -0.0991071 0.734466)
(-0.102303 0.100362 1.32997)
(-0.00688748 0.222527 1.54972)
(0.00469134 0.0130163 0.727727)
(-0.231798 -0.0199617 0.6416)
(-0.210025 0.107205 0.786212)
(-0.186576 0.130241 0.726801)
(0.356094 0.0218753 4.59261)
(0.169569 -0.182019 3.33745)
(0.283826 -0.101605 3.37633)
(0.307237 0.18608 4.15231)
(-0.0875551 0.0262786 3.25977)
(0.0874621 -0.0722842 2.25425)
(0.220214 0.00250984 2.09827)
(0.253181 0.305441 3.11516)
(0.241911 0.203782 2.98477)
(0.22812 0.0321851 2.42778)
(-0.0251534 -0.0975846 1.66315)
(0.23951 -0.0914869 1.30367)
(-0.0245419 0.172219 1.10064)
(0.0517342 0.162504 2.30787)
(0.0231934 0.158098 2.26279)
(0.0679682 0.156203 1.39956)
(-0.0964512 -0.0085579 0.754324)
(-0.0407548 -0.0442312 0.768087)
(-0.0573479 0.141563 1.32943)
(-0.00278985 0.215039 1.51603)
(-0.00768979 0.0154873 0.765447)
(-0.209564 -0.0242916 0.691574)
(-0.187773 0.124809 0.83155)
(-0.167468 0.124637 0.770915)
(0.359095 0.0258909 4.60712)
(0.158603 -0.173565 3.26473)
(0.280597 -0.0985096 3.30572)
(0.285716 0.186491 4.15775)
(-0.0754395 0.0450688 3.30123)
(0.0767927 -0.0693393 2.15795)
(0.205031 0.00171964 2.01549)
(0.245639 0.308905 3.11279)
(0.221895 0.214674 3.00681)
(0.211731 0.0354355 2.5038)
(-0.00997431 -0.0407016 1.44033)
(0.118639 -0.0178085 1.29221)
(-0.00894994 0.240558 1.10733)
(-0.00669297 0.15847 2.34966)
(0.0173045 0.161418 2.28082)
(0.0770891 0.174794 1.48116)
(-0.0547831 0.0227371 0.820949)
(0.0173788 0.00382658 0.834404)
(-0.000489473 0.181882 1.34603)
(0.0198231 0.19529 1.47924)
(-0.0185125 0.031994 0.825189)
(-0.189059 -0.0255066 0.773228)
(-0.170116 0.14144 0.898929)
(-0.152145 0.120022 0.83452)
(0.354052 0.0288186 4.61109)
(0.158875 -0.158673 3.19274)
(0.260346 -0.107974 3.2367)
(0.268271 0.181266 4.15444)
(-0.0623654 0.0620914 3.35397)
(0.138611 -0.0461889 2.07807)
(0.190356 0.0299807 1.92812)
(0.240752 0.316373 3.11793)
(0.194595 0.229942 3.02627)
(0.188658 0.0405086 2.56037)
(-0.0248003 0.142421 1.35829)
(0.0936427 0.13591 1.11923)
(0.00929398 0.26381 1.12218)
(-0.0355178 0.191711 2.38251)
(0.0227702 0.162755 2.28671)
(0.0882189 0.182226 1.56047)
(-0.0350262 0.035751 0.872324)
(0.0523204 0.021976 0.918865)
(0.052983 0.2256 1.38913)
(0.0487705 0.189424 1.46269)
(-0.0295465 0.0562913 0.908527)
(-0.184985 -0.0246516 0.880992)
(-0.163771 0.154955 0.985582)
(-0.145247 0.120848 0.915005)
(0.350329 0.0296973 4.60245)
(0.1577 -0.169129 3.12401)
(0.27377 -0.105687 3.17648)
(0.262739 0.170586 4.14491)
(-0.0453161 0.0835091 3.42143)
(0.225627 -0.106056 1.92984)
(0.186384 0.101617 1.81407)
(0.233963 0.318528 3.11809)
(0.167255 0.244338 3.04294)
(0.168972 0.0485554 2.59891)
(-0.0122286 0.166211 1.3711)
(0.0560766 0.106287 1.01325)
(0.0300026 0.243689 1.14943)
(-0.0193996 0.246508 2.38821)
(0.0425732 0.172091 2.28828)
(0.103291 0.185327 1.63662)
(-0.0053074 0.0302714 0.871774)
(0.0627889 0.00373654 1.01078)
(0.0817198 0.264212 1.45122)
(0.077483 0.195101 1.46907)
(-0.0415356 0.0867273 1.01102)
(-0.198001 -0.0279657 0.994917)
(-0.175006 0.166208 1.08149)
(-0.148811 0.126525 1.01295)
(0.340628 0.0333857 4.58969)
(0.171553 -0.152691 3.06278)
(0.24369 -0.0969859 3.10993)
(0.263938 0.16068 4.12858)
(-0.0206605 0.109191 3.49711)
(0.0308199 0.0426048 1.70373)
(0.205527 0.162576 1.68477)
(0.229051 0.316641 3.10963)
(0.146518 0.249506 3.05521)
(0.155098 0.0544184 2.62607)
(0.0157062 0.151791 1.32917)
(0.0010013 0.0534182 1.01999)
(0.0674895 0.151257 1.20853)
(0.0428353 0.304317 2.37313)
(0.100325 0.202843 2.29568)
(0.12322 0.182117 1.71275)
(0.070632 0.0430437 0.804629)
(0.0436447 -0.0344541 1.09877)
(0.0770359 0.282479 1.52815)
(0.107308 0.210439 1.51085)
(-0.0503225 0.11951 1.12566)
(-0.221504 -0.0458749 1.10131)
(-0.199878 0.170386 1.17543)
(-0.163181 0.134319 1.11931)
(0.335302 0.0346902 4.56564)
(0.168041 -0.139864 2.94756)
(0.273008 -0.0818728 3.03775)
(0.267002 0.153485 4.10339)
(0.00558802 0.137139 3.57268)
(-0.0506845 0.160843 1.54414)
(0.226789 0.155099 1.58654)
(0.220642 0.302283 3.09395)
(0.134932 0.237136 3.06552)
(0.144424 0.0536041 2.6488)
(0.0317884 0.138706 1.17981)
(0.0138621 0.0168227 1.01072)
(0.082349 0.0392939 1.26928)
(0.106571 0.324645 2.35354)
(0.146731 0.225453 2.31149)
(0.141274 0.170593 1.79512)
(0.119406 0.0592478 0.74616)
(0.00150691 -0.0701595 1.17021)
(0.0435942 0.273096 1.60217)
(0.111346 0.214259 1.58185)
(-0.0556611 0.149885 1.25464)
(-0.246825 -0.0764403 1.18509)
(-0.229199 0.166639 1.25847)
(-0.182027 0.142003 1.2239)
(0.336891 0.0368137 4.52266)
(0.140095 -0.121041 2.86514)
(0.253672 -0.0841827 2.94751)
(0.275775 0.150613 4.07732)
(0.0311004 0.161206 3.64163)
(0.0106171 0.116733 1.46412)
(0.23024 0.0939407 1.54862)
(0.200743 0.278553 3.09446)
(0.128101 0.209373 3.08039)