/*--------------------------------*- C++ -*----------------------------------*\
| =========                 |                                                 |
| \\      /  F ield         | OpenFOAM: The Open Source CFD Toolbox           |
|  \\    /   O peration     | Version:  5.x                                   |
|   \\  /    A nd           | Web:      www.OpenFOAM.org                      |
|    \\/     M anipulation  |                                                 |
\*---------------------------------------------------------------------------*/
FoamFile
{
    version     2.0;
    format      ascii;
    class       surfaceScalarField;
    location    "3.95";
    object      phi;
}
// * * * * * * * * * * * * * * * * * * * * * * * * * * * * * * * * * * * * * //

dimensions      [0 3 -1 0 0 0 0];

internalField   nonuniform List<scalar> 
29271
(
-3.37222e-06
-8.88691e-08
2.64925e-07
3.15119e-06
-4.41102e-06
9.53865e-07
5.87485e-07
2.9178e-06
-1.05874e-05
-3.8168e-07
-1.50696e-06
9.67778e-07
5.3343e-07
1.09748e-05
-1.11656e-05
-1.9329e-07
-4.32522e-09
-6.62425e-07
-4.72185e-07
1.24978e-05
-1.05565e-05
5.02973e-07
-1.29915e-06
-2.68629e-07
1.03169e-05
1.30443e-06
-1.12436e-05
-1.00873e-06
-1.12182e-06
9.1301e-07
1.0271e-07
1.23584e-05
-1.0738e-05
1.78242e-06
1.07254e-06
-1.06144e-06
-2.19951e-06
1.1144e-05
-9.30803e-06
2.84952e-06
6.75541e-07
-2.50622e-07
-2.00772e-06
8.04131e-06
-9.48464e-06
1.66795e-06
5.76719e-07
-1.751e-07
-6.53429e-07
8.0685e-06
-8.6283e-06
-1.79869e-07
6.8043e-07
8.39537e-06
-2.61959e-07
-2.55809e-06
3.29089e-07
6.96236e-08
2.17072e-06
-1.11984e-05
-1.47195e-06
7.4733e-07
-2.37827e-07
-1.34998e-06
1.35108e-05
-9.1309e-06
1.31532e-06
2.45683e-06
-1.29982e-06
-9.70489e-07
7.62905e-06
-8.67061e-06
1.01324e-06
3.36577e-07
6.02448e-07
-1.96984e-07
6.91534e-06
-1.02252e-05
3.53618e-07
-1.64428e-06
2.68649e-06
4.53751e-07
8.37558e-06
-1.11552e-05
-4.09513e-07
-3.58358e-07
4.1741e-07
1.20816e-05
-5.76001e-07
-1.05401e-05
1.24058e-07
-1.74733e-07
-1.01808e-06
9.36461e-06
2.2442e-06
-9.28042e-06
8.88305e-07
6.23583e-07
-1.82799e-07
3.15363e-07
7.63597e-06
-9.2643e-06
-5.85768e-07
-4.38022e-07
1.2186e-06
1.4163e-06
7.65319e-06
-1.1377e-05
1.35985e-07
3.23217e-07
1.53477e-05
-2.0248e-06
-2.40507e-06
-3.99465e-06
7.00844e-08
7.66964e-07
3.12745e-06
-9.01332e-06
-1.47287e-06
2.33646e-06
9.76605e-06
-1.70708e-06
-1.26586e-05
-9.25229e-07
3.93029e-07
6.63942e-07
1.51516e-05
-2.62471e-06
-4.0432e-06
1.29539e-07
4.16953e-07
3.45123e-06
-5.0765e-06
-3.92005e-06
2.03521e-07
8.79369e-06
-2.38864e-06
7.40996e-06
-6.9754e-06
1.95275e-06
6.67198e-06
-7.88885e-06
-1.20561e-05
6.76867e-06
-6.86496e-06
1.33692e-05
2.32979e-06
-1.68493e-05
-5.78345e-06
3.83783e-06
4.63592e-07
1.60015e-05
-9.89107e-06
-1.33257e-06
1.58932e-06
3.26406e-06
8.38919e-06
-2.01892e-06
7.00533e-06
-1.37188e-06
-1.29119e-05
4.32609e-06
-5.0848e-06
8.03719e-06
1.32008e-06
2.41012e-06
2.70472e-05
-6.62719e-06
-4.08321e-06
-4.0408e-06
-3.86439e-06
2.64795e-06
2.69503e-06
-8.32011e-07
-6.14639e-07
-5.80684e-06
-5.42381e-06
-2.64137e-06
-2.18608e-06
-7.59054e-08
2.80072e-06
2.97346e-05
-4.01076e-06
-5.01968e-06
-4.54008e-06
-5.09103e-06
-2.99368e-06
-3.89975e-06
-2.82625e-06
-2.75811e-06
1.65796e-07
1.44011e-06
3.45725e-05
-5.6744e-06
-4.40437e-06
-1.88851e-06
-8.34091e-07
2.8187e-06
-4.59172e-07
-4.3797e-07
-5.26267e-06
-4.61833e-06
-6.27088e-06
-9.22267e-06
-9.33812e-06
-5.15501e-06
8.02784e-06
6.62375e-06
-1.99786e-06
3.44661e-07
-7.78091e-07
2.4216e-06
6.6317e-07
-1.62911e-05
3.12055e-06
4.42366e-06
-4.86656e-06
1.29503e-05
1.49292e-06
1.42745e-06
4.05936e-05
-4.87591e-06
-5.26531e-06
-4.95661e-06
-5.83921e-06
-9.09994e-06
-5.30284e-06
-3.93663e-06
-1.82739e-06
-2.23934e-06
-1.20822e-06
3.13673e-05
-5.85506e-06
-5.66876e-06
-6.15484e-06
-5.9474e-06
-3.35643e-06
7.63254e-07
3.79043e-05
-4.39599e-06
-1.28736e-06
-2.19966e-06
3.29291e-06
-7.19654e-07
-6.42945e-07
-4.95267e-06
-1.26018e-05
-4.80518e-06
-7.79804e-06
-1.75724e-05
-1.0534e-05
-4.09221e-06
1.45279e-05
1.43143e-05
-7.89305e-06
-8.59448e-08
6.93307e-07
2.10095e-07
5.38787e-06
1.68772e-06
-1.04232e-06
-7.84206e-07
3.9013e-05
-2.27408e-06
-8.74432e-07
-9.64935e-07
-5.32536e-07
-5.97175e-06
-6.14818e-07
-1.62767e-06
-6.18222e-06
-5.76058e-06
-5.42386e-06
-5.53215e-06
-3.92736e-06
-4.17088e-06
4.48487e-05
-6.38306e-06
-1.42557e-06
-1.93329e-06
-3.14756e-06
-2.29641e-06
-4.35194e-06
-5.51088e-06
-4.87288e-06
-4.57395e-06
-4.50548e-06
-2.04687e-05
-2.08285e-06
8.65103e-06
1.07364e-05
-3.38366e-06
-7.98948e-06
7.4929e-06
3.88005e-06
-8.76822e-06
-9.86016e-07
4.41689e-06
4.47674e-06
-2.06877e-05
-3.55039e-06
1.10482e-07
2.16728e-06
1.77895e-05
-3.84559e-06
-1.13068e-05
9.53644e-06
5.61603e-06
-1.1694e-05
-1.13018e-06
4.81585e-06
8.01938e-06
-1.85013e-06
-9.88713e-07
-2.3706e-07
3.044e-06
-9.52327e-07
7.6544e-07
-1.18327e-05
-7.68307e-07
2.55981e-06
1.0228e-05
-4.57883e-06
-1.63848e-05
-6.12466e-07
1.65798e-06
5.3875e-06
1.45306e-05
-7.39753e-06
-6.29432e-07
1.71422e-06
9.87297e-07
6.8611e-06
-1.53566e-06
6.27215e-07
2.22851e-07
-6.88639e-06
6.80327e-07
-1.37775e-07
5.49378e-06
1.8956e-06
4.23758e-06
4.42238e-05
-5.55105e-06
-7.63742e-06
-1.41548e-06
-1.73519e-06
-2.8178e-06
-2.61808e-06
-6.472e-07
-8.87649e-07
-7.42474e-07
4.98191e-06
4.59471e-05
-8.39751e-06
-6.8191e-06
-1.7957e-06
-1.54398e-06
-6.93526e-08
1.01565e-06
3.78753e-05
-1.60845e-06
-4.31204e-07
-1.02999e-06
-8.96491e-07
-3.68304e-07
1.8452e-07
-8.4161e-07
-6.42385e-06
2.85381e-08
-2.77676e-07
6.66e-06
-2.34414e-06
-2.44658e-08
2.29074e-07
2.14435e-06
-3.13782e-07
-1.14067e-05
-4.71056e-07
1.4418e-06
1.54441e-06
9.20531e-06
4.03149e-06
3.62129e-07
4.76452e-05
-2.55949e-06
-1.25328e-06
-1.69272e-06
-1.70214e-06
-3.35976e-06
-2.94546e-06
4.66859e-05
-7.01296e-07
-2.79762e-07
4.01661e-05
-9.66068e-07
-1.38344e-06
-8.80799e-07
-5.27758e-07
7.91471e-07
-6.58271e-07
-1.08112e-05
2.11564e-07
-1.75806e-06
-3.35268e-07
1.19917e-05
-5.07835e-06
-2.7213e-07
3.54578e-07
7.32799e-07
5.46167e-06
-1.19857e-06
-1.25339e-06
-6.82942e-08
4.41772e-05
-4.09583e-08
-2.21168e-07
-1.58836e-06
-1.65859e-06
-4.27933e-07
-7.57683e-07
1.21428e-06
-5.16422e-07
-7.12802e-07
4.71473e-05
-5.91319e-07
-3.05571e-07
-1.18477e-06
-2.00383e-06
1.89107e-07
-1.37186e-06
-8.05146e-06
-7.6077e-07
-4.58008e-07
8.47405e-06
-4.18499e-06
-2.1867e-07
-4.16945e-08
4.45415e-06
-4.65642e-06
1.07008e-07
-6.92875e-07
5.19466e-06
-1.35591e-05
5.1231e-07
-1.19343e-06
-8.95217e-07
1.44226e-05
-5.64552e-06
1.03969e-07
-2.90628e-07
5.85366e-06
-6.38634e-06
8.98697e-08
6.99634e-07
5.61181e-06
-3.36037e-06
1.02568e-07
9.33089e-07
2.32453e-06
-2.79435e-07
5.65781e-07
-9.8551e-06
-4.12705e-07
8.42166e-07
9.13929e-06
-7.12231e-07
-1.35699e-05
-4.43379e-08
4.49991e-07
1.32377e-06
1.25527e-05
-6.79611e-06
1.82075e-06
-4.31942e-06
-9.68562e-07
8.58176e-06
1.68158e-06
-1.40469e-06
-7.06826e-07
-5.43966e-06
1.09616e-06
8.97877e-07
5.55713e-06
4.60462e-06
-3.47989e-06
6.86349e-05
-1.07356e-06
-1.42811e-06
-3.78475e-06
-3.71945e-06
-1.79848e-06
-1.65988e-06
-5.89039e-06
-6.18115e-06
-1.51261e-05
3.39723e-07
7.22524e-05
-1.32398e-06
-1.05874e-06
-2.47297e-06
-2.05866e-06
-3.06855e-06
-4.38963e-07
4.80518e-05
-1.23258e-06
-2.1472e-06
-3.67731e-06
-3.70448e-06
-2.04214e-06
-4.44657e-06
-4.5448e-06
-7.1559e-06
-2.02421e-07
1.11557e-06
3.1742e-06
-2.17685e-06
4.43917e-07
-1.34839e-06
3.08132e-06
4.88024e-07
-8.49111e-06
1.35622e-06
-2.03954e-06
-4.52061e-06
1.3207e-05
6.25193e-06
-1.22719e-05
5.69377e-05
8.36357e-07
-1.27872e-06
-2.9084e-06
-3.40173e-06
1.4761e-07
-8.71016e-06
6.18401e-05
-3.71197e-07
-1.92153e-06
5.19867e-05
4.29708e-08
-1.18028e-06
-1.54036e-06
-1.13816e-06
-3.40597e-06
-2.59743e-06
-1.20767e-05
-1.04475e-06
9.87431e-07
7.47226e-07
1.10156e-05
-5.37479e-06
1.52362e-06
-3.20317e-07
-7.33853e-07
7.27082e-07
4.17826e-06
1.81516e-06
-4.44735e-07
3.54969e-05
-1.50478e-06
-1.05016e-06
-2.02444e-06
-1.74158e-06
7.79398e-07
8.46678e-07
-2.67075e-07
-6.49391e-07
-9.7294e-07
4.93496e-05
-2.39597e-07
-1.90858e-06
-9.96126e-07
-6.26647e-07
-1.83906e-06
-1.8649e-06
-8.53055e-06
9.60414e-07
4.4984e-07
4.54937e-06
-4.27524e-06
1.70175e-07
-4.59253e-07
4.56431e-06
-2.50086e-06
-7.45865e-07
2.25473e-06
5.47266e-07
-1.62483e-05
-1.56463e-06
6.59467e-07
6.42772e-07
1.55378e-05
-6.3044e-06
-5.655e-07
6.59266e-07
6.21063e-06
-7.94539e-06
8.69584e-08
-7.01898e-07
8.56033e-06
-1.44215e-06
-2.52915e-07
2.66912e-07
1.42816e-06
4.53312e-08
8.52135e-07
-7.89545e-06
-6.34383e-07
9.54304e-07
6.67806e-06
7.11925e-07
-1.17959e-05
4.12493e-07
2.75899e-07
4.24298e-07
9.97131e-06
-5.39283e-06
-6.64903e-07
1.33218e-06
1.46465e-06
4.69079e-06
-1.42988e-06
1.4397e-08
-5.99275e-08
-3.71808e-06
7.66187e-07
-7.86813e-07
3.78424e-06
4.50402e-06
3.48508e-06
6.68985e-05
-2.03985e-06
-2.07465e-06
1.25509e-07
-2.00719e-07
-1.23529e-06
-2.33806e-06
6.21364e-07
8.88962e-07
-1.35728e-06
4.61851e-06
7.57985e-05
-1.56179e-06
-1.51341e-06
4.83374e-07
2.88583e-07
8.75935e-07
8.96802e-07
4.60429e-05
-2.09703e-06
-3.79319e-07
-7.01249e-07
-4.88391e-07
-1.26045e-06
2.11538e-06
1.68988e-06
-4.86654e-07
-1.25117e-06
1.63184e-06
9.81925e-07
-3.33171e-06
5.79335e-07
-5.4069e-07
3.29307e-06
-3.49308e-07
-1.18149e-05
2.31051e-07
2.00935e-06
4.55133e-07
9.46872e-06
4.42266e-06
-3.48693e-06
6.13319e-05
-2.12682e-06
-3.28805e-07
-3.62178e-07
9.72985e-07
3.87489e-06
-2.86408e-06
6.98704e-05
-1.37633e-07
2.44018e-07
5.50443e-05
-2.64142e-07
2.08728e-06
1.13792e-06
-1.59771e-06
8.15943e-07
-5.71544e-07
-9.48864e-06
-2.43451e-07
1.92051e-07
5.46647e-07
8.85576e-06
6.42796e-07
-1.63404e-07
7.26813e-07
2.24878e-07
-1.04008e-06
-3.91001e-07
-2.81506e-07
3.51961e-07
3.49277e-05
-1.21966e-06
-1.2945e-06
3.69702e-09
-2.86577e-07
-4.23934e-07
7.55307e-07
-5.22497e-07
3.04412e-07
-1.25271e-06
5.03032e-05
-1.02225e-06
1.22337e-06
-5.1269e-07
-1.065e-06
-8.97809e-07
-8.76499e-07
-2.34257e-06
7.08624e-07
4.57477e-07
1.7249e-06
-4.78133e-06
7.541e-09
-5.26625e-07
5.30042e-06
-1.9279e-06
-9.69596e-07
1.28389e-06
1.96557e-06
-1.4481e-05
-5.45644e-07
9.25684e-07
-7.17359e-07
1.35656e-05
-6.23808e-06
2.90206e-07
-5.33915e-07
6.48179e-06
-8.37904e-06
1.09514e-07
1.31786e-07
8.13774e-06
-1.14118e-06
-5.787e-07
5.48055e-07
1.17182e-06
-2.99999e-07
1.12819e-06
-7.46296e-06
-1.09922e-06
-2.11391e-07
7.94538e-06
-5.90874e-07
-9.59807e-06
5.81188e-07
6.16718e-07
-3.29465e-07
9.32051e-06
-4.55674e-06
-1.05024e-06
2.52462e-06
1.20787e-06
3.93444e-06
-2.05995e-06
-6.0095e-07
-7.72008e-09
-4.24978e-06
-1.0437e-07
4.3713e-07
4.52569e-06
3.83241e-06
3.81375e-06
6.29556e-05
-3.19042e-07
-8.13777e-07
-1.13229e-06
-1.21238e-06
6.64108e-08
3.49973e-07
-4.47396e-07
-1.94771e-07
1.44237e-06
4.87732e-06
7.32355e-05
1.04058e-07
-8.91403e-08
2.51145e-07
-1.90317e-07
1.56744e-06
2.30464e-06
4.79189e-05
-1.40129e-06
-1.36875e-06
-2.20642e-06
-1.50462e-06
1.14828e-06
2.49307e-07
7.77807e-07
-1.50952e-06
-1.09611e-06
1.01585e-06
2.15107e-06
1.00615e-06
4.43447e-07
-5.76935e-07
6.74479e-07
-5.40988e-07
-3.47741e-06
1.5546e-07
-1.1512e-07
3.43707e-06
-4.66421e-07
-8.07905e-06
-8.24228e-07
4.38847e-07
1.9135e-06
7.01735e-06
3.31719e-06
-1.61672e-06
6.21529e-05
-5.98911e-08
6.70248e-07
9.01527e-08
5.91713e-07
5.40146e-06
-1.59857e-06
7.42621e-05
1.83741e-06
3.17307e-07
5.7798e-05
1.53751e-06
1.53759e-06
9.11958e-07
-1.89986e-07
-4.86269e-07
-5.13166e-07
-9.55567e-06
-2.09796e-07
3.3664e-06
7.08404e-07
7.52808e-06
-3.06778e-07
-2.1045e-06
-8.7422e-07
-7.64117e-07
4.04961e-06
1.10422e-07
-3.50916e-07
4.5773e-07
6.49497e-07
1.02296e-06
-1.88969e-06
-1.95371e-06
6.99113e-07
3.59386e-05
-3.02232e-07
7.97886e-08
-5.00802e-07
1.2553e-07
-3.71801e-07
2.57819e-08
-4.2927e-07
5.16412e-07
-1.10232e-06
5.09943e-05
-3.89752e-07
-7.97077e-08
-2.84515e-07
-1.00241e-06
-8.82988e-07
-1.01813e-06
-2.46947e-06
6.74546e-07
-1.67849e-07
2.79649e-06
-6.80885e-06
8.03746e-07
-7.84085e-07
6.78919e-06
-2.37911e-06
1.03146e-07
1.58561e-07
2.81651e-06
-1.21793e-05
6.72536e-07
4.50084e-07
-2.20553e-07
1.01749e-05
-6.4735e-06
1.09466e-06
-8.52411e-07
6.23125e-06
-8.00379e-06
1.61016e-07
-8.76771e-08
7.93045e-06
-8.67797e-07
-1.80546e-06
1.91578e-06
7.57474e-07
-8.96635e-07
1.3557e-06
-7.92778e-06
-1.18487e-06
1.26348e-06
7.3901e-06
-1.31943e-06
-9.15895e-06
1.14049e-06
-5.04836e-07
1.05921e-06
8.78351e-06
-3.01843e-06
-1.31272e-06
5.8536e-07
1.93926e-06
2.36465e-06
-5.58117e-07
-1.93949e-06
6.35445e-07
-4.3307e-06
-3.75935e-07
1.83443e-06
4.17626e-06
3.61845e-06
4.46097e-06
6.09987e-05
-1.60394e-06
-1.75294e-06
-1.89622e-06
-1.72368e-06
1.98645e-08
-1.9189e-07
7.07284e-07
3.1902e-07
2.26484e-06
5.03008e-06
7.37264e-05
-6.88657e-07
-1.30368e-06
-9.10295e-07
-1.26477e-06
-3.29225e-07
2.20614e-06
5.3335e-05
-2.2433e-06
-1.09582e-06
-1.77051e-06
-9.00321e-07
6.90734e-07
-3.46959e-07
6.38022e-07
-1.53094e-06
1.33604e-07
-1.13812e-06
-1.44872e-08
2.22072e-06
9.17369e-07
-6.88472e-07
1.68735e-06
-1.36962e-06
-4.57247e-09
-5.42053e-07
-3.1176e-06
-3.03522e-07
5.53709e-07
2.86741e-06
-4.81152e-07
-6.47858e-06
-1.7375e-06
2.98156e-07
1.78995e-06
6.60913e-06
2.30206e-06
-2.37245e-06
6.54541e-05
2.07082e-08
4.21858e-07
2.6826e-07
5.19385e-07
4.03116e-06
-1.55791e-06
7.91209e-05
1.26815e-06
-1.04783e-06
6.29819e-05
8.29087e-07
1.20635e-06
8.99268e-07
-5.44161e-07
-8.24174e-07
-7.33283e-07
-8.33735e-06
1.08195e-06
1.18287e-06
-1.36878e-06
8.70945e-06
-4.80669e-06
3.7193e-08
-1.24395e-06
8.01276e-07
-1.15299e-08
5.2237e-06
-2.13964e-06
9.19864e-08
1.94758e-07
-3.50055e-07
3.46287e-06
-1.25993e-06
-3.52908e-06
-5.74124e-07
3.95205e-05
-1.6744e-08
6.25084e-07
3.0216e-08
6.66697e-07
-8.03729e-07
-1.08472e-06
-1.26802e-06
-8.36228e-07
-6.20436e-07
5.11604e-05
-5.4473e-07
-9.12856e-07
-9.06592e-07
-5.64688e-07
-6.1202e-07
-2.55459e-07
-3.51733e-06
-8.07907e-07
-1.72137e-06
4.16254e-06
-5.56352e-06
-1.01454e-06
-1.02011e-07
1.03657e-06
5.6435e-06
3.11605e-07
-2.08506e-07
-1.40053e-07
3.69538e-08
-2.82011e-06
9.61243e-07
-1.27941e-06
2.56415e-06
-8.73932e-06
1.58099e-06
-1.81423e-06
2.0046e-07
8.15166e-06
-5.4992e-06
1.3212e-06
4.8114e-08
4.12988e-06
-7.9118e-06
1.42914e-07
-9.9798e-08
7.86868e-06
-6.35657e-07
-1.95773e-06
2.05415e-06
5.39244e-07
-1.64115e-06
1.7737e-06
-6.59808e-06
-1.44737e-06
2.4227e-06
5.4902e-06
-1.06633e-06
-8.00494e-06
1.47858e-06
-8.81137e-07
1.61781e-06
6.85601e-06
-1.94123e-06
-5.55808e-07
-2.21001e-07
9.24123e-07
1.71018e-06
8.37396e-08
-2.29461e-06
1.27061e-06
-4.35209e-06
-1.5669e-06
2.29027e-06
4.65271e-06
2.66034e-06
5.04079e-06
5.91111e-05
-2.38375e-06
-2.35213e-06
-2.6245e-06
-2.41233e-06
1.15934e-06
5.7998e-07
1.22278e-06
9.97117e-07
1.64538e-06
4.79896e-06
7.5191e-05
-1.48595e-06
-1.38244e-06
-1.34298e-06
-1.03726e-06
-3.61196e-07
1.81225e-06
5.70905e-05
-1.32619e-06
-5.97399e-07
-9.79484e-07
-5.46966e-07
3.26985e-07
-5.76996e-07
1.38891e-07
-3.05946e-06
7.25828e-07
-6.47144e-07
-8.22627e-07
3.44221e-06
5.15434e-07
1.05388e-06
7.18632e-07
-5.4579e-07
-1.04577e-06
-6.96392e-07
-2.82036e-06
-3.92017e-07
3.54788e-07
2.85759e-06
-3.46147e-07
-7.14768e-06
-1.98581e-06
1.47532e-07
1.49013e-06
7.84198e-06
1.86976e-06
-4.35383e-06
7.15889e-05
3.92404e-08
2.92068e-07
3.90433e-07
6.68332e-07
2.70771e-06
-1.94086e-06
8.50228e-05
1.05698e-06
-8.66891e-07
6.61322e-05
1.05294e-06
1.03029e-06
4.98477e-07
-7.01597e-07
-2.62842e-07
-4.37617e-07
-9.16343e-06
1.59495e-06
1.1003e-06
-2.03483e-06
9.55999e-06
-5.4365e-06
4.3857e-07
-1.37482e-06
6.82881e-07
1.63333e-07
5.52653e-06
-4.57665e-06
6.71332e-07
-2.44646e-07
-8.32554e-07
5.53061e-06
-5.48092e-07
-4.54932e-06
-1.43433e-06
4.55014e-05
2.53923e-07
8.9553e-07
4.49343e-07
8.19741e-07
-2.49113e-06
-1.32669e-06
-2.95174e-06
-1.19067e-06
-1.2301e-06
5.20328e-05
-9.91043e-07
-8.48805e-07
-9.76005e-07
-2.99643e-07
-1.53177e-06
-2.94565e-07
-4.94481e-06
-9.3554e-07
-1.24814e-06
5.07093e-06
-4.88099e-06
6.35226e-07
4.71727e-07
-4.94965e-07
4.26901e-06
-1.47166e-08
-3.74647e-07
2.77939e-07
1.47745e-07
-3.632e-08
-2.18355e-06
1.39613e-06
-2.45885e-06
1.81194e-06
-7.65283e-06
1.0619e-06
-7.44321e-07
-5.31923e-07
6.63707e-06
-2.72928e-06
7.93698e-07
2.02285e-07
1.7333e-06
-7.50086e-06
1.88159e-07
1.14118e-06
6.17152e-06
-4.0812e-07
-2.68903e-07
4.0069e-07
2.76333e-07
-1.42942e-06
6.64698e-07
-4.01479e-06
-3.57335e-07
2.73375e-06
2.4031e-06
-2.14838e-06
-5.91442e-06
1.21205e-07
9.37872e-08
2.3833e-06
5.46451e-06
-1.5427e-06
-7.42411e-07
6.2733e-08
7.74772e-07
1.53473e-06
-8.7126e-08
-8.54341e-07
4.61999e-07
-5.04372e-06
-1.21996e-06
1.14819e-06
5.50784e-06
1.52115e-06
6.08181e-06
5.99331e-05
-3.05303e-06
-3.14367e-06
-2.92072e-06
-3.01382e-06
1.13531e-06
8.24569e-07
8.2601e-07
9.20349e-07
3.09805e-07
4.61297e-06
7.83351e-05
-2.07883e-06
-1.40247e-06
-1.86993e-06
-1.1945e-06
-1.01279e-06
1.5614e-06
6.17271e-05
-8.60388e-07
-2.03065e-07
-5.939e-07
-2.44866e-07
-3.10028e-07
-1.80926e-06
-8.53894e-07
-4.49418e-06
2.12094e-06
-1.61241e-06
-1.12711e-06
4.09996e-06
1.77765e-06
9.14308e-07
7.56411e-08
-1.83117e-06
-9.3643e-07
-2.88489e-06
1.42934e-07
-9.39247e-08
2.83588e-06
-5.33556e-07
-8.62624e-06
-9.83208e-07
2.01804e-07
7.17876e-07
9.22332e-06
4.10575e-07
-3.32054e-06
7.78475e-05
2.23787e-07
5.94149e-07
7.39176e-07
1.17606e-06
1.0491e-06
-1.53269e-06
9.05299e-05
6.09069e-07
-1.42e-07
6.90844e-05
2.96788e-07
-6.14364e-08
-1.26361e-06
-1.76082e-08
2.49403e-07
-1.23404e-08
-9.76762e-06
1.01645e-06
4.87046e-07
-3.72624e-07
9.24582e-06
-5.07356e-06
1.0881e-06
-9.52728e-07
1.34546e-06
3.66474e-07
3.22626e-06
-6.30245e-06
9.25909e-07
-5.50923e-07
-8.50694e-07
6.98435e-06
-2.06189e-07
-4.5277e-06
-1.20412e-06
5.14763e-05
3.10149e-07
7.19805e-07
5.67009e-07
6.37887e-07
-2.85927e-06
-9.24666e-07
-2.0145e-06
-1.18006e-06
-1.40794e-06
5.30348e-05
-1.15362e-06
-9.84102e-07
-1.24159e-06
-2.61797e-07
-7.25367e-07
-1.07874e-07
-5.58838e-06
-1.16122e-06
-3.02501e-07
5.73004e-06
-3.33183e-06
-1.65104e-06
1.66585e-06
3.31702e-06
-1.95845e-06
1.28515e-06
-2.78815e-06
2.25733e-06
-6.17247e-06
5.69842e-07
2.91204e-07
-2.34289e-06
6.24637e-06
-1.21258e-06
2.91014e-07
-8.31795e-08
1.00475e-06
-4.07349e-06
-3.96841e-07
2.09226e-06
2.37808e-06
-1.65062e-07
1.2785e-06
-1.19592e-06
8.2476e-08
-1.00112e-06
-5.68516e-07
-1.3124e-06
5.08358e-08
2.10402e-06
7.27183e-07
-2.38244e-06
-5.38889e-06
-5.54664e-08
1.91769e-07
2.52993e-06
5.1051e-06
-1.75118e-06
-5.41114e-07
-2.06512e-07
4.30754e-07
1.9497e-06
1.18353e-07
9.23891e-07
-7.37462e-07
-5.95816e-06
-7.58741e-08
-5.13677e-07
6.36128e-06
-5.22058e-07
5.96207e-06
6.19838e-05
-2.55109e-06
-3.12069e-06
-2.23603e-06
-2.75281e-06
7.43656e-07
7.3748e-07
7.16038e-07
9.72711e-07
-1.27649e-06
3.67541e-06
8.10661e-05
-2.07993e-06
-1.3115e-06
-1.52741e-06
-7.33156e-07
-1.95201e-06
1.99738e-07
6.64177e-05
-3.45849e-07
-8.8221e-09
-4.85537e-09
-5.55661e-08
-1.66822e-06
-1.11844e-06
-1.01303e-06
-4.15883e-06
1.24076e-06
-1.95951e-06
2.92557e-06
-2.63848e-06
9.09825e-07
-6.33106e-07
2.36176e-06
-2.59405e-07
-9.58055e-06
2.1058e-08
-1.70622e-07
2.93004e-07
9.69652e-06
-2.03778e-06
-7.96753e-07
8.12235e-05
8.1955e-07
1.22942e-06
1.53681e-06
1.83482e-06
-3.29897e-07
-9.71488e-07
9.3469e-05
-9.30774e-07
4.82704e-08
7.15063e-05
-1.49574e-06
-2.86832e-07
-8.54217e-07
2.16433e-07
3.59229e-07
3.91523e-07
-1.11136e-05
4.96431e-07
-1.65944e-06
1.19273e-06
1.01531e-05
-7.53649e-06
1.07951e-06
-8.13066e-07
-5.48125e-07
8.0677e-06
-2.49528e-07
-4.04608e-06
-3.67215e-07
5.47524e-05
3.81966e-07
6.29412e-07
7.11976e-07
6.32594e-07
-1.04965e-06
-2.07795e-07
-7.58087e-07
-1.2191e-06
-2.64197e-07
5.27498e-05
-1.22533e-06
-8.4817e-07
-1.19481e-06
6.71413e-08
-1.21769e-07
7.36178e-08
-6.32419e-06
-1.35404e-06
1.48332e-07
6.35906e-06
-3.03724e-06
-1.09197e-06
2.04849e-06
2.08073e-06
-2.54819e-06
8.36742e-07
-1.60851e-06
2.95274e-06
-6.00439e-06
6.01114e-07
-3.62958e-07
-4.89769e-08
5.55101e-06
-9.53547e-07
-1.43848e-07
9.97211e-08
9.97674e-07
-1.46063e-06
-3.96966e-07
8.61231e-07
9.9636e-07
-4.4901e-08
1.828e-06
-1.84618e-06
6.3082e-08
-1.91203e-07
-1.12666e-06
-5.88281e-07
1.02293e-08
1.17492e-06
7.20994e-07
-1.47595e-06
-4.64147e-06
7.09725e-07
-5.08777e-07
1.63138e-06
4.28509e-06
-2.00428e-06
-1.2414e-07
-3.11813e-07
-1.51353e-08
2.06126e-06
3.94108e-07
1.56345e-06
-7.68234e-07
-6.66121e-06
-1.29761e-07
-1.00583e-06
7.00158e-06
-2.74266e-06
4.09966e-06
6.29131e-05
-1.66568e-06
-2.26946e-06
-1.51077e-06
-1.48388e-06
1.11568e-06
9.74879e-07
1.21102e-06
1.34193e-06
-1.86156e-06
1.4369e-06
7.97205e-05
-8.99894e-07
-2.93537e-07
-1.37846e-07
3.58911e-07
-4.90512e-07
-1.20381e-06
6.60205e-05
2.49492e-07
2.77161e-07
6.89318e-07
2.40429e-07
-5.91737e-07
-3.00793e-07
-3.33987e-07
-2.45475e-06
5.09092e-07
-8.7421e-07
2.32936e-06
-2.15036e-06
9.61889e-07
-8.85614e-07
2.07408e-06
5.0225e-07
-9.75627e-06
4.46186e-07
-1.03584e-06
7.76786e-08
9.766e-06
-2.99973e-06
9.07806e-07
8.02849e-05
1.4389e-06
1.58815e-06
2.04785e-06
2.05534e-06
-2.31852e-07
3.69842e-07
9.17681e-05
8.28644e-08
8.59998e-08
6.93872e-05
-4.49133e-07
2.09636e-07
-3.22822e-07
4.52539e-07
2.96325e-07
3.28059e-07
-8.89468e-06
2.4214e-07
-6.38694e-08
7.82861e-07
8.01641e-06
-8.55688e-06
1.29313e-06
-1.19435e-06
-3.02985e-07
9.04778e-06
-2.86697e-07
-3.22099e-06
2.77385e-07
5.44671e-05
7.7558e-07
9.83305e-07
1.26098e-06
1.04237e-06
-2.33991e-07
4.39424e-07
-1.30963e-07
-5.9901e-07
1.69482e-07
5.1255e-05
-7.50356e-07
-1.35076e-07
-6.48366e-07
3.07088e-07
8.61637e-08
2.1376e-07
-6.90088e-06
-9.35178e-07
1.45591e-07
7.17745e-06
-1.50098e-06
-9.77749e-07
1.37298e-06
1.10575e-06
-3.2857e-06
4.60814e-07
-7.79623e-07
3.88189e-06
-4.97618e-06
5.2154e-07
-4.39861e-07
4.87888e-07
4.5761e-06
-1.0738e-06
-2.10254e-07
5.80856e-08
1.22597e-06
-7.68742e-07
-3.46884e-07
4.18092e-07
6.97535e-07
-1.55662e-07
1.85858e-06
-2.06309e-06
3.60176e-07
4.37693e-07
-1.03199e-06
-9.47344e-07
-2.09418e-07
4.04674e-07
1.34638e-06
-9.32227e-07
-4.07302e-06
1.16966e-06
-8.46924e-07
5.63339e-07
4.11917e-06
-2.13628e-06
2.9346e-07
-4.49863e-07
-4.96067e-07
2.24773e-06
5.4102e-07
1.87291e-06
-6.81025e-07
-7.24786e-06
-3.32943e-07
-1.14245e-06
7.53136e-06
-3.38177e-06
1.8061e-06
6.19538e-05
-8.7274e-07
-7.20618e-07
-6.09722e-07
-1.6735e-07
1.27287e-06
1.11236e-06
1.11647e-06
1.40371e-06
-1.74691e-06
1.21938e-08
7.53377e-05
3.10607e-07
5.1065e-07
9.58443e-07
9.56041e-07
-4.33211e-08
-1.30484e-06
6.28684e-05
7.11229e-07
4.98017e-07
1.13163e-06
5.0984e-07
-5.92453e-08
-7.73315e-08
3.92838e-08
-2.26166e-06
4.67743e-07
-5.34326e-07
2.28492e-06
-2.11649e-06
1.01096e-06
-1.20326e-06
2.3088e-06
1.22611e-06
-9.81499e-06
5.85764e-07
-1.63929e-06
-2.42085e-07
9.88449e-06
-3.09717e-06
1.23611e-06
7.64527e-05
1.622e-06
1.64281e-06
2.10456e-06
2.12991e-06
6.83152e-07
1.50181e-06
8.64982e-05
2.60768e-07
1.49634e-07
6.68638e-05
-5.38991e-08
1.31272e-07
2.3517e-08
4.7881e-07
5.12825e-07
3.98771e-07
-7.25786e-06
2.79092e-07
5.85856e-08
5.5637e-07
6.62458e-06
-9.52595e-06
1.45242e-06
-1.80924e-06
-7.4664e-08
1.00146e-05
-5.71257e-08
-4.37207e-06
6.83346e-07
5.12695e-05
1.63445e-06
1.53225e-06
2.2551e-06
1.57014e-06
1.32687e-07
7.63848e-07
2.33955e-07
-8.66435e-08
2.92516e-07
4.77307e-05
-3.66805e-07
3.29051e-07
-2.8785e-07
3.3439e-07
2.39259e-07
2.00141e-07
-7.91871e-06
-2.95804e-07
6.10234e-08
8.21649e-06
-9.50479e-07
-6.94707e-07
5.87475e-07
1.05771e-06
-4.4707e-06
1.72937e-07
-1.08691e-07
5.0898e-06
-4.14323e-06
2.21486e-07
-1.57318e-07
3.56155e-07
4.01542e-06
-1.36986e-06
-7.99129e-09
-1.67825e-07
1.54568e-06
-7.26284e-07
-4.45565e-07
3.49709e-07
8.2214e-07
-6.58274e-07
1.47608e-06
-1.72867e-06
9.10867e-07
8.87686e-07
-8.61482e-07
-1.78787e-06
-1.73263e-07
-3.31538e-07
2.26647e-06
-8.50938e-07
-4.38356e-06
1.08427e-06
-8.78484e-07
1.79166e-07
4.84955e-06
-2.38056e-06
5.6831e-07
-5.25599e-07
-8.71281e-07
2.49968e-06
7.09448e-07
1.76682e-06
-1.06133e-06
-7.81377e-06
2.91551e-08
-1.23607e-06
8.3152e-06
-4.0892e-06
-9.80669e-07
6.20288e-05
-4.50368e-08
1.66576e-07
1.77777e-08
5.08793e-07
1.07633e-06
9.80083e-07
1.08329e-06
1.20708e-06
-1.25035e-06
-1.44121e-06
7.06048e-05
7.56731e-07
6.64685e-07
1.0622e-06
8.51705e-07
8.57374e-08
-1.1996e-07
5.73602e-05
1.03185e-06
6.79237e-07
1.36928e-06
6.85251e-07
2.79123e-07
-2.203e-08
2.69347e-07
-2.22366e-06
5.54783e-07
-5.14413e-07
2.26903e-06
-2.6694e-06
7.23457e-07
-1.13396e-06
3.0799e-06
1.33162e-06
-1.00479e-05
4.37931e-07
-1.80572e-06
-2.1852e-07
1.03026e-05
-3.86534e-06
-1.9813e-07
7.13355e-05
1.76048e-06
1.87115e-06
2.22085e-06
2.34754e-06
1.42333e-06
7.44247e-07
7.90241e-05
1.69118e-07
5.94973e-07
6.3848e-05
3.20963e-07
2.31372e-07
4.26319e-07
7.62555e-07
1.09052e-06
7.23377e-07
-6.16182e-06
8.74389e-08
-1.75593e-07
3.87134e-07
6.03195e-06
-1.05541e-05
1.47182e-06
-2.17891e-06
1.65227e-07
1.10399e-05
5.61372e-08
-6.19293e-06
6.79904e-07
4.71975e-05
2.25333e-06
1.71454e-06
2.60133e-06
1.59685e-06
2.05136e-07
7.44115e-07
2.71546e-07
-1.04706e-07
1.98858e-07
4.23683e-05
-3.24573e-07
1.91715e-07
-2.79987e-07
1.08088e-07
1.37581e-07
-1.32909e-08
-9.02878e-06
5.82988e-08
2.42772e-07
9.21798e-06
-1.29833e-06
-3.13512e-07
-2.8308e-08
1.64015e-06
-5.66586e-06
-2.65429e-07
5.99965e-07
6.01123e-06
-3.99169e-06
-3.11686e-07
3.57644e-07
1.87319e-08
4.12586e-06
-1.71958e-06
1.95516e-07
-3.5825e-07
1.88231e-06
-9.55367e-07
-5.61957e-07
3.91554e-07
1.12577e-06
-1.01666e-06
1.41981e-06
-1.38011e-06
9.76967e-07
1.01621e-06
-1.09607e-06
-2.67603e-06
3.47435e-07
-5.3063e-07
2.93909e-06
-8.37046e-07
-5.46542e-06
2.82213e-07
-2.64052e-07
2.47496e-07
6.03681e-06
-2.64036e-06
6.13394e-07
-5.24471e-07
-7.99196e-07
2.7658e-06
5.84836e-07
1.13041e-06
-4.80082e-07
-8.99378e-06
-1.87895e-07
-1.25714e-06
9.78848e-06
-6.0083e-06
-2.38987e-06
6.41509e-05
1.76197e-07
4.34285e-07
1.7318e-07
6.73234e-07
1.24097e-06
9.17516e-07
1.39699e-06
1.26367e-06
-1.76881e-06
-2.38038e-06
6.67561e-05
6.72037e-07
3.00692e-07
6.89036e-07
3.27766e-07
1.54101e-08
9.04223e-07
5.02105e-05
1.11401e-06
7.37918e-07
1.1905e-06
7.13076e-07
3.39767e-07
-4.15797e-08
4.07529e-07
-2.24963e-06
6.80472e-07
-7.11383e-07
2.29595e-06
-3.31564e-06
4.06553e-08
7.78528e-09
3.2672e-06
3.06397e-07
-1.07626e-05
3.47005e-07
-1.34661e-06
2.74413e-07
1.11814e-05
-5.36169e-06
-1.12204e-06
6.70856e-05
1.85304e-06
1.96564e-06
2.19305e-06
2.33208e-06
9.99772e-08
-8.49354e-07
7.20314e-05
1.7971e-07
1.12694e-06
5.88747e-05
4.31566e-07
3.69063e-07
4.82059e-07
9.55859e-07
1.5387e-06
8.93643e-07
-6.13634e-06
1.09453e-07
4.26221e-08
-1.19815e-07
6.2838e-06
-1.16062e-05
8.10884e-07
-1.87363e-06
6.49116e-07
1.23333e-05
-3.13445e-07
-6.8486e-06
6.16659e-07
4.49478e-05
2.16308e-06
1.11823e-06
2.33413e-06
7.05814e-07
1.37513e-07
7.25301e-07
1.7553e-07
-5.27384e-07
-2.21087e-07
3.79685e-05
-4.93574e-07
-4.12943e-07
-4.67564e-07
-3.72462e-07
-3.21482e-07
-4.81639e-07
-9.98288e-06
5.32867e-08
5.42674e-07
9.98648e-06
-1.97779e-06
1.28709e-07
-4.02558e-07
2.25164e-06
-6.35399e-06
-1.07255e-06
1.6144e-06
6.4288e-06
-4.44108e-06
-1.03746e-06
9.75148e-07
-4.03747e-07
4.68605e-06
-2.03456e-06
3.5381e-07
-4.79814e-07
2.16056e-06
-1.31609e-06
-4.76151e-07
2.8965e-07
1.50259e-06
-9.01574e-07
1.50811e-06
-1.50157e-06
8.95035e-07
9.88742e-07
-1.33735e-06
-3.10091e-06
1.06767e-06
-8.04765e-07
3.18661e-06
-5.61134e-07
-6.45134e-06
-9.37086e-07
8.21839e-07
5.42589e-07
6.58513e-06
-2.96687e-06
4.95785e-07
-4.10885e-07
-1.64141e-07
3.10745e-06
-6.13379e-08
7.00599e-07
4.54915e-07
-1.05296e-05
-8.89235e-07
-9.41959e-07
1.12053e-05
-7.92357e-06
-2.39184e-06
6.60811e-05
3.26061e-07
4.16994e-07
7.23369e-07
7.33583e-07
1.66419e-06
1.12545e-06
1.72939e-06
1.66619e-06
-3.48568e-06
-2.25369e-06
6.53042e-05
-4.20171e-08
-3.70953e-07
7.15006e-08
-3.90793e-07
-2.66981e-07
1.1393e-06
4.4035e-05
4.33035e-07
5.42827e-07
2.9025e-07
4.90165e-07
1.92951e-07
-3.16266e-07
1.84537e-07
-2.34312e-06
7.75058e-07
-9.93151e-07
2.29424e-06
-3.02173e-06
-1.35588e-07
4.04096e-07
2.75322e-06
-6.44119e-07
-1.14847e-05
6.003e-07
-4.52553e-07
5.3017e-07
1.14509e-05
-6.38645e-06
-7.84746e-07
6.48104e-05
1.49206e-06
1.71637e-06
1.79946e-06
2.04667e-06
-2.53051e-06
-1.26741e-06
6.71892e-05
2.18698e-07
1.05409e-06
5.25053e-05
3.15494e-07
3.25345e-07
3.67508e-07
7.61738e-07
1.26658e-06
6.68706e-07
-6.60237e-06
4.30208e-07
3.79474e-07
-6.91056e-07
6.70244e-06
-1.32747e-05
-1.98082e-07
-1.06297e-06
1.39851e-06
1.41653e-05
-1.02812e-06
-4.3318e-06
7.98676e-07
4.47155e-05
1.3797e-06
-2.1031e-07
1.4418e-06
-7.88337e-07
1.78022e-07
8.25595e-07
1.54232e-07
-1.00075e-06
-5.83766e-07
3.75206e-05
-4.25489e-07
-7.31099e-07
-3.1694e-07
-6.97481e-07
-6.62032e-07
-7.33837e-07
-1.04804e-05
-1.40807e-07
5.60105e-07
1.01144e-05
-2.48883e-06
5.26393e-07
-6.4176e-07
2.60419e-06
-6.45987e-06
-1.95155e-06
2.85157e-06
6.35852e-06
-5.1459e-06
-1.75425e-06
1.44169e-06
-7.18403e-07
5.59309e-06
-2.27041e-06
4.34874e-07
-5.3031e-07
2.36585e-06
-1.66458e-06
-2.1625e-07
7.32458e-08
1.80758e-06
-1.03986e-06
1.21263e-06
-1.42882e-06
1.25606e-06
8.38143e-07
-1.39762e-06
-3.33484e-06
1.68043e-06
-1.43825e-06
3.65214e-06
-3.13087e-07
-6.59069e-06
-1.82307e-06
1.6142e-06
5.59509e-07
6.55314e-06
-3.23694e-06
4.66064e-07
-3.83693e-07
4.59939e-07
3.19255e-06
-4.97924e-07
1.74121e-07
1.49252e-06
-1.1464e-05
-1.29386e-06
8.90366e-08
1.10022e-05
-8.69882e-06
-1.74621e-06
6.71396e-05
9.4431e-07
3.01766e-07
1.20758e-06
6.28811e-07
1.6048e-06
1.48591e-06
1.29889e-06
1.91441e-06
-4.62875e-06
-2.43227e-06
6.49168e-05
-2.84282e-07
-9.08061e-07
2.65907e-07
-3.23977e-07
-5.75083e-07
1.58491e-06
4.063e-05
-6.9453e-07
-1.42341e-08
-5.82461e-07
-2.41708e-08
-1.33191e-07
-5.79393e-07
-2.05622e-07
-2.31492e-06
6.61141e-07
-1.16943e-06
2.24813e-06
-2.59836e-06
-3.81592e-07
3.84556e-07
2.59539e-06
-6.41137e-07
-1.13472e-05
5.10258e-07
-1.47918e-07
3.78504e-07
1.12475e-05
-6.3795e-06
4.71004e-07
6.33658e-05
1.14389e-06
1.34768e-06
1.51186e-06
1.60345e-06
-4.11037e-06
-1.69466e-06
6.41824e-05
1.82494e-07
5.34489e-07
4.73245e-05
2.69004e-07
2.17049e-07
2.9682e-07
2.98284e-07
6.2342e-07
2.33766e-07
-6.86329e-06
7.06645e-07
5.25361e-07
-1.03903e-06
6.85281e-06
-1.4839e-05
-7.76581e-07
7.41589e-08
1.9819e-06
1.47935e-05
-1.23404e-06
1.5323e-06
9.88152e-07
4.64816e-05
-1.4433e-07
-2.09473e-06
-7.97721e-07
-2.35544e-06
3.59295e-07
9.31372e-07
2.86044e-07
-6.95875e-07