/*--------------------------------*- C++ -*----------------------------------*\
| =========                 |                                                 |
| \\      /  F ield         | OpenFOAM: The Open Source CFD Toolbox           |
|  \\    /   O peration     | Version:  5.x                                   |
|   \\  /    A nd           | Web:      www.OpenFOAM.org                      |
|    \\/     M anipulation  |                                                 |
\*---------------------------------------------------------------------------*/
FoamFile
{
    version     2.0;
    format      ascii;
    class       volScalarField;
    location    "1";
    object      p;
}
// * * * * * * * * * * * * * * * * * * * * * * * * * * * * * * * * * * * * * //

dimensions      [0 2 -2 0 0 0 0];

internalField   nonuniform List<scalar> 
10571
(
249.112
289.743
264.435
213.049
218.575
264.465
223.632
204.391
205.967
220.06
259.376
227.047
201.524
196.168
191.235
232.585
155.088
178.88
175.785
230.799
214.191
223.419
222.544
229.491
89.1108
94.7315
80.7805
96.7208
109.899
80.3224
86.656
119.236
161.844
178.595
99.9053
93.3239
130.714
131.104
134.232
157.248
109.124
130.065
129.701
136.694
99.0935
163.438
182.757
176.353
71.5495
75.4552
74.6326
75.9243
87.7368
78.9522
78.1081
70.0203
78.6289
114.344
88.5932
83.5596
84.9904
81.3198
77.1039
82.0558
96.4765
109.152
93.3796
73.1793
75.6755
107.781
122.359
109.005
67.1538
69.6716
67.8976
66.5174
64.7116
74.2947
68.6877
64.59
63.6683
71.7636
73.8473
75.6364
70.5399
70.0972
67.3926
69.7803
76.7698
87.71
76.091
71.5101
71.9373
78.8375
83.4399
72.1188
66.2782
66.645
65.9222
65.8543
64.6962
67.3349
65.3013
65.9948
64.8792
64.1664
65.8931
67.1478
66.4207
67.1842
66.0067
65.7888
66.2308
64.3994
67.5199
67.5995
70.979
63.286
63.9551
66.5448
65.0914
64.8165
64.8019
64.9808
64.6048
64.1607
64.3163
65.3059
64.8246
64.3146
64.2012
64.1881
63.9344
64.5453
65.4939
65.2095
64.3784
64.1221
63.186
61.7812
62.6824
65.1574
66.7446
62.8862
62.8391
63.8839
64.3982
63.8752
64.0388
64.3087
64.3978
63.2949
63.2478
63.9987
64.1429
64.1579
64.2008
63.4964
63.0136
63.065
63.9939
63.9354
63.9354
64.0929
63.1272
62.9904
62.1127
63.0017
63.4241
63.9912
62.8852
62.7306
62.6406
63.8185
63.327
63.4495
63.7506
63.9689
63.0965
62.8134
63.1908
63.5961
64.0985
64.0661
63.1356
62.9446
62.5589
62.4351
63.076
63.7285
64.0091
62.9985
62.7712
62.5693
62.5916
63.4377
64.0273
62.863
62.7297
62.732
63.4455
63.083
63.1477
63.3681
63.5311
62.9721
62.8069
62.9794
63.2817
63.7337
64.0574
62.9876
62.8995
62.7385
62.0063
62.9672
63.4333
64.1214
62.9113
62.7411
62.7292
62.7735
62.2459
62.8348
62.7652
62.7904
63.2321
62.9416
62.9756
63.1898
63.2686
62.8528
62.8325
62.9926
63.1017
62.9207
62.9221
62.859
62.8674
62.5582
63.0744
62.8047
62.8855
62.8137
62.793
62.87
62.2373
62.841
62.7865
62.8364
63.0948
62.857
62.9232
63.0766
63.1292
62.8032
62.8246
62.9621
62.9548
62.7453
62.8862
62.8318
62.883
62.8417
62.9576
62.4814
62.8587
62.8439
62.8326
62.9119
62.6409
62.8546
62.8361
62.8724
63.0003
62.7729
62.8655
62.9777
63.0249
62.6656
62.7792
62.881
62.8631
62.8605
62.8663
62.7751
62.8282
62.8424
62.8488
62.7137
62.8334
62.8329
62.8355
62.8947
62.75
62.8557
62.853
62.8829
62.9142
62.7122
62.8206
62.8923
62.9449
62.5442
62.7002
62.7956
62.8141
62.8582
62.6888
62.6602
62.7635
62.7803
62.7959
62.741
62.8227
62.8099
62.8235
62.8539
62.8057
62.8412
62.8492
62.8763
62.84
62.6818
62.7943
62.8161
62.8804
62.477
62.6324
62.7172
62.7909
62.8348
62.6197
62.5739
62.6968
62.7341
62.772
62.7657
62.8132
62.7913
62.8026
62.8099
62.8415
62.8183
62.8291
62.8557
62.7886
62.691
62.7603
62.7658
62.8393
62.4454
62.6273
62.648
62.7634
62.82
62.642
62.5555
62.6332
62.7225
62.7565
62.7692
62.7756
62.7772
62.7817
62.7664
62.8393
62.7861
62.8093
62.8193
62.7468
62.7286
62.7414
62.7422
62.805
62.5158
62.6609
62.6242
62.7371
62.7977
62.7192
62.6069
62.5949
62.7204
62.7281
62.7584
62.7572
62.7623
62.7571
62.7401
62.826
62.7601
62.7863
62.7979
62.7368
62.8208
62.753
62.7385
62.7773
62.6958
62.6885
62.6771
62.7253
62.7716
62.802
62.698
62.583
62.7121
62.7011
62.7406
62.767
62.7463
62.7232
62.7083
62.7559
62.7488
62.7643
62.7727
62.7509
62.9045
62.7632
62.7424
62.7658
62.8504
62.7152
62.7449
62.7155
62.7447
62.8456
62.7652
62.5846
62.6988
62.6725
62.7297
62.774
62.7216
62.6972
62.6698
62.7343
62.7256
62.7338
62.7415
62.7501
62.9268
62.7655
62.7405
62.7321
62.9068
62.708
62.7599
62.6878
62.7147
62.8433
62.7821
62.598
62.6746
62.6328
62.7133
62.7591
62.6922
62.674
62.6303
62.6939
62.6965
62.6998
62.7061
62.7274
62.9034
62.7528
62.7183
62.6925
62.892
62.6623
62.7128
62.6404
62.6789
62.808
62.7649
62.608
62.641
62.5905
62.6875
62.7268
62.6584
62.6453
62.5956
62.6605
62.6639
62.6667
62.6649
62.6818
62.8344
62.7177
62.6735
62.6448
62.8076
62.6141
62.6358
62.5835
62.6288
62.7518
62.7207
62.6017
62.6089
62.5525
62.6521
62.6863
62.6137
62.62
62.5625
62.619
62.6303
62.6312
62.6235
62.6096
62.7017
62.6284
62.6069
62.5894
62.69
62.5694
62.5481
62.5347
62.5876
62.6785
62.6593
62.5743
62.575
62.515
62.609
62.6375
62.5576
62.5852
62.527
62.5812
62.5962
62.5945
62.5842
62.5239
62.5147
62.477
62.5192
62.5293
62.5509
62.4975
62.451
62.4926
62.5492
62.5896
62.5807
62.5226
62.5336
62.4844
62.5651
62.5815
62.4996
62.5416
62.4929
62.5446
62.5642
62.5614
62.5474
62.4462
62.3475
62.3234
62.4275
62.4753
62.4398
62.3931
62.363
62.4427
62.5123
62.5068
62.4978
62.4599
62.4772
62.4515
62.5148
62.5257
62.4403
62.504
62.4647
62.5047
62.5214
62.5282
62.5125
62.4043
62.2547
62.2279
62.3658
62.4389
62.366
62.2736
62.293
62.3851
62.4821
62.4467
62.4273
62.389
62.4057
62.4006
62.4705
62.4736
62.3921
62.4717
62.4377
62.4659
62.4791
62.4943
62.4791
62.4117
62.2593
62.2013
62.344
62.4334
62.3284
62.1413
62.251
62.3503
62.4607
62.414
62.3813
62.3229
62.323
62.358
62.4371
62.4364
62.3615
62.4319
62.4106
62.4356
62.4487
62.466
62.4492
62.4692
62.328
62.2627
62.3895
62.459
62.3272
62.0536
62.2253
62.3546
62.4515
62.41
62.3734
62.287
62.2686
62.3486
62.4177
62.4212
62.3439
62.3783
62.3862
62.4166
62.4372
62.4474
62.4281
62.5929
62.4311
62.3822
62.4903
62.5314
62.3722
62.0424
62.2112
62.3784
62.4627
62.4232
62.3947
62.2859
62.2419
62.3586
62.4115
62.4251
62.3596
62.3372
62.3828
62.4044
62.4579
62.447
62.4213
62.7574
62.6067
62.5831
62.6408
62.6315
62.4784
62.1483
62.2213
62.3958
62.4788
62.4308
62.4225
62.3099
62.2504
62.3772
62.4101
62.4354
62.3996
62.3052
62.3844
62.3949
62.5138
62.4279
62.421
62.9157
62.7582
62.8491
62.7889
62.748
62.5821
62.3527
62.2772
62.429
62.5028
62.4179
62.4313
62.3408
62.2499
62.3911
62.4132
62.4347
62.4338
62.283
62.3778
62.3861
62.6034
62.3803
62.4066
62.904
62.7824
62.9628
62.9228
62.8407
62.6086
62.5679
62.3909
62.4912
62.5305
62.4044
62.4291
62.3656
62.2267
62.3739
62.406
62.42
62.4331
62.2801
62.3665
62.3711
62.6204
62.3389
62.3879
63.0659
62.7369
62.9179
62.9117
62.8621
62.532
62.6621
62.4988
62.5436
62.524
62.3991
62.4125
62.3568
62.1955
62.3366
62.3829
62.389
62.3786
62.3103
62.3571
62.3542
62.5223
62.3095
62.3585
63.1519
62.6321
62.8395
63.1265
62.7884
62.4074
62.4938
62.4028
62.5071
62.4756
62.3651
62.365
62.2491
62.2532
62.3014
62.3414
62.3433
62.3017
62.3198
62.3309
62.3299
62.3924
62.2865
62.3171
62.9087
62.4825
62.6335
63.0718
62.6234
62.2959
62.2404
62.1435
62.353
62.3539
62.304
62.2815
62.1109
62.2612
62.2514
62.2758
62.2897
62.2175
62.284
62.2674
62.2818
62.2786
62.2765
62.269
62.3428
62.3149
62.3426
62.3839
62.2638
62.2088
62.0479
61.7675
62.1396
62.1791
62.2349
62.2115
62.047
62.2213
62.1701
62.196
62.2345
62.1598
62.2357
62.2084
62.2193
62.1975
62.2382
62.2223
61.7102
62.1694
62.0925
61.7562
61.8992
62.1347
61.9435
61.5934
61.968
62.02
62.1729
62.1531
62.0375
62.1425
62.0919
62.1164
62.1871
62.1249
62.1795
62.1475
62.1588
62.1551
62.1917
62.1767
61.3638
62.0734
61.9434
61.4234
61.7013
62.0804
61.9126
61.6298
61.9007
61.9412
62.1176
62.0923
62.0561
62.0437
62.0497
62.0623
62.1529
62.1076
62.1167
62.0991
62.1117
62.1354
62.1519
62.1372
61.4791
62.0405
61.912
61.4432
61.7571
62.0569
61.9822
61.7564
61.9432
61.9709
62.0763
62.0252
62.0863
61.9972
62.0359
62.0531
62.1335
62.106
62.0893
62.0838
62.0956
62.1292
62.1298
62.1161
61.7682
62.0624
61.9841
61.7105
61.94
62.0628
62.0812
61.9407
62.0284
62.0431
62.0592
61.9932
62.1171
62.0018
62.0614
62.08
62.1329
62.1202
62.0952
62.0961
62.1073
62.136
62.1281
62.1167
62.0136
62.1221
62.1129
61.9404
62.0844
62.0826
62.1537
62.1318
62.1167
62.1546
62.0674
61.9906
62.1428
62.0261
62.109
62.1191
62.1523
62.1566
62.1344
62.1315
62.1379
62.1628
62.1483
62.1398
62.2825
62.2046
62.2621
62.14
62.2593
62.1133
62.1647
62.2648
62.2088
62.2823
62.1013
62.0213
62.1606
62.0541
62.1415
62.1756
62.1944
62.2184
62.1871
62.1794
62.181
62.2084
62.1916
62.1826
62.5255
62.2895
62.4068
62.4386
62.4973
62.158
62.1616
62.3818
62.3244
62.418
62.1641
62.0877
62.1751
62.1194
62.1834
62.2542
62.2579
62.2861
62.2506
62.2322
62.2377
62.2785
62.2558
62.2385
62.6594
62.3607
62.4946
62.6719
62.7532
62.2161
62.195
62.4265
62.4541
62.5957
62.2554
62.1813
62.2339
62.2166
62.2354
62.3445
62.3348
62.3626
62.3372
62.2952
62.3018
62.3501
62.325
62.2986
62.6534
62.4149
62.517
62.6768
62.8972
62.29
62.229
62.4046
62.5511
62.6762
62.3706
62.2925
62.3105
62.2885
62.3127
62.4108
62.4184
62.437
62.3864
62.3391
62.3558
62.428
62.4002
62.3543
62.5776
62.4641
62.5028
62.5531
62.6878
62.3824
62.2706
62.27
62.4488
62.5286
62.5099
62.4171
62.3911
62.3293
62.3399
62.4296
62.5085
62.511
62.4154
62.366
62.393
62.5044
62.4568
62.4008
62.4964
62.5244
62.4959
62.4284
62.4118
62.4922
62.3646
62.1997
62.3303
62.4249
62.6425
62.5388
62.4751
62.3407
62.3689
62.4681
62.6053
62.5859
62.4576
62.4106
62.4339
62.5805
62.5145
62.45
62.4868
62.6038
62.5335
62.4088
62.3753
62.6209
62.5347
62.3332
62.4995
62.4881
62.7581
62.6398
62.5711
62.349
62.4008
62.5947
62.7081
62.6738
62.5106
62.4947
62.5286
62.66
62.5716
62.5138
62.5512
62.69
62.6283
62.4928
62.5809
62.7548
62.725
62.5568
62.9438
62.8554
62.8495
62.7598
62.6665
62.4124
62.5833
62.8594
62.8384
62.7633
62.5853
62.6366
62.6909
62.7335
62.6325
62.5923
62.6369
62.7567
62.7199
62.5863
62.7593
62.8487
62.8225
62.6929
63.1414
63.147
62.8853
62.857
62.7648
62.5773
62.8488
63.107
62.938
62.8414
62.6681
62.7714
62.8456
62.7962
62.7029
62.6886
62.697
62.7944
62.7745
62.6393
62.7819
62.8781
62.8197
62.6892
62.9406
63.0878
62.9097
62.9202
62.8364
62.6607
62.8634
62.9843
62.9692
62.8916
62.7005
62.8413
62.8839
62.8561
62.7657
62.7769
62.7372
62.8209
62.8002
62.6652
62.7501
62.8864
62.7783
62.5855
62.6676
62.8978
62.9689
62.9833
62.8765
62.7008
62.9479
62.873
63.0005
62.9209
62.7482
62.8735
62.8695
62.9298
62.8306
62.8538
62.7798
62.862
62.8007
62.6941
62.741
62.9229
62.7651
62.4992
62.663
62.8848
63.0569
63.0913
62.9442
62.7591
63.2039
63.0406
63.0867
62.9542
62.8181
62.8754
63.1107
63.032
62.9093
62.9411
62.8273
62.9086
62.7996
62.7468
62.749
62.9722
62.7945
62.495
62.6549
62.8635
63.1542
63.2007
62.9908
62.7098
63.1587
63.1249
63.1759
63.0264
62.8744
63.1602
63.4217
63.1534
63.0086
63.0774
62.8646
62.9404
62.7696
62.7997
62.7317
62.999
62.8034
62.4649
62.4813
62.7679
63.1933
63.223
62.9856
62.5738
62.8994
63.0389
63.2527
63.0775
62.9301
63.4154
63.622
63.2013
63.0744
63.179
62.9022
62.9242
62.741
62.8364
62.7025
62.9983
62.7768
62.4588
62.3262
62.6292
63.1708
63.1588
62.9559
62.4502
62.6
62.7657
63.2009
63.0304
62.7429
63.0974
63.1541
63.1161
63.036
63.0481
62.9277
62.9023
62.729
62.8717
62.6819
62.9724
62.7108
62.451
62.1541
62.493
63.0844
63.0632
62.8318
62.3305
62.2738
62.4896
62.9861
62.8124
62.442
62.6033
62.7065
62.9179
62.8916
62.7971
62.9185
62.9333
62.8134
62.9213
62.6669
62.9421
62.6583
62.4006
61.993
62.3496
62.9839
62.9348
62.705
62.186
61.9136
62.2091
62.722
62.612
62.1383
62.1481
62.3029
62.6984
62.6602
62.4097
62.91
63.0196
62.9655
62.9401
62.6658
62.9611
62.7284
62.3594
61.8216
62.1682
62.9355
62.8461
62.6864
62.0358
61.5338
61.8775
62.5766
62.5945
61.9004
61.7084
61.9046
62.611
62.4642
62.0159
62.9138
63.1335
63.133
62.8823
62.6083
63.0479
62.8732
62.2457
61.5625
61.9154
63.0077
62.9201
62.7429
61.8822
61.0983
61.4021
62.7498
62.6676
61.8296
61.2431
61.4172
62.6244
62.2992
61.6024
62.9177
63.265
63.2182
62.782
62.5087
63.2085
62.9763
62.0481
61.1185
61.4755
63.2091
63.1521
62.8627
61.7856
60.498
60.5705
63.0917
62.9186
61.8915
60.803
60.7184
62.8642
62.2512
61.2816
62.9547
63.4385
63.2942
62.7737
62.4108
63.432
63.1198
61.834
60.2075
60.577
63.4995
63.4618
63.1689
61.6735
59.5311
58.7166
63.4893
63.3736
62.0346
60.4615
59.6123
63.2504
62.4207
61.2141
63.0571
63.6732
63.4353
62.9025
62.3024
63.7067
63.4021
61.6464
58.6567
58.0699
63.8364
63.7966
63.6009
61.5982
58.1821
54.1001
63.8941
63.9019
62.3441
60.0301
57.5588
63.7214
62.7618
61.4006
63.2324
63.9849
63.7343
62.9463
61.3672
64.0408
63.8564
61.6736
56.8413
48.5678
64.2055
64.18
64.1481
61.6469
57.0354
46.8827
-33.4116
64.3648
64.6087
62.8853
59.7213
53.1665
64.3239
63.3133
61.8182
63.6183
64.365
64.2404
63.2915
61.0082
64.423
64.4038
62.1799
56.4266
36.9839
0.601247
64.5792
64.5855
64.7622
62.3208
57.0939
43.1942
4.78434
64.8601
65.3555
63.6013
60.0734
47.1372
64.9575
64.0203
62.7436
64.615
64.7535
64.7718
64.3023
62.5525
64.7857
64.8435
63.4341
59.141
42.3534
9.66368
64.9537
64.9787
65.1405
63.3444
59.4141
45.9938
13.5444
65.2947
65.6225
64.5159
61.7165
50.6805
17.2834
65.4351
64.84
64.0203
65.3513
65.0845
65.1284
65.1023
63.9142
65.0868
65.1208
64.3981
62.2686
49.1722
12.5481
65.2829
65.3036
65.2715
64.1841
62.2121
50.2858
15.3498
65.6172
65.6357
65.2942
63.6098
58.5919
65.8354
65.5163
65.0421
65.519
65.3065
65.3153
65.3195
64.6584
65.2962
65.2573
64.927
63.8784
57.0663
65.4993
65.4599
65.3664
64.8868
64.0454
55.5523
-9.76002
65.7714
65.7851
65.7907
64.9827
65.3396
66.2756
66.0751
65.7349
65.4944
65.4465
65.434
65.3758
65.1366
65.347
65.3295
65.2517
64.8616
64.2942
65.587
65.4675
65.4127
65.2459
65.0317
64.1346
65.7762
65.7522
65.8528
65.5122
66.2271
66.2405
66.3184
66.0243
65.4504
65.4594
65.5273
65.4028
65.2716
65.276
65.325
65.3107
65.0918
65.6617
65.4386
65.2931
65.243
65.3291
65.1863
65.7394
65.6619
65.5514
65.6113
65.4981
66.1543
65.9644
65.8307
65.9862
65.4254
65.5824
65.5825
65.3294
65.2482
65.3176
65.3249
65.2334
65.1271
65.9164
65.436
65.2881
65.2574
65.3157
65.1516
65.9109
65.5938
65.474
65.495
65.3737
65.9751
65.8055
65.7976
65.8111
65.4864
65.7225
65.5656
65.2886
65.3221
65.4555
65.2778
65.1104
65.1204
65.9864
65.627
65.3872
65.2137
65.1879
65.1548
65.9171
65.5913
65.4465
65.4006
65.3136
65.9176
65.7286
65.6265
65.7005
65.6567
65.822
65.6141
65.3747
65.5389
65.5707
65.2804
65.0544
65.2614
66.0195
65.7426
65.4209
65.1201
65.1231
65.2979
66.0111
65.5497
65.3695
65.348
65.3282
65.9111
65.6081
65.4919
65.6805
65.9201
65.9845
65.7711
65.5642
65.8254
65.6626
65.2703
65.0557
65.5176
66.1334
65.7323
65.3689
65.028
65.1982
65.5377
66.1846
65.4222
65.2167
65.3464
65.4707
66.0964
65.3989
65.4293
65.5979
66.2252
66.2187
65.9833
65.7915
66.0981
65.8635
65.5337
65.3283
65.6662
66.368
65.7801
65.4643
65.0843
65.1023
65.5797
66.4195
65.3668
65.0029
65.2638
65.6236
66.3328
65.0774
65.4333
65.686
66.4244
66.302
66.0983
65.9064
66.2291
66.0158
65.7016
65.4707
65.862
66.6434
65.9388
65.6656
65.2453
65.2765
65.8471
66.6804
65.6093
65.076
65.3763
65.8802
66.572
65.1271
65.5371
65.9072
324.243
293.545
322.076
308.775
281.756
283.972
260.718
251.526
315.563
327.698
332.372
327.026
299.272
303.945
274.464
269.476
247.265
249.891
240.19
229.522
219.047
248.812
239.329
223.512
233.772
229.503
311.945
301.4
306.744
297.398
266.049
273.168
242.213
244.47
227.213
224.934
213.96
219.108
215.466
210.314
209.71
212.526
221.338
208.864
233.106
238.002
254.752
252.765
311.932
316.125
331.885
259.678
224.444
264.667
214.03
210.608
206.627
200.932
198.162
203.587
202.523
195.608
194.733
202.164
240.148
222.139
253.58
268.605
264.111
271.241
272.242
245.702
199.088
227.191
234.472
203.738
204.173
231.706
236.895
210.175
228.319
242.88
237.817
250.933
274.667
255.724
269.276
270.001
239.498
234.191
233.397
230.025
240.357
238.578
234.686
243.705
284.527
154.563
264.786
280.423
269.547
125.572
128.34
125.551
240.106
223.978
144.203
132.11
123.433
228.398
129.138
293.65
179.698
288.124
286.874
259.772
172.27
144.184
145.432
107.518
209.933
213.549
211.537
153.071
171.386
171.675
183.052
215.979
195.573
292.188
286.822
287.235
184.035
182.796
176.608
229.057
229.606
200.744
200.859
203.176
248.137
209.485
147.738
125.229
110.809
231.697
240.064
196.182
197.24
167.688
174.324
114.83
164.15
173.836
185.588
120.46
137.954
137.752
152.034
236.26
234.895
243.768
184.42
165.896
197.522
183.443
135.001
206.313
170.269
226.187
226.587
197.486
214.301
218.78
222.897
224.402
207.168
205.42
209.503
207.97
82.8727
76.3959
78.7411
78.0617
80.3822
76.6618
76.1697
75.8466
95.2655
101.838
77.0796
79.7272
97.1289
103.165
98.3902
99.4106
80.5076
82.9471
87.0059
81.0857
78.9415
77.3198
80.3934
81.3246
143.999
132.936
160.603
97.8435
115.552
109.992
136.605
170.307
144.485
100.316
107.647
102.593
79.514
86.5791
84.0889
177.385
169.541
148.739
143.165
136.698
97.576
99.8084
92.634
93.8027
98.0358
155.562
111.068
109.703
117.878
83.0229
104.86
100.665
125.796
118.11
131.681
101.413
118.633
97.8194
111.58
106.221
163.924
131.251
87.0839
77.3327
125.961
97.7833
82.7027
141.223
118.574
181.517
186.422
130.197
144.238
150.452
182.645
182.639
150.661
155.871
151.589
144.001
74.5959
72.3753
73.8925
74.4209
72.7918
70.2371
71.8615
70.149
69.5718
74.6996
68.2614
67.5455
65.2499
83.2189
68.1084
77.3235
74.1244
75.077
78.3535
77.7386
71.958
72.039
74.5569
74.3587
92.6825
80.3768
103.963
71.4127
74.4702
65.4025
75.7245
111.697
84.6941
76.6108
80.4959
79.4458
74.2539
76.0099
75.6366
104.011
105.339
88.3311
80.0812
83.1588
90.3368
93.6182
83.7723
86.0806
87.4579
89.386
72.338
73.3009
75.6199
69.7029
96.2269
87.0734
110.717
91.3116
96.8299
89.0794
97.2999
84.4666
87.4804
72.0503
89.3104
78.7949
72.6609
73.486
74.1361
72.1732
73.4405
98.4994
84.3774
119.213
123
90.7981
101.749
103.256
120.272
123.329
99.4777
91.3107
101.626
83.4205
69.9358
68.027
68.2704
69.364
68.3607
67.302
67.5907
67.126
67.211
65.9042
66.791
66.6904
66.2998
65.1069
65.5442
70.793
67.8276
69.1188
70.5532
71.3729
68.0404
67.3185
67.501
68.0525
65.4186
64.9315
64.9055
64.705
64.2611
65.3038
63.7117
68.6433
64.4691
71.329
71.1023
71.6998
68.3889
67.936
68.3336
69.2902
71.3155
64.022
64.977
66.2015
77.2962
81.6247
67.8405
68.6347
73.364
69.6588
67.8293
67.3768
67.0503
66.3991
79.4933
74.9602
80.2722
77.8504
76.6821
70.5067
71.4726
73.5752
70.4253
72.6318
69.5148
70.5112
69.3894
71.4681
68.1214
70.0833
71.0472
76.287
70.8448
88.142
86.9944
68.748
68.391
66.3408
78.3153
84.7403
69.9212
70.141
69.441
68.1435
66.7062
65.7178
66.5721
66.5334
66.3882
65.9274
65.7653
65.816
66.0951
65.8472
65.6321
65.5187
65.3789
65.2788
64.8999
65.9674
65.0675
66.2424
65.6627
65.64
65.5921
65.4204
64.7788
64.6995
64.5642
65.0893
64.0993
64.6265
64.6431
64.7833
64.343
64.2977
64.4055
66.3677
66.1799
66.0376
65.0259
65.019
64.6949
64.0683
64.4169
64.2476
64.1455
64.2845
65.4728
65.2725
64.8977
64.4964
63.8244
65.5824
66.3
64.9358
64.6764
66.4731
67.3343
62.9861
66.175
67.4309
65.4366
63.7489
63.663
62.9249
63.0877
70.8943
67.4622
69.7987
66.429
70.7044
67.0615
69.8076
71.4143
64.9684
62.768
63.1291
63.0989
62.7568
62.934
63.1336
65.717
63.4591
62.9497
63.6338
63.2819
65.4331
65.0542
64.546
65.3464
65.1083
65.2689
64.7876
64.6087
64.7353
65.0853
64.9888
64.7175
64.7372
64.6703
64.6739
64.5599
64.4701
64.0685
64.8799
64.3024
64.378
64.2802
64.4474
64.0017
63.9931
64.598
64.6566
64.4413
64.5557
64.5519
64.5424
64.4125
64.4195
64.3255
64.2346
64.3277
64.1059
63.8243
63.8939
63.7686
64.1392
64.1941
64.1555
64.1655
64.0324
64.1045
63.9407
64.292
64.0923
64.13
64.2169
64.435
64.0966
64.1522
64.0581
63.7854
63.761
63.7438
63.5647
64.5265
65.0669
63.9889
64.0283
63.8366
63.6595
63.5176
64.1324
64.1056
64.0748
64.012
64.1222
63.8871
64.0668
63.1637
63.3497
63.1532
62.8245
62.9182
63.1406
63.0189
63.0379
62.9528
66.7875
65.3265
66.5599
63.8269
62.7
62.9207
62.4015
61.5086
62.9823
63.0252
62.9463
62.9561
62.8461
62.8778
62.8035
62.8897
62.9489
62.7717
62.7267
62.88
62.8709
64.1045
63.7603
64.3515
64.1913
64.3064
64.0412
63.8503
63.9724
64.3699
64.3448
64.0797
64.0437
64.0409
64.3844
64.1423
63.7518
63.4811
64.0207
63.7216
63.609
63.5494
63.659
63.4679
63.3776
64.4172
64.333
64.3442
64.213
64.2532
64.073
64.2313
64.3059
64.141
64.3329
64.3254
64.2409
64.2848
64.1765
64.2515
63.581
63.5735
63.488
63.3816
63.3316
63.3044
64.2057
64.0399
64.1518
64.1197
64.2705
63.9619
64.1253
64.2104
64.1108
64.0806
64.0999
64.1906
64.0357
64.1024
63.4871
63.3937
63.2813
63.2846
63.2357
64.1453
63.792
63.8426
63.8534
64.1437
63.8254
63.962
64.0857
64.0355
64.0885
63.9908
64.0762
63.9638
64.0594
63.2851
63.1542
62.9927
63.0556
62.9834
63.0689
62.94
63.0057
62.9508
62.738
62.2668
62.4653
62.6708
62.8609
62.5803
62.6866
63.5822
64.1327
64.1612
64.0468
63.9563
64.0252
63.0092
62.9719
62.8769
62.8226
62.8982
62.8811
62.8647
62.7062
62.7917
62.7195
62.7189
62.7154
62.6695
63.4941
63.2993
63.7601
63.6062
63.7125
63.5066
63.3911
63.5053
63.8005
63.8261
63.6069
63.5984
63.6573
63.9332
63.7086
63.2768
63.1495
63.399
63.2707
63.264
63.1807
63.2132
63.1383
63.1582
64.0347
63.8712
64.0584
63.7255
63.7889
63.6984
63.8489
64.2804
64.3838
63.9653
64.3149
64.1428
64.2451
64.0976
64.2478
63.2186
63.1821
63.1821
63.0936
63.0976
63.0956
64.2901
63.8864
64.1166
63.8941
64.2574
63.7691
64.1484
64.1885
63.9991
64.0835
64.1008
64.1991
64.0014
64.1183
63.1343
63.1083
63.0451
63.0331
63.0266
64.1693
63.6366
63.9854
63.5911
64.143
63.3507
63.9749
64.0852
64.0256
64.0742
64.0544
64.1221
64.0893
64.1274
63.057
62.9883
62.8788
62.9558
62.894
62.9431
62.8548
62.9104
62.8623
62.6872
62.729
62.6568
62.671
62.5647
62.7582
62.7004
64.3107
62.7195
64.1511
64.0617
64.1249
64.1223
62.9303
62.8959
62.8489
62.8473
62.8349
62.8349
62.8257
62.7371
62.7278
62.7477
62.752
62.7545
62.7642
63.1726
63.0799
63.3339
63.2437
63.3499
63.2358
63.159
63.2387
63.4402
63.4693
63.3176
63.3201
63.2987
63.4726
63.3213
63.0663
62.9959
63.0875
63.0513
63.0788
63.0051
63.0012
62.9796
63.0092
63.5769
63.5088
63.6098
63.3826
63.431
63.3327
63.3975
63.6276
63.2498
63.0113
63.0347
63.03
62.9553
62.9892
62.9812
64.4969
63.6079
64.204
63.3584
64.1748
63.2553
63.7779
64.2399
64.0481
64.1537
64.0904
64.2181
64.1329
64.1393
62.9748
62.9834
62.9513
62.9437
62.9556
64.1089
63.1145
64.0844
63.1567
63.7797
62.6726
63.5784
64.1663
64.156
64.1606
64.1501
64.1636
64.1504
64.1579
62.9498
62.9334
62.8409
62.897
62.857
62.8994
62.8322
62.8928
62.8567
62.5316
62.7851
62.7557
62.8425
62.6025
62.8163
62.805
62.0935
62.8753
62.8762
62.8165
62.8131
62.8413
62.8254
62.8256
62.7708
62.7812
62.7742
62.7892
62.7949
62.821
62.9985
62.9399
63.163
63.0855
63.1518
63.0976
63.0287
63.08
63.2217
63.1818
63.1537
63.1479
63.1112
63.2403
63.1807
62.9358
62.8746
62.9366
62.9128
62.9391
62.8954
62.8823
62.8566
62.8711
63.2809
63.1899
63.2221
63.186
63.1726
63.0915
63.1149
63.0579
63.0309
62.9153
62.9457
62.9398
62.8754
62.8911
62.8927
62.8411
63.3988
62.7437
62.4467
61.3338
62.9156
62.9333
62.8907
62.8833
62.9087
63.426
62.0552
62.4159
61.2596
62.0653
62.9185
62.9006
62.8456
62.8785
62.8588
62.8694
62.856
62.8651
62.8592
62.7083
62.8369
62.8448
62.8845
62.7601
62.8501
62.8672
62.493
62.8766
62.8678
62.8529
62.866
62.8494
62.8646
62.8645
62.8052
62.8081
62.8074
62.8257
62.8189
62.8568
62.8891
62.8432
63.048
62.986
63.0332
63.0145
62.9479
62.9991
63.095
63.0581
63.0475
63.0481
63.0126
63.1267
63.0679
62.8165
62.7632
62.8334
62.8076
62.8139
62.8158
62.7876
62.7584
62.7648
63.1193
63.0297
63.0646
63.0731
63.0892
62.9829
63.0328
62.9866
62.9468
62.8222
62.8335
62.8384
62.758
62.7992
62.7896
62.4328
62.1103
62.8064
62.6302
62.6352
62.8813
62.8896
62.9046
62.8847
62.8713
62.1449
62.3198
62.6316
62.6068
62.54
62.8843
62.87
62.8518
62.8605
62.8553
62.8485
62.8379
62.8542
62.8509
62.784
62.8628
62.8625
62.9168
62.818
62.8706
62.8695
62.7092
62.8604
62.8615
62.8669
62.8581
62.857
62.8771
62.8748
62.8479
62.8433
62.8511
62.8605
62.859
62.8747
62.8059
62.7812
62.98
62.9176
62.9657
62.9421
62.8919
62.9342
62.9995
62.9713
62.9557
62.9496
62.9398
63.0142
62.9733
62.7103
62.6624
62.7513
62.6993
62.7242
62.7369
62.7248
62.6463
62.6946
63.0502
62.941
63.0054
62.9825
63.0095
62.9034
62.9808
62.9356
62.9354
62.6741
62.7713
62.7283
62.581
62.6662
62.6174
62.7608
62.7801
62.8719
62.7939
62.8141
62.8376
62.8395
62.7667
62.7545
62.8182
62.7016
62.6766
62.7374
62.7231
62.7351
62.851
62.8316
62.823
62.8486
62.8459
62.8245
62.8115
62.8448
62.8409
62.8316
62.8787
62.8743
62.8729
62.8419
62.8802
62.8788
62.7779
62.857
62.8509
62.8694
62.8667
62.8563
62.8525
62.8563
62.8707
62.8664
62.8558
62.8742
62.8656
62.8849
62.7667
62.7622
62.9069
62.8714
62.9067
62.8735
62.8558
62.8779
62.9043
62.9034
62.8745
62.865
62.8638
62.9362
62.8992
62.6219
62.6153
62.7002
62.6149
62.6633
62.6943
62.6856
62.5989
62.6349
62.9731
62.8722
62.9579
62.9098
62.9424
62.8455
62.9357
62.9242
62.9072
62.5159
62.5469
62.5249
62.5011
62.4907
62.4837
62.7953
62.8253
62.8456
62.7964
62.8391
62.6831
62.8077
62.6405
62.6414
62.776
62.7382
62.7528
62.7522
62.7569
62.7588
62.8187
62.8082
62.8068
62.8371
62.8345
62.8214
62.8065
62.8249
62.826
62.8414
62.8764
62.8756
62.8331
62.8351
62.8684
62.8679
62.8367
62.8405
62.8292
62.8444
62.8482
62.829
62.8374
62.844
62.8596
62.8461
62.8375
62.8474
62.84
62.8686
62.7639
62.7621
62.842
62.844
62.8452
62.8151
62.8359
62.8135
62.8321
62.8275
62.8122
62.8046
62.7976
62.8664
62.8407
62.6277
62.6416
62.6874
62.5889
62.6138
62.683
62.6942
62.5829
62.5887
62.9134
62.8245
62.9127
62.8577
62.8906
62.805
62.8931
62.8894
62.875
62.5118
62.4853
62.4811
62.5318
62.5125
62.4987
62.7967
62.8488
62.8277
62.7982
62.8493
62.6188
62.7461
62.6219
62.6121
62.7305
62.7701
62.7634
62.7719
62.7747
62.7751
62.795
62.7817
62.8009
62.8144
62.8178
62.7923
62.7857
62.8037
62.8091
62.8266
62.8573
62.8571
62.7849
62.8154
62.8428
62.8443
62.8342
62.8241
62.8234
62.828
62.8407
62.8002
62.8179
62.8362
62.8397
62.8354
62.8201
62.8266
62.8272
62.8353
62.7559
62.7595
62.7943
62.824
62.7904
62.779
62.806
62.7752
62.7792
62.7712
62.7694
62.7524
62.7461
62.8175
62.7949
62.6609
62.6933
62.702
62.5906
62.5534
62.7049
62.7106
62.6224
62.539
62.8714
62.7862
62.8767
62.8215
62.8553
62.7722
62.864
62.8618
62.8499
62.5629
62.5585
62.5315
62.5981
62.6205
62.5834
62.7968
62.8449
62.8099
62.7924
62.8365
62.6216
62.7293
62.6761
62.6458
62.7402
62.773
62.7768
62.765
62.7713
62.7717
62.7735
62.7699
62.7658
62.7914
62.7954
62.7628
62.7459
62.7796
62.7802
62.8077
62.8297
62.8307
62.753
62.797
62.8178
62.8174
62.839
62.8085
62.7828
62.8047
62.8171
62.7704
62.7922
62.7976
62.8153
62.8163
62.7988
62.804
62.8066
62.8089
62.7735
62.7839
62.7662
62.7892
62.7647
62.7574
62.7818
62.7575
62.7357
62.728
62.7373
62.7282
62.7219
62.7711
62.7433
62.7429
62.8091
62.7193
62.6641
62.5556
62.7693
62.7337
62.7321
62.599
62.8404
62.7635
62.8515
62.7893
62.8277
62.7602
62.84
62.8376
62.8248
62.6462
62.6979
62.654
62.7285
62.7729
62.7359
62.7849
62.8258
62.7841
62.7798
62.8193
62.682
62.7598
62.7626
62.7233
62.7812
62.7663
62.7641
62.7525
62.7627
62.7514
62.7745
62.7872
62.7332
62.7727
62.7697
62.7598
62.7324
62.7703
62.7655
62.7791
62.8053
62.8009
62.7275
62.7601
62.7891
62.7836
62.7854
62.7761
62.7727
62.7807
62.791
62.755
62.7741
62.7833
62.7918
62.7963
62.7753
62.7818
62.7838
62.7863
62.7895
62.7984
62.7521
62.7852
62.753
62.7497
62.7771
62.7494
62.7302
62.7359
62.7426
62.7401
62.7609
62.7551
62.7769
62.8752
62.9158
62.7534
62.8137
62.648
62.8694
62.7728
62.8704
62.698
62.8163
62.756
62.8268
62.7743
62.8089
62.7474
62.8135
62.8104
62.7964
62.8245
62.8415
62.812
62.9087
62.8932
62.867
62.7738
62.8116
62.7592
62.7684
62.7985
62.7614
62.7998
62.83
62.7897
62.8131
62.7536
62.7398
62.7318
62.743
62.7304
62.7992
62.8069
62.7372
62.7719
62.7644
62.7737
62.7418
62.7729
62.7631
62.7412
62.7718
62.7639
62.6891
62.7255
62.7537
62.7464
62.7463
62.7706
62.7661
62.7689
62.7735
62.7389
62.7614
62.7645
62.7697
62.7731
62.7507
62.7582
62.7622
62.7579
62.8072
62.8141
62.7498
62.767
62.7478
62.7506
62.7746
62.7472
62.7523
62.7729
62.7546
62.7569
62.7656
62.7732
62.761
62.9498
62.9762
62.791
62.9014
62.7423
62.9237
62.8065
62.9223
62.7706
62.7975
62.7326
62.7999
62.7502
62.7871
62.7165
62.7871
62.7812
62.7638
62.9686
62.9195
62.8968
62.9819
62.9226
62.904
62.76
62.7786
62.7307
62.7522
62.7638
62.8061
62.8191
62.8499
62.8115
62.8173
62.7198
62.7197
62.7222
62.7173
62.7051
62.8087
62.8042
62.741
62.7691
62.7592
62.7695
62.7369
62.7633
62.7522
62.7118
62.7354
62.7288
62.6507
62.6948
62.715
62.7114
62.7137
62.7594
62.7495
62.7523
62.756
62.7109
62.7415
62.7462
62.7461
62.7468
62.7158
62.7319
62.7302
62.7246
62.8146
62.8113
62.7461
62.7714
62.7436
62.7378
62.7658
62.7369
62.7507
62.7488
62.741
62.74
62.7289
62.7443
62.7232
62.972
62.9457
62.8141
62.9308
62.7816
62.9191
62.8165
62.9283
62.7878
62.7728
62.697
62.7722
62.7134
62.7556
62.6758
62.7523
62.7462
62.7253
62.9575
62.9082
62.8927
62.9266
62.8832
62.8708
62.7378
62.746
62.6996
62.7175
62.7223
62.8078
62.8086
62.8288
62.7975
62.7944
62.7063
62.6915
62.7014
62.697
62.6803
62.7935
62.778
62.7277
62.7541
62.7386
62.7441
62.7148
62.7418
62.7229
62.6754
62.6923
62.6916
62.6131
62.6574
62.6683
62.6726
62.6776
62.7335
62.7155
62.7283
62.7323
62.679
62.7108
62.7149
62.7194
62.7143
62.6828
62.7031
62.6957
62.6862
62.807
62.7929
62.7246
62.7587
62.7243
62.707
62.7452
62.7062
62.7249
62.7068
62.7083
62.704
62.6819
62.7
62.6754
62.9172
62.8809
62.8199
62.9176
62.8004
62.8761
62.8148
62.8896
62.8048
62.7338
62.6523
62.7279
62.6697
62.7118
62.6299
62.705
62.7016
62.6771
62.8954
62.8529
62.8448
62.8573
62.818
62.8151
62.6905
62.6965
62.6539
62.6674
62.6732
62.7821
62.7753
62.7822
62.761
62.752
62.683
62.6694
62.6717
62.6698
62.6561
62.76
62.7404
62.6987
62.727
62.7045
62.7073
62.6795
62.7088
62.6837
62.64
62.6453
62.653
62.58
62.6223
62.6238
62.6352
62.6402
62.6979
62.6778
62.691
62.6967
62.6474
62.6691
62.6786
62.6862
62.677
62.6487
62.6655
62.6584
62.6443
62.7646
62.7207
62.6828
62.7191
62.681
62.6504
62.6756
62.648