/*--------------------------------*- C++ -*----------------------------------*\
| =========                 |                                                 |
| \\      /  F ield         | OpenFOAM: The Open Source CFD Toolbox           |
|  \\    /   O peration     | Version:  5.x                                   |
|   \\  /    A nd           | Web:      www.OpenFOAM.org                      |
|    \\/     M anipulation  |                                                 |
\*---------------------------------------------------------------------------*/
FoamFile
{
    version     2.0;
    format      ascii;
    class       surfaceScalarField;
    location    "1";
    object      phi;
}
// * * * * * * * * * * * * * * * * * * * * * * * * * * * * * * * * * * * * * //

dimensions      [0 3 -1 0 0 0 0];

internalField   nonuniform List<scalar> 
29271
(
-1.05921e-05
-2.02325e-06
5.8875e-06
6.8243e-06
-1.33156e-05
1.24064e-06
2.21065e-06
1.02785e-05
-3.41887e-05
-4.57626e-06
-4.42148e-06
6.34128e-06
7.91936e-06
2.89258e-05
-6.03226e-05
-1.14141e-05
-8.10837e-06
5.47072e-06
1.25095e-05
6.18648e-05
-3.56462e-05
-5.06095e-06
4.25883e-06
1.11094e-05
2.73428e-05
-2.00377e-06
-3.70339e-05
-6.25961e-06
-7.65228e-06
8.23061e-06
7.83914e-06
3.4876e-05
-4.73797e-05
-8.82919e-06
-1.01201e-05
1.12102e-05
1.68837e-05
3.82352e-05
-5.62341e-05
-9.97217e-06
-8.51703e-06
5.9732e-06
1.4228e-05
5.45221e-05
-7.89173e-05
-2.35852e-05
-1.08016e-06
-7.22661e-06
2.18818e-05
8.89275e-05
-3.36635e-05
1.4053e-06
-6.87727e-06
2.67194e-05
1.2347e-05
-6.8352e-06
-1.5497e-06
4.06259e-06
4.49407e-06
-4.97091e-05
-8.93974e-06
-9.74646e-06
2.63016e-05
8.2248e-06
3.3869e-05
-7.62888e-05
-3.32402e-05
-4.47811e-05
2.95471e-05
3.9181e-05
8.5582e-05
-7.41535e-05
-2.65417e-05
-1.71724e-05
4.64597e-06
1.7381e-05
9.58406e-05
-7.1416e-05
-1.20286e-05
7.96518e-06
-1.1513e-05
-5.1513e-06
9.21437e-05
-4.89013e-05
1.4746e-06
-4.15617e-06
5.0688e-07
3.25713e-05
1.85047e-05
-4.42578e-05
-5.3565e-06
9.40482e-06
-2.84818e-06
4.57343e-05
-2.67668e-06
-7.11988e-05
-5.48547e-06
-1.32206e-05
5.59713e-06
-1.53711e-05
9.96788e-05
-5.99561e-05
3.95897e-06
4.12341e-06
-1.39609e-05
-2.28261e-05
8.86607e-05
-4.50915e-05
-3.82648e-06
-3.41019e-06
2.42707e-05
1.57416e-05
1.23159e-05
-1.26765e-05
-3.08196e-06
-9.24963e-07
1.66197e-05
-3.6776e-05
3.14688e-06
-5.04966e-06
2.32321e-05
1.56306e-05
-5.16087e-05
-1.36617e-06
4.47412e-07
-6.55624e-06
4.73427e-05
1.17409e-05
-1.65163e-05
-1.30014e-06
5.63627e-06
1.23415e-05
-3.57038e-06
1.77341e-06
-2.63243e-06
4.28571e-06
-4.92989e-06
3.11265e-06
1.74694e-06
3.27778e-07
4.2557e-07
-2.34315e-06
-2.93661e-05
-9.15551e-06
-5.42178e-07
4.09813e-05
4.08879e-06
-6.63391e-05
2.13315e-05
-1.52664e-05
-1.24956e-05
6.86808e-05
-2.73214e-05
5.53011e-06
-9.47391e-06
-7.41189e-06
3.04532e-05
8.22385e-06
-3.60022e-06
-1.02344e-05
-4.19644e-05
6.4087e-06
-3.3642e-07
4.97267e-05
-3.58316e-05
-3.53079e-05
0.000247471
-3.95474e-05
-5.51298e-05
-5.06571e-05
-6.16613e-05
2.55148e-06
7.05042e-06
7.55179e-06
8.25419e-06
-2.31778e-07
-4.23628e-07
4.08596e-06
1.82578e-06
-2.76427e-05
9.32217e-06
0.000172707
-5.02967e-05
-5.68844e-05
-4.38305e-05
-6.85686e-05
1.2543e-05
5.03266e-06
9.13664e-06
2.64948e-06
-1.46707e-06
2.71771e-05
0.000199543
5.18307e-06
3.3164e-06
1.06921e-05
2.20794e-06
-7.7022e-07
-1.02264e-07
2.27599e-07
-7.42877e-05
-5.25516e-05
-8.58447e-05
-6.09659e-05
-1.85644e-05
4.87512e-07
1.51154e-06
1.51168e-05
-1.59679e-06
-6.90073e-07
2.8905e-06
-5.30763e-07
-1.39338e-06
-3.68825e-05
8.3836e-08
-5.83841e-06
-1.0378e-05
5.44085e-05
7.75097e-06
-1.38468e-05
0.000299024
-6.50719e-05
-6.12099e-05
-9.55776e-05
-0.000135094
-3.03328e-07
9.04757e-06
6.72261e-06
1.325e-05
-4.48264e-06
-1.30706e-05
0.000546677
-9.37212e-05
-0.000131253
-0.000145323
-0.000141753
-3.98781e-07
3.12983e-06
0.00028343
1.43963e-06
1.00152e-06
5.83007e-06
4.91686e-06
6.67056e-06
1.02241e-05
-0.00010846
-7.74376e-05
-6.3079e-05
-4.4572e-05
-1.40211e-05
-2.68298e-06
-6.11071e-07
7.53563e-06
9.38077e-06
-6.37676e-05
1.62637e-05
-2.64417e-05
-9.57461e-06
6.35044e-05
2.00159e-05
2.98154e-06
-4.88579e-06
0.000316368
9.03998e-06
1.18125e-06
1.47306e-05
1.74953e-06
-7.47869e-06
-2.83408e-06
-4.44026e-06
-0.000113705
-0.000135417
-5.32685e-05
-3.78681e-05
8.85146e-08
-1.12597e-05
0.000276737
6.81861e-07
5.06722e-06
1.78323e-06
-1.53539e-05
-6.66603e-06
-6.79464e-06
-0.000116656
-4.43139e-05
-4.01693e-05
-5.32334e-05
-1.51822e-05
3.24891e-06
-4.02975e-06
1.91814e-05
-3.34869e-05
-9.77087e-06
-9.91784e-06
5.29778e-05
-1.25865e-05
7.68213e-07
-1.42419e-06
8.31659e-06
-3.2935e-05
-8.83756e-07
3.88211e-06
-1.09555e-06
1.97725e-05
-7.367e-06
4.61303e-06
-2.33533e-06
5.09269e-06
-1.09113e-05
1.31815e-06
-7.49105e-06
1.70724e-05
3.48915e-07
3.23838e-07
-5.79774e-06
4.98038e-06
1.39577e-05
8.27265e-06
-5.41613e-05
-1.00564e-05
-1.69969e-05
5.89842e-05
1.16743e-05
-5.45649e-05
5.15921e-06
-2.7209e-06
-4.84371e-06
4.5296e-05
-4.04791e-05
4.87132e-06
-1.88488e-06
-1.37858e-06
3.71601e-05
1.71121e-06
2.64202e-06
-2.91786e-06
-5.58077e-05
6.32627e-06
-9.74964e-06
5.95069e-05
-3.51866e-06
-2.66431e-05
0.000251412
6.38336e-06
2.92731e-06
8.80464e-06
4.71086e-06
2.22657e-06
-1.72699e-06
2.79333e-06
1.01444e-07
-1.58889e-05
-1.70278e-05
0.000194385
3.2416e-07
1.62179e-07
2.94522e-06
4.28905e-06
-2.85302e-06
1.26915e-05
0.000176771
8.37232e-07
-9.7558e-07
3.46473e-06
-5.82629e-07
-1.78177e-06
-2.32349e-06
-1.59467e-06
-1.32085e-05
-3.88887e-07
1.93272e-06
8.78842e-06
8.88805e-07
2.71925e-06
-3.13847e-06
-4.99731e-07
9.89755e-07
-6.814e-05
2.16217e-05
-2.49224e-06
-2.71462e-05
7.5167e-05
1.59853e-05
-5.11849e-05
0.000300646
1.25677e-06
7.27727e-07
4.25351e-06
6.97072e-07
1.86399e-05
-3.24169e-05
0.000559412
8.22501e-07
-2.44837e-06
0.000297208
3.91098e-06
5.15934e-07
5.91802e-06
4.28587e-06
-6.79311e-08
4.61564e-06
-9.39078e-06
-2.80029e-06
-3.7387e-06
6.62047e-06
1.01318e-05
-6.25076e-05
1.75977e-05
-2.54222e-05
2.39812e-06
5.2657e-05
1.5277e-05
3.37141e-05
-7.92609e-07
0.000218535
6.303e-06
3.81332e-06
2.78576e-06
3.94847e-06
-1.64443e-06
-3.42647e-07
-1.1368e-06
1.47455e-05
-3.80657e-06
0.000234507
6.076e-06
2.74197e-05
6.90881e-06
-2.88336e-06
-2.65558e-06
-2.27727e-06
-2.99934e-05
5.20512e-06
-5.38454e-06
4.24699e-05
-6.55692e-05
-6.62412e-06
3.35224e-06
6.88263e-05
-5.70464e-06
4.46667e-07
-5.4704e-07
5.01578e-06
-1.28534e-05
-5.85894e-07
1.41174e-06
-3.62549e-07
8.58352e-06
-3.91294e-06
2.24216e-06
-1.39135e-06
2.64532e-06
-1.76697e-05
-2.95682e-06
1.43139e-06
1.91928e-05
-1.38504e-05
2.15826e-06
-1.0695e-05
2.237e-05
8.45293e-06
-1.04168e-06
-5.95151e-05
2.14841e-06
-8.88575e-06
5.88412e-05
8.26947e-07
-4.99019e-05
-8.5855e-07
-2.48976e-06
-2.34553e-06
5.47688e-05
-2.81165e-05
2.42971e-06
2.78495e-07
-2.23222e-06
2.59044e-05
1.7362e-06
1.13006e-05
3.07308e-06
-6.27705e-05
2.71291e-06
-1.41747e-05
5.98587e-05
3.62098e-05
-3.8625e-05
0.000234573
8.46521e-06
8.40616e-06
8.38004e-06
1.02436e-05
-3.04325e-06
-5.28503e-06
-3.93383e-06
-3.97895e-06
1.19351e-05
-4.00632e-05
0.000250517
2.35797e-06
3.26689e-06
-1.5249e-07
2.73365e-06
-1.37018e-06
-4.55326e-06
0.000198075
1.07177e-06
1.90951e-07
7.51315e-07
-9.92907e-07
-1.50275e-06
-1.17104e-06
-1.79266e-06
-4.94018e-06
-1.87299e-07
1.16997e-06
2.59176e-06
-2.03256e-08
1.02993e-06
-2.97441e-06
1.93226e-06
-3.57405e-06
-7.88765e-05
2.02901e-05
4.89911e-06
-1.45805e-05
7.18419e-05
1.66677e-05
-3.85998e-05
0.00029669
-3.67258e-06
-4.6289e-06
-1.68264e-06
-2.75325e-06
3.07495e-05
-3.29834e-05
0.00053825
-1.78457e-07
-5.53601e-06
0.000320881
3.28349e-06
1.19744e-06
3.19428e-06
1.92287e-06
-2.72126e-06
1.36134e-06
-1.15318e-05
-1.12473e-06
-1.00333e-06
1.07716e-06
1.24043e-05
-3.52352e-05
2.63302e-06
-3.77648e-06
2.54535e-06
3.21832e-05
1.65012e-06
3.67958e-05
1.87711e-06
0.000112155
3.85536e-06
3.65015e-06
7.75625e-06
6.65778e-06
1.29588e-06
3.7854e-06
2.10734e-06
2.21471e-05
-9.41573e-07
0.000173267
8.93233e-06
2.52021e-05
1.17908e-05
-7.93511e-07
-5.5915e-07
-7.26123e-07
-5.95144e-05
1.19046e-05
-2.23972e-06
6.64606e-05
-7.29515e-05
-9.47041e-07
-1.31094e-06
7.52105e-05
-4.05167e-06
2.04461e-06
-8.87527e-07
4.5747e-06
-5.42679e-06
-6.22912e-07
1.35442e-06
-2.92447e-07
4.04615e-06
-1.55134e-06
2.01175e-06
-1.23987e-06
7.34568e-07
-2.10176e-05
-2.93941e-06
2.58078e-06
2.13854e-05
-2.7716e-05
4.5423e-06
-7.75076e-06
3.09261e-05
5.04893e-06
-3.58231e-06
-5.99841e-05
3.34233e-06
-6.04877e-06
6.12239e-05
-5.20973e-07
-5.52029e-05
-3.24746e-06
2.18286e-06
1.55632e-06
5.52321e-05
-2.4619e-05
-1.00075e-06
5.16939e-06
1.83752e-07
2.52322e-05
-4.96557e-06
9.75936e-06
4.49571e-06
-5.18226e-05
2.86829e-06
-8.37809e-06
4.30773e-05
2.66979e-05
-4.32233e-05
0.000242272
7.06225e-06
7.22959e-06
6.31767e-06
8.38089e-06
-4.91811e-06
-5.63556e-06
-4.71294e-06
-4.89689e-06
2.18441e-05
-4.25289e-05
0.000287972
-6.73473e-07
2.3974e-06
2.83088e-06
5.3724e-06
2.32817e-06
-2.73249e-05
0.000228537
5.40132e-07
1.06479e-06
2.25706e-06
3.18299e-06
-5.87799e-09
6.16537e-06
3.17455e-06
-1.22399e-06
-2.75252e-06
8.23664e-07
5.48723e-06
-6.69526e-06
9.42682e-08
-4.19103e-06
1.07826e-05
2.85712e-06
-5.9483e-05
7.73452e-06
2.541e-06
-2.03568e-06
4.8386e-05
1.51659e-05
-1.42628e-05
0.000254366
-2.16537e-06
-1.54319e-06
1.37656e-07
1.76923e-06
3.74422e-05
-2.07471e-05
0.000494192
3.46e-06
-8.66051e-06
0.000331654
5.23013e-06
6.43151e-06
7.12e-06
-4.17455e-06
-5.8008e-06
-4.26149e-06
-1.63987e-05
2.86742e-06
1.71197e-06
-9.01044e-06
2.42897e-05
-4.24594e-05
-4.15089e-06
1.06109e-06
-1.82245e-06
4.64472e-05
9.24457e-07
5.47631e-06
3.30814e-06
7.69048e-05
1.04511e-06
-3.2075e-07
5.65078e-07
6.74134e-08
2.84197e-06
3.95088e-06
4.05286e-06
1.59904e-05
1.07751e-06
0.000118595
3.33012e-06
1.37438e-05
-3.61366e-06
4.69036e-07
6.02009e-06
2.3843e-06
-7.67078e-05
9.90381e-06
-7.20501e-07
7.48544e-05
-7.58955e-05
9.74937e-06
-5.26833e-06
7.14145e-05
-8.56597e-06
-3.10286e-06
2.58045e-06
1.23219e-05
-2.90781e-06
-3.38928e-07
5.02871e-07
2.21413e-07
3.59996e-06
-4.20805e-07
-8.92831e-07
-6.75052e-07
1.96978e-06
-2.13362e-05
-2.76485e-06
2.62909e-06
2.14737e-05
-3.21265e-05
3.09527e-06
-3.49441e-06
3.25256e-05
2.98732e-06
-3.46138e-06
-6.22998e-05
3.24612e-06
-3.31173e-06
6.28395e-05
-1.56265e-06
-5.6285e-05
-3.55557e-06
4.62282e-06
1.64216e-07
5.66162e-05
-2.74931e-05
-1.46226e-06
4.95991e-06
-2.41026e-07
3.08355e-05
-6.59902e-06
5.0972e-06
3.25282e-06
-3.81173e-05
2.01922e-07
-5.64467e-06
3.521e-05
2.39533e-05
-2.23336e-05
0.000233219
5.35178e-06
5.74113e-06
5.5619e-06
6.51902e-06
-4.18828e-06
-6.29263e-06
-2.10334e-06
-3.15687e-06
2.65639e-05
-3.81418e-05
0.000303165
2.78519e-06
4.6e-06
6.01519e-06
6.93818e-06
6.2387e-06
-3.55268e-05
0.000251433
2.75273e-06
3.95168e-06
4.67516e-06
4.13967e-06
3.86067e-06
7.44344e-06
6.1332e-06
-1.36707e-05
-3.66463e-06
4.46206e-06
-4.81061e-06
2.39226e-05
-9.01742e-08
-7.33954e-09
2.14166e-08
6.96932e-08
-1.22995e-05
-7.22277e-07
3.16161e-07
1.27061e-05
2.23417e-06
-4.17831e-05
1.88618e-06
-1.81926e-06
1.59347e-06
3.78885e-05
9.80443e-06
8.79947e-06
0.000205864
-3.11844e-08
1.5277e-06
2.06431e-06
4.00335e-06
3.19188e-05
-4.58824e-06
0.000438524
6.54406e-06
-7.61619e-06
0.000322689
6.12348e-06
7.45132e-06
4.37196e-06
-3.06636e-06
-4.24739e-06
-4.20364e-06
-3.44409e-05
8.8845e-06
5.14719e-06
-9.00094e-06
3.59543e-05
-1.76031e-10
-1.16979e-07
-7.13023e-09
-9.95364e-09
1.29019e-07
-4.68565e-05
-1.23619e-06
1.65128e-06
2.57456e-06
4.64509e-05
-2.58404e-06
-1.54719e-06
3.32178e-06
9.11255e-05
-2.11295e-06
-1.56349e-06
-3.62024e-06
-4.10635e-06
3.48726e-06
4.87401e-08
6.7115e-07
1.42491e-06
3.70064e-06
0.000102388
-5.17496e-06
1.85931e-06
-1.24934e-06
2.69969e-06
3.8319e-06
2.9788e-06
-7.80334e-05
7.48095e-07
-1.35304e-06
7.2447e-05
-6.62019e-05
1.23371e-05
-2.13099e-06
5.60381e-05
-1.47261e-05
-2.49973e-06
3.46951e-06
1.7079e-05
-8.3969e-06
-6.29554e-07
-2.34929e-06
1.44167e-06
1.36347e-05
-5.96535e-06
-6.53302e-06
3.20176e-06
9.25897e-06
-2.166e-05
-2.04399e-06
2.13895e-06
2.15612e-05
-3.30837e-05
8.51288e-07
-1.55741e-06
3.37898e-05
1.85137e-06
-2.12691e-06
-6.39938e-05
2.06953e-06
-2.42485e-06
6.46247e-05
-1.85982e-06
-5.80049e-05
-2.64681e-06
4.16708e-06
1.22448e-08
5.83322e-05
-3.44605e-05
-1.04776e-06
4.0437e-06
-6.6173e-07
3.73914e-05
-5.26507e-06
2.6608e-06
3.1161e-06
-3.40299e-05
-9.26064e-07
-2.80767e-06
3.19868e-05
1.45358e-05
-1.33773e-05
0.000221317
3.3801e-06
3.34429e-06
3.37813e-06
4.33883e-06
-1.00099e-06
-1.59142e-06
-7.23069e-07
-3.82128e-07
2.16776e-05
-2.90934e-05
0.000306409
3.26901e-06
4.4064e-06
5.10826e-06
5.92314e-06
6.37133e-06
-3.33566e-05
0.000264009
3.56203e-06
4.34338e-06
5.3511e-06
5.02967e-06
4.71757e-06
7.31004e-06
5.77242e-06
-3.44948e-05
2.54903e-06
1.02187e-05
-3.40231e-06
3.15007e-05
-1.53312e-07
-4.38963e-06
-7.59467e-07
-4.96525e-06
6.4731e-06
3.79457e-06
-1.28577e-05
-8.16428e-07
9.6354e-07
1.27106e-05
1.51868e-06
-3.52903e-05
3.09853e-08
-1.74614e-06
2.81818e-06
3.26686e-05
2.54468e-06
8.62272e-06
0.00017087
1.47642e-06
2.78553e-06
2.594e-06
3.59301e-06
2.63002e-05
5.92962e-06
0.000379746
6.19511e-06
-4.3953e-06
0.000302761
4.43307e-06
5.93296e-06
4.58601e-06
-1.88122e-06
-1.07059e-06
-9.28281e-07
-4.02905e-05
7.41978e-06
2.88975e-06
-5.92523e-06
4.21013e-05
-1.13156e-06
-5.65278e-06
-3.28834e-07
-2.73155e-06
3.93036e-06
5.91438e-06
-4.61241e-05
-2.88481e-06
3.79199e-06
3.77139e-06
4.56941e-05
-4.24853e-06
7.98108e-06
7.74825e-07
9.93068e-05
-3.87265e-06
-3.9088e-06
-2.5684e-06
-3.3989e-06
1.08687e-06
2.08281e-06
2.26462e-06
8.96144e-07
3.56866e-06
0.000105023
-9.1179e-09
1.37969e-06
-9.08119e-07
3.22535e-06
1.83029e-06
1.29263e-06
-6.75464e-05
2.26207e-06
9.07506e-07
6.08776e-05
-4.54439e-05
-6.74501e-06
-1.86927e-06
5.67891e-06
4.83773e-05
-2.3983e-06
1.86039e-06
-1.11117e-06
1.64908e-06
-1.74682e-05
-3.51313e-06
3.33628e-06
1.842e-05
-1.85813e-05
-1.62988e-06
-6.31163e-07
1.51367e-06
2.28973e-05
-1.0702e-05
-1.10229e-06
7.98524e-07
1.1002e-05
-2.13734e-05
-1.3398e-06
1.48627e-06
2.12212e-05
-3.42262e-05
-8.06063e-07
6.73431e-07
3.43589e-05
6.39066e-07
-3.5657e-07
-6.54357e-05
4.65915e-07
-1.54853e-06
6.62358e-05
-1.77941e-06
-5.89408e-05
-1.42826e-06
3.01606e-06
1.84884e-07
5.89475e-05
-4.05874e-05
-3.59581e-07
2.0017e-06
-9.93642e-07
4.35057e-05
-3.56677e-06
-2.17319e-07
7.02547e-07
-3.07177e-05
9.44147e-07
-3.87143e-07
2.96755e-05
8.95903e-06
-6.6964e-06
0.000216853
1.93024e-06
1.27067e-06
1.6571e-06
2.12973e-06
-1.10657e-06
-1.39342e-06
-1.4904e-06
-7.95444e-07
1.45488e-05
-1.83931e-05
0.000305533
2.24247e-06
2.95382e-06
3.99798e-06
4.48506e-06
4.85561e-06
-2.37213e-05
0.000269565
2.87942e-06
3.46311e-06
4.49356e-06
3.97261e-06
4.23716e-06
4.25128e-06
4.5611e-06
-3.59173e-05
1.39922e-07
5.15991e-06
-3.22754e-06
3.87006e-05
-5.21312e-06
-1.69215e-06
-3.27212e-06
3.36211e-07
6.55733e-06
3.28385e-06
-1.23845e-05
-7.86244e-07
1.12305e-06
1.20477e-05
-1.84274e-07
-3.08151e-05
9.11666e-08
1.7975e-09
1.74186e-06
2.91645e-05
3.0715e-06
6.753e-06
0.000151065
8.15199e-07
1.65009e-06
-2.19748e-07
1.03848e-06
1.7837e-05
3.65162e-06
0.000342935
5.0523e-06
-2.94987e-06
0.000287877
4.20856e-06
3.94812e-06
1.80876e-06
-8.87692e-07
-1.22014e-06
-9.61178e-07
-4.38897e-05
6.72098e-06
2.527e-06
-5.93571e-06
4.56297e-05
-8.37994e-06
-5.69665e-06
-1.48763e-06
1.31662e-06
3.87166e-06
1.03759e-05
-4.50688e-05
-2.86979e-06
3.44243e-06
3.92807e-06
4.38944e-05
-3.32631e-06
9.87548e-06
1.37681e-06
0.000104146
-3.49538e-06
-3.75733e-06
-2.94178e-06
-3.65943e-06
1.30997e-06
1.60189e-06
1.60408e-06
4.44862e-08
1.77685e-06
0.000112869
-6.79821e-07
8.82262e-07
-7.42874e-07
1.25759e-06
1.90666e-06
1.23627e-06
-5.98037e-05
-1.41986e-06
6.55443e-07
5.76627e-05
-4.37554e-05
2.82533e-06
3.53174e-06
2.7437e-07
3.71154e-05
-3.6441e-06
-1.63882e-06
-2.00371e-06
2.36928e-06
4.9184e-06
-2.00403e-05
-3.33795e-06
3.67562e-06
2.10796e-05
-2.5463e-05
-2.30529e-06
1.7386e-06
2.14966e-08
2.7785e-05
-1.1517e-05
-2.12698e-08
-9.24713e-07
1.2463e-05
-2.10793e-05
-8.15258e-07
9.72287e-07
2.09182e-05
-3.42676e-05
-1.93157e-06
2.07566e-06
3.41235e-05
-1.32631e-07
8.74449e-07
-6.68112e-05
-3.53613e-07
-6.43625e-07
6.70666e-05
-1.78234e-06
-5.91747e-05
-4.36822e-07
2.04022e-06
5.56616e-07
5.8797e-05
-4.71092e-05
-2.37647e-08
4.43293e-07
-1.29242e-06
5.00799e-05
-2.0978e-06
-1.33085e-06
-8.5544e-08
-2.87272e-05
1.64375e-06
4.33415e-07
2.80665e-05
6.76585e-06
-3.33549e-06
0.000217913
7.84909e-07
8.75282e-08
7.73984e-07
1.15516e-06
-1.90755e-06
-2.07681e-06
-1.81481e-06
-1.49275e-06
6.82852e-06
-1.3287e-05
0.000310439
1.04009e-06
1.29848e-06
2.79008e-06
3.19001e-06
2.29346e-06
-2.08093e-05
0.000282227
2.7861e-06
3.85039e-06
4.27074e-06
2.76954e-06
2.15436e-06
-2.68129e-06
-4.67131e-07
-5.09051e-05
4.67148e-06
3.71174e-06
-3.69239e-06
4.85077e-05
1.16557e-06
-1.3709e-06
7.35096e-07
8.50107e-08
-6.14781e-07
-1.17078e-05
-8.48095e-07
1.26306e-06
1.12928e-05
-1.40374e-06
-2.69755e-05
-7.46466e-07
2.45499e-06
1.70927e-06
2.49614e-05
1.07914e-05
5.61885e-06
0.000136875
-2.09985e-06
-1.04518e-06
-1.71057e-06
-6.99475e-07
8.08574e-06
-9.34828e-07
0.000333289
1.16278e-06
-3.15177e-06
0.000291097
-1.3306e-07
-2.43088e-06
-6.65053e-06
-5.06976e-07
-1.8392e-06
-2.39396e-06
-4.79971e-05
5.09942e-06
-7.94252e-07
-2.29572e-06
4.71504e-05
-1.13486e-05
-3.45795e-06
4.50908e-07
3.4609e-06
1.94274e-06
8.95204e-06
-4.24884e-05
-2.97854e-06
3.61781e-06
3.90983e-06
4.07915e-05
-2.85219e-06
1.0235e-05
1.08614e-06
0.000111
-4.03893e-06
-4.05728e-06
-3.40626e-06
-3.95122e-06
8.65622e-07
1.13275e-06
8.98099e-07
-6.77361e-07
1.2385e-06
0.000117821
-5.3339e-07
7.86626e-07
-1.11975e-07
9.39459e-07
1.34407e-06
1.36269e-06
-5.90336e-05
-2.15705e-06
-4.12875e-07
5.77744e-05
-3.02457e-05
-6.64757e-06
4.48574e-06
3.24077e-05
-2.22116e-05
-3.05054e-06
3.60655e-06
2.27417e-05
-3.0095e-05
-2.3475e-06
2.27732e-06
-3.06997e-07
3.17107e-05
-1.32289e-05
1.10607e-06
-1.7526e-06
1.38762e-05
-2.07412e-05
-3.59621e-07
6.7111e-07
2.04297e-05
-3.39963e-05
-2.71614e-06
2.89458e-06
3.38178e-05
-9.80913e-07
1.68204e-06
-6.72753e-05
-7.58738e-07
1.01696e-07
6.72312e-05
-1.58545e-06
-5.85978e-05
1.1284e-07
1.1458e-06
1.12836e-06
5.77962e-05
-5.29343e-05
7.68631e-07
-3.55812e-07
-1.79045e-06
5.5189e-05
-8.77042e-07
-2.16458e-06
-7.04095e-07
-2.76735e-05
1.78989e-06
9.95873e-07
2.77565e-05
5.31954e-06
8.3254e-08
0.000219313
2.47709e-07
-7.87551e-07
4.28994e-07
5.32787e-07
-1.74473e-06
-2.51581e-06
-1.53733e-06
-1.42701e-06
4.13662e-06
-1.20101e-05
0.000318388
1.83679e-07
2.29878e-07
2.18819e-06
2.64203e-06
-5.01997e-06
-1.98311e-05
0.000305561
2.78928e-06
2.28764e-06
5.24186e-06
3.51505e-06
-3.28923e-06
-2.63831e-06
-2.25255e-06
-4.74509e-05
-2.5324e-06
-2.01299e-06
4.69763e-05
-1.08455e-05
-9.51347e-07
1.29846e-06
1.04984e-05
-1.79634e-06
-2.33536e-05
-1.43686e-06
2.93833e-06
1.84435e-06
2.18042e-05
1.32694e-05
6.97049e-06
0.000126246
-2.93397e-06
-2.22973e-06
-2.66769e-06
-1.69664e-06
7.39487e-06
-4.0946e-06
0.000331248
-5.58424e-06
-3.59655e-06
0.000311171
-8.19297e-06
-4.70074e-06
-4.89427e-06
-2.58529e-06
-1.33734e-06
-1.61809e-06
-6.24028e-05
1.15464e-06
-1.08432e-05
4.3993e-06
6.21078e-05
-3.91543e-05
-2.82358e-06
3.45553e-06
3.52227e-06
3.75227e-05
-2.52256e-06
1.22534e-05
1.22157e-06
0.000116629
-4.12836e-06
-4.01352e-06
-3.18659e-06
-3.71672e-06
6.95229e-07
1.35703e-06
8.59681e-07
-3.37275e-07
3.51597e-07
0.000121281
2.87559e-07
1.44688e-06
9.17898e-07
9.35113e-07
2.30067e-07
8.66795e-07
-5.90418e-05
-1.49902e-06
-6.7528e-07
5.72823e-05
-3.14426e-05
1.186e-06
4.38114e-06
2.58754e-05
-2.32384e-05
-2.84757e-06
3.51558e-06
2.37919e-05
-3.3741e-05
-2.55966e-06
2.27681e-06
-8.63609e-07
3.5239e-05
-1.43918e-05
1.36086e-06
-1.93573e-06
1.49661e-05
-2.00422e-05
-1.26272e-07
5.35975e-07
1.96325e-05
-3.35772e-05
-3.58833e-06
3.78123e-06
3.33843e-05
-1.53808e-06
2.53935e-06
-6.72205e-05
-1.32916e-06
5.75742e-07
6.69727e-05
-1.45936e-06
-5.73175e-05
2.56094e-07
6.81551e-07
1.41395e-06
5.64253e-05
-5.74489e-05
9.23421e-07
-5.40639e-07
-2.26903e-06
5.93227e-05
1.23837e-08
-2.87482e-06
-1.56603e-06
-2.87193e-05
1.89016e-06
8.61287e-07
3.04087e-05
5.14875e-06
1.86885e-06
0.000220205
3.43607e-08
-1.21455e-06
1.68773e-07
1.26383e-07
-1.61155e-06
-2.45657e-06
-1.38156e-06
-1.57533e-06
7.28851e-06
-1.24156e-05
0.000323401
-4.30134e-08
3.50429e-07
2.12738e-06
2.82831e-06
-9.66261e-07
-2.03869e-05
0.000313902
3.53922e-06
3.30192e-06
5.76467e-06
3.70808e-06
1.23838e-06
-2.56679e-07
3.00522e-06
-4.65006e-05
-1.0433e-06
3.61694e-07
4.6216e-05
-1.00056e-05
-1.76974e-07
1.59851e-06
8.58404e-06
-3.74428e-06
-2.01885e-05
-6.58363e-07
4.58105e-06
1.62476e-06
1.83853e-05
1.36318e-05
8.90745e-06
0.000118999
-4.04731e-06
-3.20899e-06
-3.51777e-06
-2.64874e-06
1.11548e-05
-3.27224e-06
0.000324582
-1.21288e-06
-3.46989e-06
0.000316594
-3.12787e-06
1.46444e-07
-1.89197e-06
-2.14434e-06
-1.03771e-06
-1.91757e-06
-5.87495e-05
2.35276e-07
-3.47189e-06
3.12658e-06
5.76467e-05
-3.61244e-05
-2.6491e-06
3.09212e-06
3.17242e-06
3.47218e-05
-2.21285e-06
1.41336e-05
1.34496e-06
0.000121129
-3.95559e-06
-3.77531e-06
-3.20454e-06
-3.53655e-06
7.95874e-07
1.5073e-06
1.09778e-06
5.34872e-07
-2.38696e-07
0.000125576
1.28745e-06
2.76713e-06
1.75467e-06
3.80055e-07
-1.54433e-07
2.35068e-07
-5.7961e-05
7.79243e-07
-6.42631e-07
5.48894e-05
-2.48086e-05
-4.66257e-07
8.15136e-07
2.44597e-05
-2.43268e-05
-2.76154e-06
3.67406e-06
2.47593e-05
-3.69108e-05
-2.82856e-06
2.88691e-06
-1.51868e-06
3.81325e-05
-1.56516e-05
1.47888e-06
-2.05149e-06
1.62239e-05
-1.92669e-05
-1.53375e-07
4.54003e-07
1.89663e-05
-3.33065e-05
-4.49149e-06
4.43046e-06
3.33676e-05
-1.92869e-06
3.50776e-06
-6.66357e-05
-2.06422e-06
1.11635e-06
6.60045e-05
-1.2128e-06
-5.59201e-05
4.37669e-07
2.93461e-08
1.41904e-06
5.52468e-05
-6.13724e-05
1.05565e-06
-9.0114e-07
-2.68144e-06
6.29878e-05
9.1152e-07
-3.33132e-06
-1.02472e-06
-3.2715e-05
1.13365e-06
6.12478e-07
3.53249e-05
5.52894e-06
2.31369e-06
0.000219454
-1.52306e-07
-1.39539e-06
5.38027e-08
7.17077e-08
-1.44445e-06
-2.24009e-06
-9.63482e-07
-1.0215e-06
9.18597e-06
-1.22762e-05
0.000325656
6.15517e-08
6.37279e-07
2.38914e-06
3.27669e-06
-2.1617e-08
-2.09919e-05
0.000321252
3.87316e-06
3.30397e-06
5.9577e-06
3.6144e-06
2.76419e-06
9.25534e-08
3.24328e-06
-4.6183e-05
-1.45287e-06
1.29659e-06
4.63177e-05
-6.16114e-06
5.27418e-07
1.53496e-06
4.09877e-06
-3.75443e-06
-1.6915e-05
4.88455e-07
4.24031e-06
3.73878e-07
1.55668e-05
1.40777e-05
8.69918e-06
0.00011269
-4.05878e-06
-3.81704e-06
-2.9697e-06
-3.30911e-06
1.42633e-05
-2.34068e-06
0.00031446
3.41696e-07
-3.03619e-06
0.000320176
-1.70136e-06
9.35632e-07
-1.11745e-06
-2.53905e-06
-8.48567e-07
-2.34496e-06
-5.81298e-05
-4.37524e-08
-2.25701e-06
2.17263e-06
5.85996e-05
-3.35477e-05
-2.97225e-06
3.23212e-06
2.89411e-06
3.19708e-05
-1.57702e-06
1.48472e-05
1.40019e-06
0.000124541
-4.02138e-06
-3.67467e-06
-3.31299e-06
-3.48567e-06
9.05684e-07
1.51961e-06
1.10944e-06
1.64084e-06
-5.27235e-07
0.00013003
1.82256e-06
3.5418e-06
2.11562e-06
-4.23701e-08
-3.87875e-07
-1.10503e-07
-5.50153e-05
2.24408e-06
-5.58466e-07
5.19344e-05
-2.4537e-05
2.0938e-07
-6.01571e-07
2.49292e-05
-2.52171e-05
-2.72866e-06
3.79762e-06
2.55483e-05
-3.9434e-05
-2.92427e-06
3.22435e-06
-1.81574e-06
4.04224e-05
-1.6808e-05
1.61393e-06
-2.13709e-06
1.73312e-05
-1.86785e-05
-2.27781e-07
5.93977e-07
1.83123e-05
-3.34802e-05
-5.27003e-06
5.24087e-06
3.35093e-05
-2.38913e-06
4.34601e-06
-6.52126e-05
-2.64262e-06
1.7517e-06
6.41466e-05
-8.82788e-07
-5.50265e-05
9.17728e-07
-7.85234e-07
1.00876e-06
5.47681e-05
-6.47019e-05
1.16003e-06
-1.12272e-06
-2.95615e-06
6.5898e-05
1.72278e-06
-4.17223e-06
1.59579e-06
-3.76569e-05
-8.09274e-07
1.93874e-06
3.91039e-05
5.42813e-06
1.30134e-06
0.000217021
-3.23688e-07
-1.39021e-06
-2.06749e-07
2.32434e-07
-8.53895e-07
-1.35064e-06
-2.06696e-07
-1.96319e-07
8.93295e-06
-1.18515e-05
0.000326139
3.43683e-07
1.02494e-06
2.79407e-06
3.70083e-06
1.39608e-08
-2.05252e-05
0.000327956
3.95585e-06
3.18171e-06
5.9855e-06
3.46878e-06
2.81898e-06
1.1301e-07
3.21644e-06
-4.65554e-05
-1.41267e-06
1.23418e-06
4.67479e-05
-3.02859e-06
-3.48101e-07
7.49e-07
2.6277e-06
-2.25745e-06
-1.48818e-05
-2.75504e-07
3.10024e-06
-2.41242e-07
1.45558e-05
1.4551e-05
6.05925e-06
0.000107673
-3.4599e-06
-4.37419e-06
-2.72741e-06
-3.73064e-06
1.5852e-05
-2.73334e-06
0.000304041
6.60777e-07
-2.78428e-06
0.000324425
-1.14004e-06
1.23004e-06
-6.96723e-07
-2.86858e-06
-7.15197e-07
-2.60846e-06
-5.95746e-05
-5.15898e-08
-1.78439e-06
1.71519e-06
6.03561e-05
-2.9586e-05
-2.2317e-06
3.4063e-06
2.52987e-06
2.63506e-05
-4.69011e-07
1.56242e-05
1.40091e-06
0.000125796
-4.37456e-06
-3.71425e-06
-3.953e-06
-3.54047e-06
8.06303e-07
1.4543e-06
1.10076e-06
2.27499e-06
-7.58963e-07
0.000134469
2.06119e-06
4.07741e-06
2.3668e-06
-4.49987e-07
-5.79096e-07
-5.40764e-07
-5.21779e-05
2.85475e-06
-6.21998e-07
4.94358e-05
-2.58514e-05
4.96759e-07
-1.69409e-06
2.70487e-05
-2.58119e-05
-2.75266e-06
4.08286e-06
2.58826e-05
-4.13924e-05
-2.99886e-06
3.50437e-06
-1.75952e-06
4.18875e-05
-1.79044e-05
1.66537e-06
-2.15763e-06
1.83966e-05
-1.78237e-05
-3.2019e-08
6.505e-07
1.72053e-05
-3.35869e-05
-6.24773e-06
6.0657e-06
3.37689e-05
-2.60272e-06
4.68415e-06
-6.29139e-05
-2.90932e-06
2.15132e-06
6.15905e-05
-5.08277e-07
-5.51287e-05
1.70562e-06
-1.71041e-06
2.32316e-07
5.54094e-05
-6.71702e-05
1.24937e-06
-1.35234e-06
-3.01288e-06
6.79519e-05
2.33415e-06
-4.39841e-06
3.13048e-06
-3.98776e-05
-2.20637e-06
3.20474e-06
4.01471e-05
4.11025e-06
5.54588e-07
0.000213458
-5.36629e-07
-1.09771e-06
-4.37078e-07
5.91658e-07
1.98236e-07
-6.89456e-07
7.22095e-07
1.46647e-07
7.45691e-06
-1.17166e-05
0.000325207
8.56682e-07
1.38087e-06
3.17923e-06
3.88438e-06
-5.52147e-08
-1.96411e-05
0.000333403
3.80028e-06
3.0373e-06
5.83905e-06
3.33023e-06
2.70091e-06
7.10757e-10
2.99822e-06
-4.70841e-05
-1.25466e-06
9.57023e-07
4.73265e-05
-2.55746e-06
-1.72073e-06
1.64018e-06
2.63801e-06
-2.41238e-06
-1.46199e-05
-2.30479e-06
3.17538e-06
1.54196e-06
1.46198e-05
1.43521e-05
3.75866e-06
0.000104578
-3.3934e-06
-4.48354e-06
-2.80349e-06
-3.78054e-06
1.62934e-05
-3.20112e-06
0.000293584
7.05537e-07
-2.56021e-06
0.000329178
-9.204e-07
1.26694e-06
-5.4703e-07
-2.89659e-06
-5.04108e-07
-2.64477e-06
-6.17415e-05
7.17627e-08
-1.66128e-06
1.16459e-06
6.2872e-05
-2.30041e-05
-1.93177e-06
3.52284e-06
2.38317e-06
1.99516e-05
-9.21727e-07
1.69311e-05
1.36574e-06
0.000124434
-4.93577e-06
-3.88315e-06
-4.16789e-06
-3.61343e-06
8.67378e-07
1.46954e-06
1.0875e-06
2.71852e-06
-9.49618e-07
0.000139903
2.18682e-06
4.42254e-06
2.49195e-06
-9.03279e-07
-7.15742e-07
-9.54981e-07
-4.99589e-05
3.06691e-06
-7.32331e-07
4.77826e-05
-2.79867e-05
1.23136e-06
-2.01866e-06
2.8774e-05
-2.58789e-05
-2.93619e-06
4.32377e-06
2.58571e-05
-4.26355e-05
-3.29539e-06
3.86944e-06
-1.90338e-06
4.30152e-05
-1.89372e-05
1.85804e-06
-2.23642e-06
1.93162e-05
-1.65194e-05
2.48435e-07
3.90535e-07
1.58805e-05
-3.38149e-05
-6.70181e-06
6.9218e-06
3.35949e-05
-2.52692e-06
4.54431e-06
-6.03659e-05
-3.10213e-06
2.22824e-06
5.92224e-05
-6.22727e-08
-5.60763e-05
2.46415e-06
-2.48405e-06
-4.32958e-07
5.65914e-05
-6.87312e-05
1.48125e-06
-1.53224e-06
-2.90501e-06
6.89707e-05
2.71647e-06
-5.10729e-06
2.85189e-06
-4.02919e-05
-2.23669e-06
4.30966e-06
4.04743e-05
1.53855e-06
1.29062e-06
0.00020913
-7.03211e-07
-7.71778e-07
-4.51111e-07
9.01074e-07
1.0877e-06
-2.96107e-07
1.36658e-06
3.65749e-07
5.9358e-06
-1.18329e-05
0.000322705
1.20815e-06
1.47506e-06
3.4574e-06
3.79775e-06
-2.35312e-07
-1.89927e-05
0.000338318
3.57158e-06
2.95391e-06
5.62285e-06
3.25948e-06
2.39137e-06
-2.04812e-07
2.65391e-06
-4.76937e-05
-1.02059e-06
5.57653e-07
4.79213e-05
-2.79719e-06
-2.88549e-06
2.66519e-06
3.01749e-06
-2.93863e-06
-1.47506e-05
-4.55278e-06
3.6603e-06
3.78133e-06
1.48004e-05
1.33368e-05
2.84854e-06
0.000103889
-3.36857e-06
-4.40295e-06
-2.63211e-06
-3.80225e-06
1.63881e-05
-3.86784e-06
0.000282568
7.72902e-07
-2.44647e-06
0.000334063
-7.79756e-07
1.40671e-06
-4.08639e-07
-2.91435e-06
-4.99552e-07
-2.62026e-06
-6.46055e-05
1.74654e-07
-1.64985e-06
6.74757e-07
6.61788e-05
-1.78633e-05
-2.55114e-06
3.45119e-06
2.78226e-06
1.67404e-05
-2.55948e-06
1.72586e-05
1.349e-06
0.000121341
-4.53162e-06
-3.80352e-06
-3.91496e-06
-3.55043e-06
7.798e-07
1.38551e-06
9.6876e-07
2.98773e-06
-1.07671e-06
0.000145478
2.34466e-06
4.53727e-06
2.6582e-06
-1.3799e-06
-8.07381e-07
-1.44834e-06
-4.89039e-05
3.18283e-06
-9.5397e-07
4.72163e-05
-2.96041e-05
1.55256e-06
-2.34648e-06
3.0398e-05
-2.59267e-05
-3.20223e-06
4.55641e-06
2.59215e-05
-4.35306e-05
-3.49885e-06
4.43499e-06
-2.00835e-06
4.35261e-05
-1.97975e-05
2.1646e-06
-2.56642e-06
2.01993e-05
-1.54027e-05
6.56929e-07
-3.70633e-07
1.51164e-05
-3.31641e-05
-6.62653e-06
7.19185e-06
3.25988e-05
-1.87442e-06
4.5249e-06
-5.81643e-05
-3.427e-06
1.76321e-06
5.71776e-05
4.59837e-07
-5.73261e-05
3.05201e-06
-3.00372e-06
-1.0126e-06
5.78306e-05
-6.92389e-05
1.60335e-06
-1.68256e-06
-2.71273e-06
6.91638e-05
2.86703e-06
-6.58738e-06
2.02682e-06
-4.05081e-05
-1.59566e-06
6.50523e-06
4.0159e-05
-7.13037e-07
3.54962e-06
0.000203234
-6.30517e-07
-6.3326e-07
-1.22695e-07
1.10446e-06
1.52711e-06
-2.443e-07
1.59325e-06
4.65057e-07
5.00412e-06
-1.20703e-05
0.000318967
1.42292e-06
1.39811e-06
3.6169e-06
3.65282e-06
-4.80921e-07
-1.78963e-05
0.000343206
3.30147e-06
2.84855e-06
5.39278e-06
3.13804e-06
2.01977e-06
-4.43603e-07
2.2362e-06
-4.82253e-05
-7.68791e-07
1.45159e-07
4.83681e-05
-3.32508e-06
-3.47886e-06
3.11456e-06
3.68938e-06
-2.99884e-06
-1.51009e-05
-6.64781e-06
3.74702e-06
5.48042e-06
1.55201e-05
1.22927e-05
3.08938e-06
0.000106094
-3.26615e-06
-4.43362e-06
-2.50462e-06
-3.8324e-06
1.65462e-05
-4.82767e-06
0.000271072
9.0282e-07
-2.50027e-06
0.000339413
-5.62121e-07
1.5822e-06
-1.58465e-07
-2.83722e-06
-6.06362e-07
-2.5209e-06
-6.84346e-05
2.00995e-07
-1.60442e-06
1.97632e-07
7.05432e-05
-1.64054e-05
-3.07324e-06
3.72019e-06
2.88258e-06
1.64681e-05
-3.59219e-06
1.70042e-05
1.27089e-06
0.000118677
-4.43419e-06
-3.63949e-06
-3.92486e-06
-3.44204e-06
7.15683e-07
1.29677e-06
9.06069e-07
2.9842e-06
-1.08797e-06
0.000150375
2.43785e-06
4.54556e-06
2.73736e-06
-1.74671e-06
-8.3386e-07