/*--------------------------------*- C++ -*----------------------------------*\
| =========                 |                                                 |
| \\      /  F ield         | OpenFOAM: The Open Source CFD Toolbox           |
|  \\    /   O peration     | Version:  5.x                                   |
|   \\  /    A nd           | Web:      www.OpenFOAM.org                      |
|    \\/     M anipulation  |                                                 |
\*---------------------------------------------------------------------------*/
FoamFile
{
    version     2.0;
    format      ascii;
    class       volVectorField;
    location    "1";
    object      U;
}
// * * * * * * * * * * * * * * * * * * * * * * * * * * * * * * * * * * * * * //

dimensions      [0 1 -1 0 0 0 0];

internalField   nonuniform List<vector> 
10571
(
(0.55779 0.498761 1.78191)
(0.052968 0.134351 1.19833)
(0.52686 0.555087 1.85308)
(0.879984 1.0095 2.74738)
(0.359952 0.479622 1.40204)
(0.642272 0.596692 2.41017)
(0.992458 1.01085 2.5816)
(0.78413 0.889181 2.61621)
(-0.0896928 1.84364 3.90475)
(-0.523837 -0.420559 2.00016)
(0.440049 0.409523 1.20253)
(0.962815 0.99911 2.23309)
(2.87581 3.38443 5.55867)
(0.939202 2.40306 5.17094)
(-1.08086 -0.0141037 3.36302)
(-0.841787 -0.157871 2.56789)
(0.430751 0.178865 1.68539)
(0.0768984 -0.735331 3.78124)
(-1.00689 -1.30142 3.41644)
(-0.663518 -0.611466 1.79758)
(0.0482602 0.300904 1.1221)
(-0.46327 -0.867141 1.87411)
(0.207509 -0.682576 2.78037)
(-0.359161 0.108913 2.00923)
(-0.175183 -0.122005 0.823848)
(0.171321 0.0346518 0.305202)
(-0.0328205 -0.107296 2.75495)
(-1.4659 -0.595611 4.78979)
(-0.648064 -0.497622 1.50998)
(1.02627 0.0119742 3.27928)
(-0.7044 -0.877026 4.42404)
(-0.613797 -0.0839546 1.90945)
(-0.270538 0.161296 1.94691)
(-0.160246 0.0243096 1.28693)
(0.0804251 0.197604 0.184359)
(-0.698696 -0.0513183 2.99048)
(-0.000193871 0.0805536 3.01426)
(0.115733 0.522676 4.99914)
(0.170157 0.903971 2.26238)
(-0.150483 0.521383 0.7772)
(-1.58209 -1.47229 3.20274)
(-0.110397 -0.715147 4.33014)
(0.148971 -1.00994 3.85756)
(0.22186 0.0162417 1.23486)
(1.10985 1.30196 4.98553)
(-0.145579 -0.142019 0.901391)
(0.1898 -0.541367 1.40811)
(0.350851 -0.356977 0.96787)
(-0.143914 -0.299165 2.43662)
(0.0836038 -0.342384 0.062133)
(-1.08486 -1.35847 2.38165)
(-0.334195 -0.653807 1.45602)
(-0.352144 -0.304342 1.99355)
(0.764878 -0.102976 2.50091)
(-0.120214 -0.512507 2.84669)
(-0.150875 -0.153581 2.35771)
(-0.437157 0.13776 2.48956)
(-0.177342 0.165826 1.03108)
(-0.122319 -0.485709 -0.114186)
(-0.334345 -1.95124 3.27396)
(0.0503138 -0.678036 3.86217)
(0.408701 -0.38355 6.66362)
(0.339245 0.477385 4.16085)
(-0.184878 0.49383 0.718056)
(-1.9933 -0.169909 3.22519)
(0.111963 -0.64252 3.90479)
(1.01054 -0.777646 3.16159)
(0.980362 -0.623452 2.26365)
(-0.0486293 1.07277 6.65294)
(-0.0729227 0.0212825 0.554011)
(0.162027 -0.146583 0.830018)
(0.295569 -0.18997 0.601185)
(0.552408 -0.00681214 2.80023)
(0.0762143 -0.850639 1.50148)
(0.0525125 -0.736934 2.75024)
(-0.0360039 -0.130918 2.34264)
(0.0311866 -0.0874449 1.53038)
(0.132374 -0.862741 2.99462)
(0.391457 -0.512749 2.37143)
(0.756767 -0.554528 2.87902)
(-0.402055 -0.0818138 2.70563)
(-0.00780809 0.0892336 0.359718)
(-0.135536 -0.146477 -0.0847828)
(0.645963 -1.69458 3.58696)
(0.146015 -1.19771 3.54001)
(0.506468 -0.66609 6.30294)
(0.360338 -0.0457281 3.74891)
(-0.183121 0.236047 0.635632)
(-0.207242 0.0620863 1.33787)
(-0.0323239 0.110028 1.76181)
(1.30802 -0.292176 2.95544)
(1.70126 -0.301811 2.70272)
(0.0103603 0.400843 6.9129)
(-0.141678 0.105105 0.376313)
(0.162629 -0.0476425 0.418252)
(0.244529 -0.117102 0.250836)
(0.577896 -0.00921357 3.08)
(0.156465 -0.539441 2.16893)
(0.251096 -0.41399 2.69933)
(0.169461 -0.0476151 2.35802)
(0.484465 0.0207539 0.944798)
(-0.00758588 -0.638701 2.09686)
(0.325321 -0.5537 2.80961)
(0.67583 -0.662153 2.74597)
(-0.0346153 -0.296957 2.3551)
(0.186197 0.148015 0.116443)
(-0.200457 -0.095149 1.6125)
(0.10797 -0.46705 2.38684)
(0.0364453 -0.819508 3.22562)
(0.512434 -0.769969 5.47111)
(0.455136 -0.837316 3.74583)
(-0.0139483 -0.328743 0.88826)
(0.337119 -0.154813 1.75813)
(-0.0179334 0.175829 0.972203)
(0.336619 0.107065 1.51388)
(1.3863 -0.282189 3.42609)
(0.125254 -0.405781 7.00157)
(0.309517 0.206697 0.797765)
(0.0375319 0.064287 0.192254)
(0.0885735 -0.0252169 0.085044)
(0.509791 -0.00249376 3.06953)
(0.11057 -0.181288 2.38239)
(0.223075 -0.205305 2.76108)
(0.278148 0.00581146 2.51185)
(0.477962 0.0383387 1.15789)
(-0.186491 -0.418396 1.69506)
(0.283397 -0.469327 2.37977)
(0.625704 -0.70618 3.00147)
(0.207997 -0.495642 2.58342)
(0.383536 0.149891 0.867444)
(-0.00964724 0.00592775 -0.00386251)
(0.0465118 0.105694 1.85267)
(-0.190625 0.012368 1.94033)
(-0.0902962 -0.223509 2.34552)
(0.444149 -0.529937 5.08095)
(0.498159 -0.79239 3.72815)
(0.237746 -0.909461 1.59979)
(-0.000353436 -0.000642298 -0.000322327)
(0.176682 0.0962127 1.94752)
(0.0960281 0.410383 1.31552)
(-0.134736 0.28345 1.26159)
(0.220965 -0.394645 3.38639)
(0.048446 -0.591379 4.15191)
(0.249328 0.212946 0.804415)
(-0.0489416 0.251972 0.474756)
(-0.341541 0.419643 0.695855)
(0.392452 -0.022982 3.08502)
(-0.0111626 -0.0529765 2.4421)
(0.154563 -0.124772 2.80625)
(0.229226 0.0819626 2.59568)
(0.354529 0.0714743 1.39891)
(-0.226293 -0.266803 1.46365)
(0.0853056 -0.324904 2.25838)
(0.461712 -0.63359 3.04288)
(0.265533 -0.548148 2.84933)
(0.529333 0.0777352 1.44498)
(-0.279405 0.313122 0.052528)
(0.0572008 0.160977 1.82494)
(-0.177929 0.13554 1.52807)
(-0.232668 -0.112356 1.89189)
(0.338302 -0.294128 4.15026)
(0.471525 -0.616148 3.38382)
(0.439666 -0.618981 2.00292)
(-0.0660076 0.264177 0.103244)
(0.226651 0.253015 1.7991)
(0.245647 0.387221 0.903614)
(0.00104329 0.410682 1.25264)
(0.183595 -0.134694 3.0064)
(0.163617 -0.22311 3.6447)
(-0.61375 0.0569239 0.141238)
(0.2737 -0.123084 0.888189)
(0.0494031 0.221482 0.847736)
(-0.0977876 0.00152541 1.05577)
(0.268019 -0.028703 3.03001)
(-0.0969148 0.0612509 2.52344)
(0.0418932 -0.0401806 2.90647)
(0.174396 0.0949555 2.61084)
(0.202264 0.0330346 1.60196)
(0.0087034 0.00960172 1.33715)
(0.0260701 -0.170107 2.2651)
(0.312646 -0.517545 3.16443)
(0.211526 -0.438037 2.93664)
(0.35218 -0.0416168 2.01809)
(-0.0161582 0.343108 0.195653)
(0.0368796 0.165615 1.75758)
(0.0134912 0.0491654 1.32592)
(-0.194146 -0.0604769 1.70798)
(0.282724 -0.191653 3.63452)
(0.364956 -0.463683 3.28048)
(0.286245 -0.521171 2.12426)
(0.0359234 0.307574 0.388313)
(0.236118 0.242134 1.73597)
(0.266135 0.304768 1.05033)
(0.0799344 0.338466 1.15146)
(0.0563966 -0.0181886 2.68322)
(-0.113491 -0.134496 2.34125)
(0.175967 0.0828815 0.375946)
(0.255516 -0.0229096 1.03398)
(0.119431 0.0426128 1.07431)
(0.0546248 -0.0854147 1.08803)
(0.173614 -0.0263799 3.01331)
(-0.146379 0.132015 2.5014)
(-0.016041 -0.0056534 2.93681)
(0.123243 0.111741 2.6061)
(0.110192 0.00474719 1.88949)
(0.0830396 0.0675937 1.23345)
(0.0333437 -0.0713261 2.224)
(0.236868 -0.335198 3.20279)
(0.0952758 -0.367559 3.09809)
(0.115116 -0.107837 2.19067)
(-0.00333784 -0.200213 -0.123596)
(0.0288027 0.182931 1.6531)
(0.138005 0.0927416 1.12804)
(0.0472732 -0.0312782 1.50508)
(0.274424 -0.194654 3.59513)
(0.132012 -0.413982 3.27467)
(-0.0254344 -0.380998 2.40607)
(-0.0754426 0.175718 0.438858)
(0.253067 0.235705 1.63553)
(0.284416 0.20851 1.18026)
(0.108291 0.18132 1.20161)
(0.0134452 -0.0488154 2.59721)
(-0.324536 0.0491538 2.38561)
(0.242999 0.00902783 1.13445)
(0.144845 0.0388065 1.21574)
(0.149997 -0.108701 1.26302)
(0.0844222 -0.0140368 2.94942)
(-0.174543 0.143332 2.47631)
(-0.0492444 0.0431443 2.96412)
(0.0655618 0.126095 2.56681)
(0.0402593 -0.0464908 2.12669)
(0.10934 0.0917376 1.21489)
(0.0413105 -0.0250908 2.19716)
(0.183324 -0.256738 3.21133)
(0.0994 -0.350479 3.16855)
(-0.20017 -0.054868 2.26873)
(0.0191962 0.223718 1.51933)
(0.180074 0.130472 0.995145)
(0.164853 0.0297614 1.30882)
(0.267767 -0.197334 3.44373)
(0.140395 -0.361353 3.22993)
(-0.48778 0.0412607 2.294)
(0.242218 0.211263 1.49808)
(0.309667 0.180187 1.21265)
(0.139822 0.0907054 1.25288)
(0.0383221 -0.0846524 2.54083)
(-0.183235 0.178543 2.32202)
(0.227576 0.0336572 1.18262)
(0.167648 0.00666689 1.36418)
(0.195598 -0.112294 1.33603)
(0.0491862 -0.00180627 2.84548)
(-0.234051 0.179858 2.43458)
(-0.106705 0.074301 2.94426)
(0.0716294 0.135568 2.51279)
(-0.0138968 -0.0632496 2.28238)
(0.11759 0.151532 1.28492)
(0.0544614 -0.0339463 2.17633)
(0.151619 -0.257949 3.21238)
(0.169472 -0.356008 3.25588)
(-0.131608 0.0880626 2.37452)
(0.0356117 0.094749 1.40334)
(0.330902 0.109754 0.848633)
(0.198338 0.105344 1.20442)
(0.260804 -0.189825 3.27415)
(0.191453 -0.372564 3.28856)
(-0.131641 0.0234472 2.34674)
(0.210946 0.190609 1.38264)
(0.337297 0.170678 1.24106)
(0.173366 0.0900312 1.29664)
(0.091383 -0.0795549 2.45979)
(-0.0981934 -0.0205653 2.17838)
(0.23382 0.0478936 1.23669)
(0.213018 -0.0410572 1.48095)
(0.200196 -0.105017 1.44512)
(0.0449869 0.00787805 2.73301)
(-0.294356 0.216775 2.42698)
(-0.191381 0.110184 2.91286)
(0.0623075 0.137499 2.43141)
(-0.0634911 -0.0836735 2.42211)
(0.043592 0.184229 1.48012)
(0.0704771 -0.0453592 2.17829)
(0.132721 -0.274834 3.23909)
(0.193048 -0.366815 3.35075)
(-0.0872051 0.1556 2.3296)
(0.053802 -0.0220746 0.675536)
(0.302637 0.00107043 0.700867)
(0.208124 0.129885 1.15504)
(0.27343 -0.159666 3.19034)
(0.229099 -0.388928 3.35817)
(-0.0766442 0.0417498 2.28132)
(0.214939 0.175949 1.28478)
(0.346511 0.149875 1.28863)
(0.19221 0.086611 1.34293)
(0.182255 -0.0220707 2.32999)
(-0.0526022 -0.112154 2.24062)
(0.238894 0.0637875 1.28)
(0.23513 -0.0655545 1.56361)
(0.203096 -0.0985639 1.54903)
(0.0497452 0.0229616 2.64657)
(-0.345734 0.269969 2.44273)
(-0.272211 0.171636 2.84176)
(-0.00227766 0.111786 2.40102)
(-0.113476 -0.100938 2.54535)
(-0.150238 0.264809 1.69456)
(0.0753947 -0.0428306 2.17342)
(0.1116 -0.269234 3.26464)
(0.197139 -0.362395 3.4355)
(-0.0888534 0.154764 2.34872)
(0.0196118 0.0468453 0.390973)
(0.229181 0.0020638 0.641924)
(0.21684 0.0907602 1.10102)
(0.287575 -0.149042 3.11708)
(0.252181 -0.393428 3.40908)
(-0.061912 0.0424679 2.34787)
(0.205675 0.115301 1.09472)
(0.354103 0.10808 1.32838)
(0.216949 0.0699028 1.3841)
(0.222035 0.00616498 2.20384)
(0.0264023 -0.14085 2.42838)
(0.256205 0.0800347 1.30204)
(0.247176 -0.0765404 1.62822)
(0.198485 -0.0912898 1.64537)
(0.0244119 0.0395674 2.51347)
(-0.417789 0.345307 2.45385)
(-0.298921 0.200671 2.73081)
(-0.0967492 0.0691561 2.4238)
(-0.154532 -0.111371 2.64096)
(-0.239957 0.283832 1.75956)
(0.066714 -0.0405936 2.15695)
(0.0675586 -0.265376 3.2628)
(0.198628 -0.349041 3.48778)
(-0.0973595 0.140524 2.38191)
(0.0189956 0.232596 0.369197)
(0.23932 0.162276 0.64302)
(0.220575 0.0609621 1.05954)
(0.283566 -0.130755 3.04158)
(0.254477 -0.380408 3.46739)
(-0.0567518 0.0364583 2.44366)
(0.189382 0.0692373 0.827884)
(0.394588 0.0637996 1.32001)
(0.226309 0.0382465 1.44867)
(0.249514 0.0177534 2.11449)
(0.0589155 -0.204244 2.57235)
(0.273567 0.0899549 1.29857)
(0.274793 -0.0808884 1.68585)
(0.202675 -0.0983856 1.73372)
(-0.0245859 0.0411954 2.31555)
(-0.452515 0.384182 2.46062)
(-0.28568 0.202293 2.62588)
(-0.177017 0.0213799 2.47515)
(-0.180113 -0.111645 2.69223)
(-0.213899 0.301272 1.77606)
(0.0217879 -0.0317808 2.12514)
(0.0227337 -0.268913 3.26341)
(0.195061 -0.341907 3.54358)
(-0.11373 0.110762 2.41189)
(0.0252724 0.401254 0.414102)
(0.273681 0.358674 0.651079)
(0.217078 0.0694478 1.04181)
(0.261039 -0.119772 2.92818)
(0.266725 -0.359593 3.50427)
(-0.0550609 0.025733 2.56475)
(0.209299 0.156728 0.664675)
(0.400026 0.0286733 1.29852)
(0.237395 -0.000148377 1.51126)
(0.268353 0.0184281 2.08221)
(0.0881156 -0.223285 2.72254)
(0.300792 0.100411 1.30433)
(0.314862 -0.0719437 1.71314)
(0.221561 -0.112585 1.82921)
(-0.0842603 0.00880486 2.17609)
(-0.445387 0.397232 2.40128)
(-0.290149 0.16218 2.53103)
(-0.229896 -0.0231943 2.53057)
(-0.188787 -0.0976953 2.70389)
(-0.113784 0.464845 1.78284)
(-0.0293599 0.00426977 2.06278)
(-0.00180791 -0.258026 3.24071)
(0.186116 -0.32647 3.59785)
(-0.132906 0.0636588 2.43746)
(0.0284205 0.484378 0.500792)
(0.283157 0.504439 0.672288)
(0.215913 0.10183 1.04872)
(0.232438 -0.137362 2.80796)
(0.291062 -0.338181 3.56204)
(-0.0486154 0.013486 2.72501)
(0.24423 0.196543 0.640679)
(0.38432 0.00892542 1.25902)
(0.240803 -0.0214873 1.55)
(0.266989 0.00373374 2.07595)
(0.111497 -0.22875 2.86825)
(0.310563 0.102027 1.30214)
(0.33046 -0.0591703 1.70911)
(0.248588 -0.13 1.89465)
(-0.127884 -0.0251527 2.14565)
(-0.417744 0.409577 2.27449)
(-0.31045 0.103359 2.46526)
(-0.258198 -0.0453515 2.58818)
(-0.179406 -0.0578757 2.7097)
(0.0103151 0.601187 1.71578)
(-0.0133633 0.0381214 1.98558)
(-0.0321176 -0.239431 3.18111)
(0.178533 -0.30559 3.64326)
(-0.149489 0.00752822 2.45531)
(0.0320335 0.505318 0.613361)
(0.247126 0.558951 0.72698)
(0.243793 0.16916 1.08097)
(0.200281 -0.102244 2.68117)
(0.307666 -0.3094 3.61514)
(-0.0289503 -0.0132076 2.92554)
(0.255861 0.174123 0.663356)
(0.375673 0.0107384 1.23906)
(0.241049 -0.00838731 1.61325)
(0.256184 -0.0229494 2.09191)
(0.124684 -0.240509 3.03188)
(0.315897 0.101956 1.28641)
(0.331684 -0.0518489 1.68449)
(0.272262 -0.14319 1.94508)
(-0.133091 -0.046171 2.18783)
(-0.313241 0.340493 2.00752)
(-0.303641 0.0545711 2.45751)
(-0.256671 -0.0649548 2.66674)
(-0.174493 -0.0492172 2.73274)
(0.185078 0.549641 1.56985)
(0.105763 0.0861107 1.90124)
(-0.0612701 -0.210165 3.08965)
(0.184277 -0.291181 3.67859)
(-0.154386 -0.0441834 2.47834)
(0.0346929 0.473712 0.702042)
(0.180383 0.521097 0.802274)
(0.291027 0.192261 1.12985)
(0.167129 -0.0113965 2.57675)
(0.313127 -0.282318 3.64973)
(0.0129737 -0.0482847 3.13562)
(0.253955 0.204092 0.685985)
(0.372064 0.0179139 1.24387)
(0.229565 0.0257086 1.67245)
(0.23534 -0.0447818 2.13012)
(0.134448 -0.246708 3.16727)
(0.326043 0.110769 1.28328)
(0.324092 -0.0323869 1.66649)
(0.291597 -0.149494 1.99275)
(-0.11685 -0.0503394 2.26657)
(-0.179443 0.203875 1.79684)
(-0.272462 0.0408418 2.47968)
(-0.235523 -0.0945742 2.75025)
(-0.173972 -0.0627486 2.75929)
(0.153831 0.472867 1.33853)
(0.26416 0.176384 1.81444)
(-0.059422 -0.164504 3.00827)
(0.201482 -0.27461 3.71384)
(-0.146496 -0.0890686 2.52204)
(0.0321786 0.413562 0.747867)
(0.108703 0.447924 0.848688)
(0.327929 0.185855 1.19012)
(0.140717 0.0830511 2.49194)
(0.312935 -0.258679 3.68129)
(0.0375384 -0.0721039 3.31172)
(0.247589 0.252747 0.717715)
(0.357724 0.042695 1.25444)
(0.212799 0.0643164 1.75689)
(0.220663 -0.0535127 2.18154)
(0.132068 -0.245088 3.28699)
(0.323866 0.120135 1.28804)
(0.312046 -0.00736539 1.671)
(0.301874 -0.148121 2.04475)
(-0.114376 -0.0404145 2.35344)
(-0.0897274 0.142672 1.60423)
(-0.232917 0.0302508 2.50284)
(-0.20345 -0.119607 2.81901)
(-0.172659 -0.0714283 2.78694)
(0.080485 0.34945 1.13099)
(0.364724 0.255787 1.72412)
(-0.0470468 -0.125715 2.93681)
(0.213923 -0.255419 3.75248)
(-0.138131 -0.11299 2.5859)
(0.0298007 0.331145 0.759775)
(0.0785365 0.384078 0.836672)
(0.348023 0.177275 1.25655)
(0.127105 0.153779 2.42115)
(0.308721 -0.231767 3.70533)
(0.0532491 -0.0921944 3.45049)
(0.218217 0.291126 0.768872)
(0.331993 0.0538951 1.25828)
(0.202999 0.0969393 1.85611)
(0.213716 -0.0557952 2.24598)
(0.125989 -0.232746 3.37404)
(0.308989 0.127903 1.30305)
(0.294052 0.0129476 1.69805)
(0.307979 -0.140821 2.112)
(-0.105697 -0.0302038 2.42837)
(-0.0368876 0.0962561 1.42382)
(-0.163995 -0.00395608 2.53128)
(-0.169491 -0.13101 2.86443)
(-0.169762 -0.0747727 2.81964)
(0.0719105 0.24456 0.975802)
(0.392606 0.264447 1.6518)
(-0.0434686 -0.0950107 2.85996)
(0.217535 -0.241895 3.78807)
(-0.124123 -0.143512 2.68179)
(0.0277385 0.278524 0.728561)
(0.0679778 0.328107 0.770983)
(0.356976 0.153635 1.3099)
(0.120365 0.181941 2.358)
(0.302907 -0.208155 3.71924)
(0.0560558 -0.11295 3.56255)
(0.190494 0.300934 0.790629)
(0.298617 0.0462973 1.27231)
(0.186969 0.116978 1.93643)
(0.211155 -0.0545687 2.32295)
(0.120869 -0.215215 3.4523)
(0.284718 0.126223 1.32411)
(0.269679 0.0272527 1.74349)
(0.304515 -0.126875 2.19314)
(-0.085779 -0.0298351 2.51005)
(-0.0224871 0.0720546 1.2455)
(-0.0706791 0.063346 2.54774)
(-0.140769 -0.118955 2.89595)
(-0.177652 -0.0838665 2.85607)
(0.0976429 0.193043 0.815077)
(0.386309 0.203227 1.59565)
(-0.0372447 -0.0609289 2.79574)
(0.221167 -0.227152 3.81322)
(-0.104124 -0.180658 2.82082)
(0.0251376 0.267606 0.702876)
(0.0882771 0.30093 0.678212)
(0.356262 0.0994377 1.34269)
(0.118754 0.183762 2.29279)
(0.298018 -0.181272 3.73195)
(0.0607832 -0.127516 3.65228)
(0.163357 0.298539 0.794519)
(0.27605 0.0197621 1.30339)
(0.168886 0.124621 2.00839)
(0.214083 -0.048155 2.40221)
(0.115577 -0.194809 3.52467)
(0.258365 0.105329 1.34542)
(0.236242 0.0434592 1.80892)
(0.291624 -0.11105 2.27952)
(-0.0852798 -0.0302292 2.60856)
(-0.0176586 0.0705022 1.08856)
(-0.0479306 0.110052 2.57109)
(-0.132224 -0.0929279 2.92912)
(-0.188723 -0.0994671 2.89783)
(0.0720023 0.203062 0.658318)
(0.346504 0.0841059 1.56088)
(-0.0205541 -0.0410952 2.76308)
(0.210256 -0.212099 3.82426)
(-0.0828448 -0.215256 2.98765)
(0.0231283 0.226775 0.704731)
(0.103225 0.312752 0.575669)
(0.348906 0.020913 1.35255)
(0.125121 0.176735 2.23521)
(0.295177 -0.146203 3.73708)
(0.0689414 -0.140441 3.72622)
(0.118093 0.285664 0.820425)
(0.275049 -0.0237254 1.31387)
(0.155805 0.113494 2.07176)
(0.21582 -0.0404739 2.48271)
(0.105866 -0.170156 3.59174)
(0.238336 0.0701319 1.34481)
(0.209687 0.0493536 1.87528)
(0.275459 -0.0991035 2.36193)
(-0.117036 -0.0384281 2.70525)
(-0.0624064 0.102383 0.954416)
(-0.0862949 0.0996379 2.5845)
(-0.132611 -0.0810731 2.97028)
(-0.205206 -0.122491 2.93707)
(0.00433038 0.282983 0.525978)
(0.271572 -0.00773565 1.55536)
(-0.00335558 -0.040653 2.73293)
(0.193318 -0.207736 3.82976)
(-0.0637723 -0.241227 3.15892)
(0.0160415 0.167648 0.693095)
(0.112281 0.33659 0.505376)
(0.339677 -0.037849 1.32947)
(0.126136 0.132368 2.18859)
(0.289705 -0.118386 3.7417)
(0.0705667 -0.149859 3.79451)
(0.0687389 0.268161 0.857857)
(0.291879 -0.063856 1.29671)
(0.144849 0.0851743 2.12769)
(0.21254 -0.035581 2.56411)
(0.0948922 -0.14446 3.65857)
(0.234887 0.0426937 1.3351)
(0.194287 0.0399228 1.93077)
(0.260301 -0.0907528 2.43931)
(-0.150974 -0.0414161 2.79043)
(-0.140349 0.164065 0.848712)
(-0.0937392 0.0384517 2.55254)
(-0.154966 -0.0731576 2.99477)
(-0.221476 -0.144278 2.96335)
(-0.020692 0.361259 0.425839)
(0.186665 -0.00925014 1.55863)
(-0.0116321 -0.0508156 2.69879)
(0.176467 -0.210728 3.84301)
(-0.0513486 -0.261647 3.31653)
(0.0087337 0.164529 0.662964)
(0.129367 0.328523 0.479607)
(0.325644 -0.0471612 1.29314)
(0.107345 0.0455616 2.15709)
(0.280506 -0.111164 3.74962)
(0.0691848 -0.162244 3.85029)
(0.0503079 0.239553 0.911006)
(0.311801 -0.0776906 1.26662)
(0.134147 0.0400041 2.1564)
(0.203394 -0.0375926 2.64139)
(0.0814473 -0.119355 3.72293)
(0.23418 0.0207683 1.30946)
(0.188872 0.0198615 1.96895)
(0.249483 -0.0860434 2.51155)
(-0.168003 -0.0525532 2.82013)
(-0.200526 0.239184 0.752259)
(-0.146813 -0.0148699 2.49676)
(-0.18071 -0.053662 3.01674)
(-0.233992 -0.158075 2.96169)
(-0.0296474 0.403679 0.366979)
(0.111639 0.0939441 1.58724)
(-0.0585597 -0.0611447 2.6718)
(0.142505 -0.203813 3.85064)
(-0.0497015 -0.273371 3.45009)
(0.00437268 0.17181 0.629257)
(0.154615 0.282822 0.495474)
(0.296494 -0.00729988 1.28025)
(0.0737409 -0.0300229 2.15154)
(0.267596 -0.117021 3.75106)
(0.0626836 -0.173618 3.8931)
(0.053912 0.204307 0.963878)
(0.324299 -0.0534587 1.23351)
(0.127474 -0.0240198 2.16536)
(0.192378 -0.0490021 2.70845)
(0.0747129 -0.106622 3.76838)
(0.222921 0.00879844 1.2793)
(0.199207 -0.0107944 1.97735)
(0.243305 -0.083542 2.5777)
(-0.210903 -0.0484226 2.83369)
(-0.261943 0.292106 0.646827)
(-0.244302 0.128317 2.44977)
(-0.232566 -0.0179919 2.99181)
(-0.240033 -0.155106 2.92562)
(-0.0657529 0.445663 0.339319)
(0.0425833 0.265673 1.65612)
(-0.104105 -0.045239 2.66152)
(0.102165 -0.19195 3.8369)
(-0.0539137 -0.276465 3.55747)
(0.00409628 0.173045 0.609741)
(0.15889 0.277299 0.526287)
(0.188501 0.162556 1.31907)
(0.0461904 -0.0687256 2.15869)
(0.248344 -0.120139 3.73773)
(0.0519634 -0.188548 3.92453)
(0.0624861 0.174054 1.02147)
(0.310578 0.0330783 1.21995)
(0.127492 -0.0946485 2.18294)
(0.177278 -0.0631383 2.76828)
(0.076939 -0.104169 3.79245)
(0.212576 0.0259088 1.26527)
(0.228218 -0.0514161 1.95612)
(0.241978 -0.0871151 2.6337)
(-0.248213 -0.03913 2.77317)
(-0.346767 0.339848 0.531458)
(-0.322755 0.390228 2.34838)
(-0.253677 0.0706558 2.9481)
(-0.22785 -0.128584 2.8623)
(-0.124931 0.512982 0.347794)
(-0.0217009 0.418604 1.71267)
(-0.120222 0.011234 2.6713)
(0.0691044 -0.179777 3.82101)
(-0.0571598 -0.270389 3.64233)
(0.00886361 0.181409 0.612412)
(0.13748 0.310374 0.57829)
(0.0636679 0.39264 1.3647)
(0.0366042 -0.0791943 2.15766)
(0.227265 -0.118216 3.71761)
(0.043184 -0.19932 3.94618)
(0.0559961 0.147182 1.09565)
(0.23549 0.250701 1.27006)
(0.138862 -0.135197 2.21013)
(0.160448 -0.0734676 2.81301)
(0.0829313 -0.103248 3.80339)
(0.195616 0.0725068 1.27228)
(0.271952 -0.106767 1.90376)
(0.243661 -0.0920946 2.67859)
(-0.233233 -0.00429277 2.62244)
(-0.368509 0.349839 0.488728)
(-0.368007 0.606806 2.1489)
(-0.277915 0.137039 2.87378)
(-0.211899 -0.0914946 2.76605)
(-0.151644 0.550531 0.42037)
(-0.110943 0.587775 1.70442)
(-0.127029 0.0783085 2.69927)
(0.0217681 -0.150613 3.81914)
(-0.0584836 -0.253587 3.71533)
(0.0200082 0.195052 0.609117)
(0.0969572 0.346609 0.693423)
(-0.000574688 0.607761 1.36755)
(0.0371522 -0.0749611 2.15494)
(0.213021 -0.113268 3.69356)
(0.0374753 -0.206411 3.9622)
(0.027843 0.118407 1.19492)
(0.14599 0.482011 1.34924)
(0.155968 -0.138114 2.23544)
(0.142486 -0.0795502 2.85754)
(0.0860089 -0.0993949 3.81131)
(0.170315 0.169527 1.33704)
(0.347139 -0.12047 1.86137)
(0.248958 -0.0995661 2.71776)
(-0.0531477 0.0133603 2.57695)
(-0.247566 0.24503 0.549356)
(-0.459662 0.506105 1.68661)
(-0.205026 0.223069 2.77519)
(-0.166931 -0.0228508 2.65173)
(-0.105101 0.483283 0.543539)
(-0.193701 0.776546 1.61818)
(-0.161059 0.135604 2.75617)
(-0.0243452 -0.1059 3.82025)
(-0.0624541 -0.224534 3.77486)
(0.0214048 0.147063 0.59966)
(0.0682974 0.321185 0.829932)
(-0.0228606 0.80641 1.36857)
(0.0438063 -0.0470938 2.15487)
(0.20369 -0.101591 3.66764)
(0.0383427 -0.20244 3.97572)
(-0.00712489 0.0791101 1.3034)
(0.0846726 0.654921 1.43725)
(0.16235 -0.137557 2.25635)
(0.124971 -0.0776851 2.91126)
(0.0852776 -0.0924436 3.82157)
(0.147303 0.285395 1.4833)
(0.416053 -0.0858134 1.88223)
(0.252862 -0.105849 2.76107)
(0.0320052 0.0337212 2.48972)
(-0.0979989 0.109693 0.564914)
(-0.36233 0.174779 1.15619)
(-0.199772 0.239305 2.60791)
(-0.10207 0.0534614 2.51699)
(-0.00311191 0.330734 0.671019)
(-0.213465 0.908726 1.48469)
(-0.196958 0.23674 2.84773)
(-0.0486264 -0.0618992 3.80231)
(-0.066972 -0.184666 3.8212)
(0.00390481 0.0334491 0.64911)
(0.0531848 0.190938 0.936668)
(-0.0213232 0.92578 1.39879)
(0.043505 0.0393408 2.17909)
(0.190467 -0.0807187 3.66161)
(0.0384813 -0.18943 3.98991)
(-0.0365735 0.0437645 1.37871)
(0.0460673 0.716857 1.57057)
(0.150874 -0.137788 2.27233)
(0.109356 -0.0754389 2.96663)
(0.0800238 -0.0811882 3.84176)
(0.126245 0.315797 1.69727)
(0.437998 -0.0352895 1.96276)
(0.252376 -0.106123 2.79556)
(0.0105607 0.0362033 2.08765)
(0.00399662 0.0189042 0.521666)
(-0.199916 0.139552 0.852835)
(0.0345464 0.291833 2.55043)
(0.00185199 0.0951699 2.45152)
(0.0562122 0.166996 0.76765)
(-0.167814 0.923574 1.31948)
(-0.13562 0.476135 2.89021)
(-0.0634033 0.00205145 3.7759)
(-0.062856 -0.143197 3.87075)
(-0.00535893 -0.0565861 0.740527)
(0.0387942 0.101653 0.994558)
(-0.0090939 0.937444 1.4484)
(0.0188011 0.288319 2.28837)
(0.171441 -0.0428124 3.67471)
(0.0359843 -0.16812 4.00823)
(-0.0402962 0.027488 1.41217)
(0.0216908 0.621303 1.75523)
(0.135136 -0.115232 2.29592)
(0.103845 -0.0760166 3.02155)
(0.0718496 -0.0720359 3.86569)
(0.134547 0.24435 1.91946)
(0.404472 0.014603 2.07017)
(0.245934 -0.0974983 2.83173)
(-0.156129 0.0802822 1.28325)
(0.0670909 -0.0289195 0.465114)
(0.0233316 0.172315 0.728868)
(0.267151 -0.0627634 2.33924)
(0.0794264 0.132999 2.44833)
(0.056366 0.043408 0.799806)
(-0.0554891 0.749937 1.1684)
(0.0134442 0.741308 2.87749)
(-0.0532834 0.079538 3.79314)
(-0.0455203 -0.108922 3.9267)
(-0.012006 -0.0925803 0.809798)
(0.0307849 0.0913864 1.02113)
(0.00367515 0.79583 1.56632)
(-0.0130918 0.533393 2.4474)
(0.158515 0.00194989 3.69642)
(0.0346546 -0.14417 4.03282)
(-0.0247519 0.013237 1.40499)
(0.0185864 0.385497 1.96745)
(0.104013 -0.0215138 2.36229)
(0.1155 -0.0733739 3.08432)
(0.0683507 -0.0702111 3.89393)
(0.150862 0.1779 2.0856)
(0.307549 0.055739 2.18332)
(0.227441 -0.0780998 2.87967)
(0.271998 0.0814388 0.947191)
(0.104173 -0.0661916 0.40194)
(0.179927 0.141666 0.580667)
(0.410794 0.160256 1.66341)
(0.264255 0.182332 2.60785)
(0.0607539 -0.0525144 0.772893)
(0.0181432 0.502059 1.05922)
(0.0631361 0.757744 2.89173)
(-0.058047 0.119932 3.86081)
(-0.0275991 -0.0848287 4.00288)
(-0.0199971 -0.103149 0.861081)
(-0.0224628 0.123172 1.02666)
(0.0182872 0.465334 1.72198)
(-0.0323519 0.595911 2.58654)
(0.156208 0.0383481 3.7297)
(0.0385197 -0.128783 4.06573)
(-0.0025459 0.00665974 1.36972)
(0.0399802 0.151525 2.11296)
(0.0520127 0.140677 2.49696)
(0.129472 -0.060054 3.16194)
(0.0678362 -0.0718067 3.93191)
(0.138456 0.131318 2.18519)
(0.196309 0.0954622 2.30636)
(0.212486 -0.0581815 2.93896)
(0.526148 0.108751 0.680774)
(0.123611 -0.0869928 0.326619)
(0.258709 0.0710419 0.385002)
(0.358453 0.133294 1.16838)
(0.317557 0.205032 2.88073)
(0.0969572 -0.130236 0.680906)
(0.00321021 0.323555 0.961914)
(0.0772857 0.69766 2.89789)
(-0.102405 0.131907 3.93761)
(-0.0145749 -0.0789796 4.09032)
(-0.0307645 -0.112593 0.915301)
(-0.0953237 0.162067 1.04503)
(0.0532898 0.196522 1.81476)
(-0.0320725 0.536564 2.66406)
(0.169708 0.0546031 3.77283)
(0.0480161 -0.133327 4.10031)
(0.00643843 0.0169481 1.33912)
(0.0784415 -0.00598671 2.17561)
(0.023468 0.223005 2.62671)
(0.137401 -0.0385253 3.23709)
(0.0727389 -0.0736742 3.97368)
(0.125128 0.0901223 2.22154)
(0.113708 0.121275 2.4499)
(0.20375 -0.0430348 3.00954)
(0.467208 0.0915746 0.506946)
(0.116648 -0.0811031 0.242448)
(0.263619 0.0438095 0.218912)
(0.233593 -0.0156752 0.969972)
(0.210538 0.119717 3.07111)
(0.126918 -0.145284 0.554927)
(-0.0684471 0.246812 0.879608)
(0.0554395 0.530757 2.84273)
(-0.168715 0.121816 3.99903)
(-0.014118 -0.101474 4.15917)
(-0.0363714 -0.131038 0.989843)
(-0.158152 0.187588 1.09151)
(0.0818559 0.031989 1.87365)
(-0.0367672 0.356785 2.71481)
(0.176983 0.0433128 3.81961)
(0.054969 -0.151858 4.13307)
(0.0055442 0.0263902 1.33284)
(0.129105 -0.0733173 2.1786)
(0.0132177 0.220912 2.72816)
(0.143592 -0.0236352 3.30816)
(0.0792228 -0.0800254 4.01226)
(0.111845 0.0586839 2.20325)
(0.0696013 0.129202 2.58874)
(0.197942 -0.0330588 3.08712)
(0.214653 0.0143714 0.563345)
(0.0912045 -0.0610055 0.16967)
(0.212156 0.0662283 0.106252)
(0.0490883 -0.0580444 0.929668)
(-0.0243859 -0.0282373 3.16073)
(0.126884 -0.0972073 0.465885)
(-0.171836 0.246664 0.830819)
(-0.0259382 0.283448 2.79131)
(-0.227822 0.0638892 4.0106)
(-0.0186317 -0.139042 4.19113)
(-0.0380611 -0.15521 1.06715)
(-0.184886 0.214528 1.15759)
(0.0806196 -0.0234345 1.8923)
(-0.05159 0.168507 2.73127)
(0.165391 0.0189279 3.8444)
(0.0579271 -0.175084 4.15119)
(-0.00211387 0.0300901 1.35199)
(0.171048 -0.0780099 2.1516)
(0.0128559 0.171579 2.77424)
(0.14318 -0.0229449 3.37092)
(0.0874133 -0.0902731 4.04322)
(0.0920411 0.032424 2.15185)
(0.0573386 0.11313 2.69785)
(0.190987 -0.0270896 3.15839)
(-0.0544596 -0.0576582 0.830968)
(0.0559909 -0.0325569 0.124062)
(0.129613 0.116617 0.0621626)
(-0.110893 -0.0847211 0.981846)
(-0.110899 -0.122185 3.09232)
(0.133624 -0.0406431 0.408698)
(-0.27623 0.2889 0.838491)
(-0.0802755 0.133052 2.78881)
(-0.257705 -0.00791574 3.97222)
(-0.0296378 -0.173359 4.17645)
(-0.0400503 -0.192717 1.12304)
(-0.203537 0.219254 1.22938)
(0.0651943 -0.0209157 1.88979)
(-0.072322 0.074523 2.71106)
(0.154297 0.00390041 3.83817)
(0.0585332 -0.192933 4.15068)
(-0.0107315 0.0225925 1.39619)
(0.185978 -0.0655006 2.12138)
(0.0108161 0.108281 2.78335)
(0.135626 -0.0330217 3.41677)
(0.0938392 -0.100221 4.06017)
(0.0766181 0.0145605 2.08909)
(0.0592119 0.0866322 2.76833)
(0.18225 -0.0247404 3.21445)
(-0.243438 -0.0766788 1.13785)
(0.0201839 -0.00325957 0.109693)
(0.0420484 0.173573 0.0859349)
(-0.202171 -0.140592 1.09802)
(-0.158742 -0.0544807 2.96557)
(0.149959 -0.0201335 0.375872)
(-0.332182 0.349937 0.892275)
(-0.111335 0.0677417 2.78845)
(-0.278371 -0.0195687 3.93476)
(-0.0386875 -0.178674 4.14371)
(-0.0410377 -0.237996 1.14881)
(-0.22572 0.190646 1.28572)
(0.00115551 0.0208766 1.88954)
(-0.0840738 0.0553416 2.68428)
(0.151425 0.00636398 3.81744)
(0.0514495 -0.199144 4.13958)
(-0.023199 0.0145479 1.44669)
(0.169633 -0.0492179 2.08687)
(-0.00412035 0.0423477 2.78222)
(0.12502 -0.0478834 3.44765)
(0.0996338 -0.107361 4.06839)
(0.0596333 0.00578544 2.02358)
(0.0705375 0.0603596 2.80486)
(0.173595 -0.0262318 3.25182)
(-0.418273 -0.058257 1.24282)
(-0.00989423 0.0185388 0.123697)
(-0.0241103 0.217366 0.163067)
(-0.28759 -0.121547 1.20227)
(-0.177647 0.0380282 2.83363)
(0.165865 -0.0347718 0.369746)
(-0.325021 0.406058 0.974463)
(-0.148505 0.0547451 2.7583)
(-0.286114 0.0137854 3.90313)
(-0.0464008 -0.172032 4.10055)
(-0.041417 -0.278987 1.1412)
(-0.2418 0.123503 1.36494)
(-0.161454 0.16465 1.9046)
(-0.077779 0.0666087 2.64603)
(0.136269 0.0265478 3.80041)
(0.0415162 -0.192405 4.12762)
(-0.0482845 0.0138479 1.4976)
(0.118705 -0.0218344 2.07449)
(-0.0243711 -0.00931178 2.77399)
(0.113319 -0.0549879 3.46929)
(0.104144 -0.114524 4.07101)
(0.0393069 0.0113608 1.97052)
(0.0792752 0.0412395 2.80543)
(0.165442 -0.0300309 3.27402)
(-0.582647 -0.0328727 1.18465)
(-0.0250782 0.0248378 0.156473)
(-0.0480063 0.237332 0.262824)
(-0.423307 0.0103402 1.19308)
(-0.247274 -0.0043321 2.70293)
(0.188393 -0.0840205 0.383162)
(-0.288946 0.442108 1.07826)
(-0.216108 0.0962283 2.69709)
(-0.277117 0.0118181 3.84826)
(-0.0560607 -0.144497 4.04364)
(-0.0437471 -0.319989 1.10195)
(-0.238907 0.0294579 1.4624)
(-0.299783 0.314592 1.91809)
(-0.0867996 0.125522 2.57848)
(0.0964554 0.0315623 3.80931)
(0.0257006 -0.179398 4.11526)