/*--------------------------------*- C++ -*----------------------------------*\
| =========                 |                                                 |
| \\      /  F ield         | OpenFOAM: The Open Source CFD Toolbox           |
|  \\    /   O peration     | Version:  5.x                                   |
|   \\  /    A nd           | Web:      www.OpenFOAM.org                      |
|    \\/     M anipulation  |                                                 |
\*---------------------------------------------------------------------------*/
FoamFile
{
    version     2.0;
    format      ascii;
    class       volVectorField;
    location    "1";
    object      Us;
}
// * * * * * * * * * * * * * * * * * * * * * * * * * * * * * * * * * * * * * //

dimensions      [0 1 -1 0 0 0 0];

internalField   nonuniform List<vector> 
10571
(
(0.238271 0.04689 -0.0504243)
(0.00962258 0.073335 -0.128064)
(0.18518 0.205243 -0.0691547)
(0.37003 0.272837 0.0725143)
(0.325322 0.264386 0.0931751)
(0.161882 0.276788 0.0576808)
(0.296821 0.426043 0.125243)
(0.453359 0.487953 0.177182)
(0.612351 0.575631 0.223227)
(0.0996118 0.201019 0.0154252)
(0.0455689 0.118258 -0.193395)
(0.303239 0.24894 0.0761487)
(0.422492 0.730372 0.159317)
(0.512658 0.708141 0.221105)
(0.494828 0.536527 0.167338)
(-0.0405555 0.0884757 0.0969409)
(0.220241 0.169462 -0.0608047)
(0.32412 0.423719 0.207128)
(0.117584 0.244643 0.178294)
(-0.0424956 0.0304476 0.178735)
(-0.071877 0.145237 0.0137908)
(0.095663 -0.0566856 0.0217732)
(0.141835 -0.106505 0.060259)
(0.105421 -0.112111 0.0176041)
(0.0164903 -0.0268493 -0.222596)
(0.082327 -0.0232214 -0.405976)
(0.0244665 -0.0491956 -0.278)
(0.105034 -0.033966 0.0345022)
(0.139808 0.00416391 0.155726)
(0.162132 0.0719477 -0.0430849)
(0.113388 0.161274 0.224753)
(0.0118925 0.107451 0.132294)
(0.14321 0.136667 0.139676)
(0.0384702 0.140592 0.0765719)
(0.0240578 0.0828072 -0.528791)
(0.113027 0.109254 0.141034)
(0.239053 0.286377 0.322966)
(0.260796 0.400245 0.360397)
(0.0923742 0.257694 0.13882)
(-0.0118733 0.133135 -0.0141382)
(-0.0281357 -0.0366917 -0.0374893)
(0.278987 0.288625 0.400259)
(0.176345 0.215334 0.423163)
(0.0873221 0.213987 0.300865)
(0.0734986 0.133671 0.0852029)
(0.191733 0.0744004 0.112986)
(0.148938 -0.0134139 0.148949)
(0.234349 -0.134882 -0.0409565)
(-0.0100707 -0.0234368 -0.36147)
(0.0298751 -0.115155 -0.577081)
(-0.0235326 -0.183643 -0.330066)
(0.0484478 -0.169954 -0.121859)
(0.180452 -0.137896 0.0812761)
(0.0299863 -0.0682409 -0.17961)
(-0.0882149 0.0210717 0.104003)
(0.054379 -0.0362397 -0.0733051)
(0.0909653 0.0506775 0.138049)
(0.0376593 0.092793 0.128691)
(-0.0108291 -0.00573556 -0.641582)
(-0.0314995 -0.0690267 0.0181118)
(0.0804152 0.214091 0.392122)
(0.100815 0.28268 0.475478)
(0.114738 0.0420645 0.020447)
(0.0203461 0.122591 0.00444418)
(-0.0824258 0.0235603 -0.103938)
(0.199203 0.264753 0.423748)
(0.277394 0.31538 0.457982)
(0.185476 0.345362 0.396655)
(0.111886 0.10648 0.152895)
(0.0815412 0.0252122 0.119263)
(0.15245 0.0182758 0.173644)
(0.1824 -0.0222203 0.090995)
(-0.0193091 -0.031734 -0.287801)
(0.0203846 -0.161407 -0.509485)
(0.0700538 -0.181804 -0.419485)
(0.0120008 0.0266491 -0.446415)
(0.129573 -0.0573186 -0.00020679)
(0.000134845 -0.104193 -0.0760527)
(-0.0464363 0.0028196 0.00561579)
(0.126885 -0.0760282 -0.17043)
(0.00114377 0.0890448 0.114532)
(0.0283713 0.0929462 0.0861618)
(-0.0116377 -0.0287017 -0.544057)
(0.0208818 -0.084319 -0.102282)
(-0.0695356 0.175977 0.384227)
(0.0933678 0.0531487 0.38646)
(0.0963773 -0.0252177 0.0877793)
(-0.044026 0.0292785 -0.15504)
(-0.0861421 0.0403865 -0.154875)
(0.0499236 0.210105 0.260747)
(0.189872 0.130628 0.398712)
(0.173495 0.0600778 0.280926)
(0.00986038 -0.122784 0.382936)
(-0.027274 0.0595642 0.0608984)
(0.105953 -0.003643 0.149115)
(0.186363 -0.0975035 0.11092)
(-0.0504178 0.0931509 -0.335899)
(0.00392679 0.0715412 -0.368879)
(-0.037373 -0.0351026 -0.512652)
(0.00289242 0.037443 -0.336595)
(0.0727468 -0.00565741 -0.140555)
(-0.0142891 -0.105312 -0.203843)
(0.0744759 -0.0651198 -0.123616)
(0.125707 -0.0549312 -0.18307)
(0.0418509 0.0492538 -0.137401)
(-0.0108986 0.0671033 -0.0330217)
(-0.0742758 -0.0333387 -0.551974)
(-0.0227244 -0.0217416 -0.303767)
(-0.000777702 0.0447901 0.205814)
(0.0929318 -0.0323119 0.292881)
(0.0898736 -0.110655 0.084292)
(-0.0116144 -0.00943837 -0.15051)
(0.0418986 0.0525584 -0.413873)
(0.0372007 0.0967741 0.0150906)
(0.0957433 0.0296466 0.0135516)
(0.168358 0.0165721 0.251845)
(2.29267e-16 1.68154e-16 -3.72808e-16)
(0.0832874 0.123115 -0.222612)
(0.0745829 0.0201069 0.0474911)
(0.132797 -0.0697472 -0.0434361)
(-0.0662048 0.0213188 -0.204043)
(0 0 0)
(-0.0828241 0.137064 -0.262913)
(-0.0495276 0.00997595 -0.170856)
(0.0782241 -0.0213643 -0.229399)
(-0.0403891 -0.111957 -0.277193)
(0.111468 -0.0945342 -0.1809)
(0.117307 -0.0636967 -0.18824)
(0.0898031 -0.0221744 -0.07749)
(0.100443 0.0580478 -0.215506)
(-0.00910628 0.0051361 -0.00409942)
(0.0118147 0.0231305 -1.34572)
(-0.064948 0.0331302 -0.380811)
(0.0639994 -0.0322786 0.0257849)
(0.131439 -0.0769473 0.167464)
(0.120173 -0.144003 0.168407)
(0.0828385 -0.132172 0.016363)
(-0.00237014 -0.000813477 -0.00120441)
(-0.0226211 0.0629558 -0.523829)
(0.0825373 0.0857843 -0.204968)
(0.0722766 0.0192596 -0.0348099)
(0.0685302 -0.0743061 0.199921)
(0.0807048 -0.18451 0.276124)
(0.090777 0.0114115 -0.53979)
(0.0692272 0.0884929 -0.175342)
(0.0492236 0.0169852 -0.0901165)
(-0.0292504 -0.072148 -0.204241)
(0 0 0)
(-0.0359175 -0.230613 -0.272546)
(-0.0465895 0.0244935 -0.110732)
(0.0447011 0.00246295 -0.140537)
(-0.0633303 -0.14797 -0.152805)
(0.088014 -0.0945819 -0.136953)
(0.139688 -0.0715394 -0.0806759)
(0.132187 -0.0137567 -0.0467325)
(0.0582036 0.110172 -0.235704)
(0.117479 -0.112273 -0.209475)
(0 0 0)
(-0.0981655 0.026015 -0.180807)
(0.0562834 -0.0104356 -0.0334866)
(0.15353 -0.0380267 0.079516)
(0.203799 -0.0708056 0.102236)
(0.187804 -0.11146 0.0242478)
(0.213459 0.0591827 -0.163969)
(0.0770081 -0.0109596 -0.503165)
(0.0850942 0.112582 -0.281542)
(0.124256 0.0900288 -0.154472)
(0.146935 -0.00509253 0.0947659)
(0.116003 -0.0875995 0.224045)
(0 0 0)
(0.108954 0.0209197 -0.462554)
(0.145412 0.0818786 -0.473539)
(0.0802472 -0.00848383 -0.189061)
(-0.0515276 -0.197595 -0.0821494)
(0 0 0)
(0 0 0)
(-0.0365296 0.00877942 -0.592139)
(0.0204363 0.0320174 -0.112408)
(-0.00683718 0.0102315 -1.29252)
(0.0469957 -0.0931647 -0.073794)
(0.0983237 -0.0511039 -0.0518106)
(0.114992 0.0351744 0.0213844)
(0.0588684 0.0825629 -0.0826499)
(0.213462 0.0550605 -0.208977)
(0 0 0)
(0 0 0)
(0.060165 0.0242306 -0.0764197)
(0.161566 -0.0141776 0.0307004)
(0.174172 -0.0574701 0.140386)
(0.19332 -0.0766626 0.124531)
(0.328306 -0.157477 0.0838731)
(0 0 0)
(0.0802513 0.11029 -0.237572)
(0.127332 0.0626201 -0.128241)
(0.107011 -0.0281904 -0.0250844)
(0.09006 -0.0557523 0.218574)
(0.201682 -0.0890244 0.0356353)
(0.0787652 0.0149004 -0.770158)
(0.125452 -0.00891055 -0.636279)
(0 0 0)
(-0.074341 -0.157791 -0.0196416)
(0 0 0)
(0.0493131 0.00906349 -1.19523)
(-2.06824e-17 3.28332e-17 1.01722e-15)
(0.0292679 -0.0577207 0.0134873)
(0 0 0)
(0.00469356 -0.0141716 -1.02089)
(-0.063323 0.0532568 0.09305)
(0.0539077 0.050116 0.0411729)
(0.0572515 0.0662134 -0.0115718)
(0 0 0)
(0 0 0)
(0 0 0)
(0.0601263 0.0489569 -0.193273)
(0.121434 -0.0460684 -0.12377)
(0.130482 -0.0235999 0.0165505)
(0.141715 0.0435561 0.15081)
(0.198673 0.184009 -0.11116)
(0.0342154 0.0303929 -1.2883)
(0.0341779 0.0881579 -0.549768)
(-0.0227983 -0.00953088 -0.639489)
(0.0980968 0.0490045 0.190126)
(-0.0305166 -0.0134019 0.26159)
(0 0 0)
(0.13924 -0.0578347 -0.3311)
(0.0163603 -0.222641 -0.389683)
(0 0 0)
(0 0 0)
(0 0 0)
(0 0 0)
(6.92692e-17 -1.24997e-16 8.09086e-18)
(0 0 0)
(0 0 0)
(0 0 0)
(0.0865713 0.069829 0.1328)
(0 0 0)
(0 0 0)
(0 0 0)
(0.0466863 -0.00028204 -0.504371)
(0.0362566 0.0234367 -0.592421)
(0.11509 -0.160014 0.164299)
(0.0587313 -0.078908 -0.375366)
(0 0 0)
(-7.2404e-17 -5.3193e-17 3.60566e-16)
(0.0207914 0.0245489 -0.346179)
(0 0 0)
(0 0 0)
(0.0817695 0.059848 -0.412889)
(0 0 0)
(0.0460922 0.0346265 -0.15744)
(0 0 0)
(0 0 0)
(0 0 0)
(0 0 0)
(0 0 0)
(0 0 0)
(0 0 0)
(-0.137291 -0.143619 0.275973)
(0.025482 -0.0838905 -0.44001)
(0 0 0)
(0 0 0)
(0 0 0)
(0.0155225 0.00692282 -1.00834)
(0.0167102 -0.0173747 -0.653373)
(0 0 0)
(0 0 0)
(0 0 0)
(0.024858 0.0353783 -0.963994)
(0.0207128 -0.00761425 -0.520552)
(0.00574611 -0.0355232 -0.333691)
(0 0 0)
(0 0 0)
(0 0 0)
(0.118242 -0.0306621 -0.617544)
(0 0 0)
(0 0 0)
(0 0 0)
(0 0 0)
(0 0 0)
(-0.038533 0.000139993 -1.40072)
(0 0 0)
(0 0 0)
(0 0 0)
(0 0 0)
(0 0 0)
(0 0 0)
(0 0 0)
(0 0 0)
(0.00308652 0.0165383 0.123413)
(0 0 0)
(0 0 0)
(0 0 0)
(0.0918256 0.010053 -0.43838)
(-0.00028476 0.149093 0.0276296)
(0 0 0)
(0.0866627 0.019842 -1.00167)
(0 0 0)
(0 0 0)
(0 0 0)
(0 0 0)
(0 0 0)
(0 0 0)
(0 0 0)
(0 0 0)
(0 0 0)
(0 0 0)
(0 0 0)
(0 0 0)
(0 0 0)
(0 0 0)
(0 0 0)
(0 0 0)
(-0.0937484 -0.179479 0.0924723)
(0 0 0)
(0.0184387 0.0476469 -1.21323)
(0.0689813 -0.00577033 -0.74543)
(0 0 0)
(0 0 0)
(0 0 0)
(0.0671392 0.020803 -1.0242)
(0.141201 -0.154595 -0.144183)
(0 0 0)
(0 0 0)
(0 0 0)
(0 0 0)
(0 0 0)
(0 0 0)
(0 0 0)
(0 0 0)
(0.000125871 -0.0226931 -0.858228)
(0.0414025 -0.0242005 -0.393456)
(0 0 0)
(0 0 0)
(0 0 0)
(0 0 0)
(0 0 0)
(-0.0764131 -0.161526 0.281146)
(0 0 0)
(0.0266147 0.0359933 -1.27701)
(0 0 0)
(-0.00882658 0.0086304 -0.636255)
(0 0 0)
(0 0 0)
(0.0510378 0.00141574 -1.0746)
(0 0 0)
(-0.00387588 -0.048396 -0.051232)
(0 0 0)
(0 0 0)
(0 0 0)
(0 0 0)
(0 0 0)
(0 0 0)
(0 0 0)
(0 0 0)
(0 0 0)
(0 0 0)
(0 0 0)
(0 0 0)
(-0.00785519 0.00471765 -0.945076)
(-5.38165e-05 -0.0102659 -0.627796)
(0.0767568 -0.00759833 -0.306132)
(0 0 0)
(0 0 0)
(0 0 0)
(0.0269667 0.0297991 -0.530169)
(0 0 0)
(0 0 0)
(0 0 0)
(0 0 0)
(0 0 0)
(0 0 0)
(0 0 0)
(0 0 0)
(0 0 0)
(0 0 0)
(0 0 0)
(0.054344 0.00608225 -1.16614)
(0 0 0)
(0 0 0)
(0 0 0)
(0 0 0)
(0 0 0)
(0 0 0)
(0 0 0)
(0 0 0)
(0 0 0)
(0 0 0)
(0 0 0)
(-2.35734e-17 -2.65446e-17 4.66002e-16)
(0 0 0)
(-0.0425131 -0.055683 -0.236155)
(0 0 0)
(0 0 0)
(0 0 0)
(0 0 0)
(0 0 0)
(0 0 0)
(0 0 0)
(0 0 0)
(0 0 0)
(0 0 0)
(0 0 0)
(0 0 0)
(0 0 0)
(0 0 0)
(0 0 0)
(0 0 0)
(0 0 0)
(0 0 0)
(0 0 0)
(0 0 0)
(0 0 0)
(0 0 0)
(0 0 0)
(0 0 0)
(0 0 0)
(0 0 0)
(0 0 0)
(0 0 0)
(0 0 0)
(0 0 0)
(0 0 0)
(0 0 0)
(0 0 0)
(0 0 0)
(0 0 0)
(0 0 0)
(0 0 0)
(0 0 0)
(0 0 0)
(0 0 0)
(0 0 0)
(0 0 0)
(0 0 0)
(0 0 0)
(0 0 0)
(0 0 0)
(0 0 0)
(0 0 0)
(0 0 0)
(0 0 0)
(0 0 0)
(0 0 0)
(0 0 0)
(0 0 0)
(0 0 0)
(0 0 0)
(0 0 0)
(0 0 0)
(0 0 0)
(0 0 0)
(0 0 0)
(0 0 0)
(0 0 0)
(0 0 0)
(0 0 0)
(0 0 0)
(0 0 0)
(0 0 0)
(0 0 0)
(-0.0103994 0.0224938 -0.519818)
(0 0 0)
(0 0 0)
(0 0 0)
(0 0 0)
(0 0 0)
(0 0 0)
(0 0 0)
(0 0 0)
(0 0 0)
(0 0 0)
(0 0 0)
(0 0 0)
(0 0 0)
(0 0 0)
(0 0 0)
(0 0 0)
(0 0 0)
(0 0 0)
(0 0 0)
(0 0 0)
(0 0 0)
(0 0 0)
(0 0 0)
(0.0014783 0.0139874 -0.488238)
(0 0 0)
(0 0 0)
(0 0 0)
(0 0 0)
(0 0 0)
(0 0 0)
(0 0 0)
(0 0 0)
(0 0 0)
(0 0 0)
(0 0 0)
(0 0 0)
(0 0 0)
(0 0 0)
(0 0 0)
(0 0 0)
(0 0 0)
(0 0 0)
(0 0 0)
(0 0 0)
(0 0 0)
(0 0 0)
(0 0 0)
(-9.51759e-19 -1.22411e-17 4.29587e-16)
(0 0 0)
(0 0 0)
(0 0 0)
(0 0 0)
(0 0 0)
(0 0 0)
(0 0 0)
(0 0 0)
(0 0 0)
(0 0 0)
(0 0 0)
(0 0 0)
(0 0 0)
(0 0 0)
(0 0 0)
(0 0 0)
(0 0 0)
(0 0 0)
(0 0 0)
(0 0 0)
(0 0 0)
(0 0 0)
(0 0 0)
(0 0 0)
(0 0 0)
(0 0 0)
(0 0 0)
(0 0 0)
(0 0 0)
(0 0 0)
(0 0 0)
(0 0 0)
(0 0 0)
(0 0 0)
(0 0 0)
(0 0 0)
(0 0 0)
(0 0 0)
(0 0 0)
(0 0 0)
(0 0 0)
(0 0 0)
(0 0 0)
(0 0 0)
(0 0 0)
(0 0 0)
(0 0 0)
(0 0 0)
(0 0 0)
(0 0 0)
(0 0 0)
(0 0 0)
(0 0 0)
(0 0 0)
(0 0 0)
(0 0 0)
(0 0 0)
(0 0 0)
(0 0 0)
(0 0 0)
(0 0 0)
(0 0 0)
(0 0 0)
(0 0 0)
(0 0 0)
(0 0 0)
(0 0 0)
(0 0 0)
(0 0 0)
(0 0 0)
(0 0 0)
(0 0 0)
(0 0 0)
(0 0 0)
(0 0 0)
(0 0 0)
(0 0 0)
(0 0 0)
(0 0 0)
(0 0 0)
(0 0 0)
(0 0 0)
(0 0 0)
(0 0 0)
(0 0 0)
(0 0 0)
(0 0 0)
(0 0 0)
(0 0 0)
(0 0 0)
(0 0 0)
(0 0 0)
(0 0 0)
(0 0 0)
(0 0 0)
(0 0 0)
(0 0 0)
(0 0 0)
(0 0 0)
(0 0 0)
(0 0 0)
(0 0 0)
(0 0 0)
(0 0 0)
(0 0 0)
(0 0 0)
(0 0 0)
(0 0 0)
(0 0 0)
(0 0 0)
(0 0 0)
(0 0 0)
(0 0 0)
(0 0 0)
(0 0 0)
(0 0 0)
(0 0 0)
(0 0 0)
(0 0 0)
(0 0 0)
(0 0 0)
(0 0 0)
(0 0 0)
(0 0 0)
(0 0 0)
(0 0 0)
(0 0 0)
(0 0 0)
(0 0 0)
(0 0 0)
(0 0 0)
(0 0 0)
(0 0 0)
(0 0 0)
(0 0 0)
(0 0 0)
(0 0 0)
(0 0 0)
(0 0 0)
(0 0 0)
(0 0 0)
(0 0 0)
(0 0 0)
(0 0 0)
(0 0 0)
(0 0 0)
(0 0 0)
(0 0 0)
(0 0 0)
(0 0 0)
(0 0 0)
(0 0 0)
(0 0 0)
(0 0 0)
(0 0 0)
(0 0 0)
(0 0 0)
(0 0 0)
(0 0 0)
(0 0 0)
(0 0 0)
(0 0 0)
(0 0 0)
(0 0 0)
(0 0 0)
(0 0 0)
(0 0 0)
(0 0 0)
(0 0 0)
(0 0 0)
(0 0 0)
(0 0 0)
(0 0 0)
(0 0 0)
(0 0 0)
(0 0 0)
(0 0 0)
(0 0 0)
(0 0 0)
(0 0 0)
(0 0 0)
(0 0 0)
(0 0 0)
(0 0 0)
(0 0 0)
(0 0 0)
(0 0 0)
(0 0 0)
(0 0 0)
(0 0 0)
(0 0 0)
(0 0 0)
(0 0 0)
(0 0 0)
(0 0 0)
(0 0 0)
(0 0 0)
(0 0 0)
(0 0 0)
(0 0 0)
(0 0 0)
(0 0 0)
(0 0 0)
(0 0 0)
(0 0 0)
(0 0 0)
(0 0 0)
(0 0 0)
(0 0 0)
(0 0 0)
(0 0 0)
(0 0 0)
(0 0 0)
(0 0 0)
(0 0 0)
(0 0 0)
(0 0 0)
(0 0 0)
(0 0 0)
(0 0 0)
(0 0 0)
(0 0 0)
(0 0 0)
(0 0 0)
(0 0 0)
(0 0 0)
(0 0 0)
(0 0 0)
(0 0 0)
(0 0 0)
(0 0 0)
(0 0 0)
(0 0 0)
(0 0 0)
(0 0 0)
(0 0 0)
(0 0 0)
(0 0 0)
(0 0 0)
(0 0 0)
(0 0 0)
(0 0 0)
(0 0 0)
(0 0 0)
(0 0 0)
(0 0 0)
(0 0 0)
(0 0 0)
(0 0 0)
(0 0 0)
(0 0 0)
(0 0 0)
(0 0 0)
(0 0 0)
(0 0 0)
(0 0 0)
(0 0 0)
(0 0 0)
(0 0 0)
(0 0 0)
(0 0 0)
(0 0 0)
(0 0 0)
(0 0 0)
(0 0 0)
(0 0 0)
(0 0 0)
(0 0 0)
(0 0 0)
(0 0 0)
(0 0 0)
(0 0 0)
(0 0 0)
(0 0 0)
(0 0 0)
(0 0 0)
(0 0 0)
(0 0 0)
(0 0 0)
(0 0 0)
(0 0 0)
(0 0 0)
(0 0 0)
(0 0 0)
(0 0 0)
(0 0 0)
(0 0 0)
(0 0 0)
(0 0 0)
(0 0 0)
(0 0 0)
(0 0 0)
(0 0 0)
(0 0 0)
(0 0 0)
(0 0 0)
(0 0 0)
(0 0 0)
(0 0 0)
(0 0 0)
(0 0 0)
(0 0 0)
(0 0 0)
(0 0 0)
(0 0 0)
(0 0 0)
(0 0 0)
(0 0 0)
(0 0 0)
(0 0 0)
(0 0 0)
(0 0 0)
(0 0 0)
(0 0 0)
(0 0 0)
(0 0 0)
(0 0 0)
(0 0 0)
(0 0 0)
(0 0 0)
(0 0 0)
(0 0 0)
(0 0 0)
(0 0 0)
(0 0 0)
(0 0 0)
(0 0 0)
(0 0 0)
(0 0 0)
(0 0 0)
(0 0 0)
(0 0 0)
(0 0 0)
(0 0 0)
(0 0 0)
(0 0 0)
(0 0 0)
(0 0 0)
(0 0 0)
(0 0 0)
(0 0 0)
(0 0 0)
(0 0 0)
(0 0 0)
(0 0 0)
(0 0 0)
(0 0 0)
(0 0 0)
(0 0 0)
(0 0 0)
(0 0 0)
(0 0 0)
(0 0 0)
(0 0 0)
(0 0 0)
(0 0 0)
(0 0 0)
(0 0 0)
(0 0 0)
(0 0 0)
(0 0 0)
(0 0 0)
(0 0 0)
(0 0 0)
(0 0 0)
(0 0 0)
(0 0 0)
(0 0 0)
(0 0 0)
(0 0 0)
(0 0 0)
(0 0 0)
(0 0 0)
(0 0 0)
(0 0 0)
(0 0 0)
(0 0 0)
(0 0 0)
(0 0 0)
(0 0 0)
(0 0 0)
(0 0 0)
(0 0 0)
(0 0 0)
(0 0 0)
(0 0 0)
(0 0 0)
(0 0 0)
(0 0 0)
(0 0 0)
(0 0 0)
(0 0 0)
(0 0 0)
(0 0 0)
(0 0 0)
(0 0 0)
(0 0 0)
(0 0 0)
(0 0 0)
(0 0 0)
(0 0 0)
(0 0 0)
(0 0 0)
(0 0 0)
(0 0 0)
(0 0 0)
(0 0 0)
(0 0 0)
(0 0 0)
(0 0 0)
(0 0 0)
(0 0 0)
(0 0 0)
(0 0 0)
(0 0 0)
(0 0 0)
(0 0 0)
(0 0 0)
(0 0 0)
(0 0 0)
(0 0 0)
(0 0 0)
(0 0 0)
(0 0 0)
(0 0 0)
(0 0 0)
(0 0 0)
(0 0 0)
(0 0 0)
(0 0 0)
(0 0 0)
(0 0 0)
(0 0 0)
(0 0 0)
(0 0 0)
(0 0 0)
(0 0 0)
(0 0 0)
(0 0 0)
(0 0 0)
(0 0 0)
(0 0 0)
(0 0 0)
(0 0 0)
(0 0 0)
(0 0 0)
(0 0 0)
(0 0 0)
(0 0 0)
(0 0 0)
(0 0 0)
(0 0 0)
(0 0 0)
(0 0 0)
(0 0 0)
(0 0 0)
(0 0 0)
(0 0 0)
(0 0 0)
(0 0 0)
(0 0 0)
(0 0 0)
(0 0 0)
(0 0 0)
(0 0 0)
(0 0 0)
(0 0 0)
(0 0 0)
(0 0 0)
(0 0 0)
(0 0 0)
(0 0 0)
(0 0 0)
(0 0 0)
(0 0 0)
(0 0 0)
(0 0 0)
(0 0 0)
(0 0 0)
(0 0 0)
(0 0 0)
(0 0 0)
(0 0 0)
(0 0 0)
(0 0 0)
(0 0 0)
(0 0 0)
(0 0 0)
(0 0 0)
(0 0 0)
(0 0 0)
(0 0 0)
(0 0 0)
(0 0 0)
(0 0 0)
(0 0 0)
(0 0 0)
(0 0 0)
(0 0 0)
(0 0 0)
(0 0 0)
(0 0 0)
(0 0 0)
(0 0 0)
(0 0 0)
(0 0 0)
(0 0 0)
(0 0 0)
(0 0 0)
(0 0 0)
(0 0 0)
(0 0 0)
(0 0 0)
(0 0 0)
(0 0 0)
(0 0 0)
(0 0 0)
(0 0 0)
(0 0 0)
(0 0 0)
(0 0 0)
(0 0 0)
(0 0 0)
(0 0 0)
(0 0 0)
(0 0 0)
(0 0 0)
(0 0 0)
(0 0 0)
(0 0 0)
(0 0 0)
(0 0 0)
(0 0 0)
(0 0 0)
(0 0 0)
(0 0 0)
(0 0 0)
(0 0 0)
(0 0 0)
(0 0 0)
(0 0 0)
(0 0 0)
(0 0 0)
(0 0 0)
(0 0 0)
(0 0 0)
(0 0 0)
(0 0 0)
(0 0 0)
(0 0 0)
(0 0 0)
(0 0 0)
(0 0 0)
(0 0 0)
(0 0 0)
(0 0 0)
(0 0 0)
(0 0 0)
(0 0 0)
(0 0 0)
(0 0 0)
(0 0 0)
(0 0 0)
(0 0 0)
(0 0 0)
(0 0 0)
(0 0 0)
(0 0 0)
(0 0 0)
(0 0 0)
(0 0 0)
(0 0 0)
(0 0 0)
(0 0 0)
(0 0 0)
(0 0 0)
(0 0 0)
(0 0 0)
(0 0 0)
(0 0 0)
(0 0 0)
(0 0 0)
(0 0 0)
(0 0 0)
(0 0 0)
(0 0 0)
(0 0 0)
(0 0 0)
(0 0 0)
(0 0 0)
(0 0 0)
(0 0 0)
(0 0 0)
(0 0 0)
(0 0 0)
(0 0 0)
(0 0 0)
(0 0 0)
(0 0 0)
(0 0 0)
(0 0 0)
(0 0 0)
(0 0 0)
(0 0 0)
(0 0 0)
(0 0 0)
(0 0 0)
(0 0 0)
(0 0 0)
(0 0 0)
(0 0 0)
(0 0 0)
(0 0 0)
(0 0 0)
(0 0 0)
(0 0 0)
(0 0 0)
(0 0 0)
(0 0 0)
(0 0 0)
(0 0 0)
(0 0 0)
(0 0 0)
(0 0 0)
(0 0 0)
(0 0 0)
(0 0 0)
(0 0 0)
(0 0 0)
(0 0 0)
(0 0 0)
(0 0 0)
(0 0 0)
(0 0 0)
(0 0 0)
(0 0 0)
(0 0 0)
(0 0 0)
(0 0 0)
(0 0 0)
(0 0 0)
(0 0 0)
(0 0 0)
(0 0 0)
(0 0 0)
(0 0 0)
(0 0 0)
(0 0 0)
(0 0 0)
(0 0 0)
(0 0 0)
(0 0 0)
(0 0 0)
(0 0 0)
(0 0 0)
(0 0 0)
(0 0 0)
(0 0 0)
(0 0 0)
(0 0 0)
(0 0 0)
(0 0 0)
(0 0 0)
(0 0 0)
(0 0 0)
(0 0 0)
(0 0 0)
(0 0 0)
(0 0 0)
(0 0 0)
(0 0 0)
(0 0 0)
(0 0 0)
(0 0 0)
(0 0 0)
(0 0 0)
(0 0 0)
(0 0 0)
(0 0 0)
(0 0 0)
(0 0 0)
(0 0 0)
(0 0 0)
(0 0 0)
(0 0 0)
(0 0 0)
(0 0 0)
(0 0 0)
(0 0 0)
(0 0 0)
(0 0 0)
(0 0 0)
(0 0 0)
(0 0 0)
(0 0 0)
(0 0 0)
(0 0 0)
(0 0 0)
(0 0 0)
(0 0 0)
(0 0 0)
(0 0 0)
(0 0 0)
(0 0 0)
(0 0 0)
(0 0 0)
(0 0 0)
(0 0 0)
(0 0 0)
(0 0 0)
(0 0 0)
(0 0 0)
(0 0 0)
(0 0 0)
(0 0 0)
(0 0 0)
(0 0 0)
(0 0 0)
(0 0 0)
(0 0 0)
(0 0 0)
(0 0 0)
(0 0 0)
(0 0 0)
(0 0 0)
(0 0 0)
(0 0 0)
(0 0 0)
(0 0 0)
(0 0 0)
(0 0 0)
(0 0 0)
(0 0 0)
(0 0 0)
(0 0 0)
(0 0 0)
(0 0 0)
(0 0 0)
(0 0 0)
(0 0 0)
(0 0 0)
(0 0 0)
(0 0 0)
(0 0 0)
(0 0 0)
(0 0 0)
(0 0 0)
(0 0 0)
(0 0 0)
(0 0 0)
(0 0 0)
(0 0 0)
(0 0 0)
(0 0 0)
(0 0 0)
(0 0 0)
(0 0 0)
(0 0 0)
(0 0 0)
(0 0 0)
(0 0 0)
(0 0 0)
(0 0 0)
(0 0 0)
(0 0 0)
(0 0 0)
(0 0 0)
(0 0 0)
(0 0 0)
(0 0 0)
(0 0 0)
(0 0 0)
(0 0 0)
(0 0 0)
(0 0 0)
(0 0 0)
(0 0 0)
(0 0 0)
(0 0 0)
(0 0 0)
(0 0 0)
(0 0 0)
(0 0 0)
(0 0 0)
(0 0 0)
(0 0 0)
(0 0 0)
(0 0 0)
(0 0 0)
(0 0 0)
(0 0 0)
(0 0 0)
(0 0 0)
(0 0 0)
(0 0 0)
(0 0 0)
(0 0 0)
(0 0 0)
(0 0 0)
(0 0 0)
(0 0 0)
(0 0 0)
(0 0 0)
(0 0 0)
(0 0 0)
(0 0 0)
(0 0 0)
(0 0 0)
(0 0 0)
(0 0 0)
(0 0 0)
(0 0 0)
(0 0 0)
(0 0 0)
(0 0 0)
(0 0 0)
(0 0 0)
(0 0 0)
(0 0 0)
(0 0 0)
(0 0 0)
(0 0 0)
(0 0 0)
(0 0 0)
(0 0 0)
(0 0 0)
(0 0 0)
(0 0 0)
(0 0 0)
(0 0 0)
(0 0 0)
(0 0 0)
(0 0 0)
(0 0 0)
(0 0 0)
(0 0 0)
(0 0 0)
(0 0 0)
(0 0 0)
(0 0 0)
(0 0 0)
(0 0 0)
(0 0 0)
(0 0 0)
(0 0 0)
(0 0 0)
(0 0 0)
(0 0 0)
(0 0 0)
(0 0 0)
(0 0 0)
(0 0 0)
(0 0 0)
(0 0 0)
(0 0 0)
(0 0 0)
(0 0 0)
(0 0 0)
(0 0 0)
(0 0 0)
(0 0 0)
(0 0 0)
(0 0 0)
(0 0 0)
(0 0 0)
(0 0 0)
(0 0 0)
(0 0 0)
(0 0 0)
(0 0 0)
(0 0 0)
(0 0 0)
(0 0 0)
(0 0 0)
(0 0 0)
(0 0 0)
(0 0 0)
(0 0 0)
(0 0 0)
(0 0 0)
(0 0 0)
(0 0 0)
(0 0 0)
(0 0 0)
(0 0 0)
(0 0 0)
(0 0 0)
(0 0 0)
(0 0 0)
(0 0 0)
(0 0 0)
(0 0 0)
(0 0 0)
(0 0 0)
(0 0 0)
(0 0 0)
(0 0 0)
(0 0 0)
(0 0 0)
(0 0 0)
(0 0 0)
(0 0 0)
(0 0 0)
(0 0 0)
(0 0 0)
(0 0 0)
(0 0 0)
(0 0 0)
(0 0 0)
(0 0 0)
(0 0 0)
(0 0 0)
(0 0 0)
(0 0 0)
(0 0 0)
(0 0 0)
(0 0 0)
(0 0 0)
(0 0 0)
(0 0 0)
(0 0 0)
(0 0 0)
(0 0 0)
(0 0 0)
(0 0 0)
(0 0 0)
(0 0 0)
(0 0 0)
(0 0 0)
(0 0 0)
(0 0 0)
(0 0 0)
(0 0 0)
(0 0 0)
(0 0 0)
(0 0 0)
(0 0 0)
(0 0 0)
(0 0 0)
(0 0 0)
(0 0 0)
(0 0 0)
(0 0 0)
(0 0 0)
(0 0 0)
(0 0 0)
(0 0 0)
(0 0 0)
(0 0 0)
(0 0 0)
(0 0 0)
(0 0 0)
(0 0 0)
(0 0 0)
(0 0 0)
(0 0 0)
(0 0 0)
(0 0 0)
(0 0 0)
(0 0 0)
(0 0 0)
(0 0 0)
(0 0 0)
(0 0 0)
(0 0 0)
(0 0 0)
(0 0 0)
(0 0 0)
(0 0 0)
(0 0 0)
(0 0 0)
(0 0 0)
(0 0 0)
(0 0 0)
(0 0 0)
(0 0 0)
(0 0 0)
(0 0 0)
(0 0 0)
(0 0 0)
(0 0 0)
(0 0 0)
(0 0 0)
(0 0 0)
(0 0 0)
(0 0 0)
(0 0 0)
(0 0 0)
(0 0 0)
(0 0 0)
(0 0 0)
(0 0 0)
(0 0 0)
(0 0 0)
(0 0 0)
(0 0 0)
(0 0 0)
(0 0 0)
(0 0 0)
(0 0 0)
(0 0 0)
(0 0 0)
(0 0 0)
(0 0 0)
(0 0 0)
(0 0 0)
(0 0 0)
(0 0 0)
(0 0 0)
(0 0 0)
(0 0 0)
(0 0 0)
(0 0 0)
(0 0 0)
(0 0 0)
(0 0 0)
(0 0 0)
(0 0 0)
(0 0 0)
(0 0 0)
(0 0 0)
(0 0 0)
(0 0 0)
(0 0 0)
(0 0 0)
(0 0 0)
(0 0 0)
(0 0 0)
(0 0 0)
(0 0 0)
(0 0 0)
(0 0 0)
(0 0 0)
(0 0 0)
(0 0 0)
(0 0 0)
(0 0 0)
(0 0 0)
(0 0 0)
(0 0 0)
(0 0 0)
(0 0 0)
(0 0 0)
(0 0 0)
(0 0 0)
(0 0 0)
(0 0 0)
(0 0 0)
(0 0 0)
(0 0 0)
(0 0 0)
(0 0 0)
(0 0 0)
(0 0 0)
(0 0 0)
(0 0 0)
(0 0 0)
(0 0 0)
(0 0 0)
(0 0 0)
(0 0 0)
(0 0 0)
(0 0 0)
(0 0 0)
(0 0 0)
(0 0 0)
(0 0 0)
(0 0 0)
(0 0 0)
(0 0 0)
(0 0 0)
(0 0 0)
(0 0 0)
(0 0 0)
(0 0 0)
(0 0 0)
(0 0 0)
(0 0 0)
(0 0 0)
(0 0 0)
(0 0 0)
(0 0 0)
(0 0 0)
(0 0 0)
(0 0 0)
(0 0 0)
(0 0 0)
(0 0 0)
(0 0 0)
(0 0 0)
(0 0 0)
(0 0 0)
(0 0 0)
(0 0 0)
(0 0 0)
(0 0 0)
(0 0 0)
(0 0 0)
(0 0 0)
(0 0 0)
(0 0 0)
(0 0 0)
(0 0 0)
(0 0 0)
(0 0 0)
(0 0 0)
(0 0 0)
(0 0 0)
(0 0 0)
(0 0 0)
(0 0 0)
(0 0 0)
(0 0 0)
(0 0 0)
(0 0 0)
(0 0 0)
(0 0 0)
(0 0 0)
(0 0 0)
(0 0 0)
(0 0 0)
(0 0 0)
(0 0 0)
(0 0 0)
(0 0 0)
(0 0 0)
(0 0 0)
(0 0 0)
(0 0 0)
(0 0 0)
(0 0 0)
(0 0 0)
(0 0 0)
(0 0 0)
(0 0 0)
(0 0 0)
(0 0 0)
(0 0 0)
(0 0 0)
(0 0 0)
(0 0 0)
(0 0 0)
(0 0 0)
(0 0 0)
(0 0 0)
(0 0 0)
(0 0 0)
(0 0 0)
(0 0 0)
(0 0 0)
(0 0 0)
(0 0 0)
(0 0 0)
(0 0 0)
(0 0 0)
(0 0 0)
(0 0 0)
(0 0 0)
(0 0 0)
(0 0 0)
(0 0 0)
(0 0 0)
(0 0 0)
(0 0 0)
(0 0 0)
(0 0 0)
(0 0 0)
(0 0 0)
(0 0 0)
(0 0 0)
(0 0 0)
(0 0 0)
(0 0 0)
(0 0 0)
(0 0 0)
(0 0 0)
(0 0 0)
(0 0 0)
(0 0 0)
(0 0 0)
(0 0 0)
(0 0 0)
(0 0 0)
(0 0 0)
(0 0 0)
(0 0 0)
(0 0 0)
(0 0 0)
(0 0 0)
(0 0 0)
(0 0 0)
(0 0 0)
(0 0 0)
(0 0 0)
(0 0 0)
(0 0 0)
(0 0 0)
(0 0 0)
(0 0 0)
(0 0 0)
(0 0 0)
(0 0 0)
(0 0 0)
(0 0 0)
(0 0 0)
(0 0 0)
(0 0 0)
(0 0 0)
(0 0 0)
(0 0 0)
(0 0 0)
(0 0 0)
(0 0 0)
(0 0 0)
(0 0 0)
(0 0 0)
(0 0 0)
(0 0 0)
(0 0 0)
(0 0 0)
(0 0 0)
(0 0 0)
(0 0 0)
(0 0 0)
(0 0 0)
(0 0 0)
(0 0 0)
(0 0 0)
(0 0 0)
(0 0 0)
(0 0 0)
(0 0 0)
(0 0 0)
(0 0 0)
(0 0 0)
(0 0 0)
(0 0 0)
(0 0 0)
(0 0 0)
(0 0 0)
(0 0 0)
(0 0 0)
(0 0 0)
(0 0 0)
(0 0 0)
(0 0 0)
(0 0 0)
(0 0 0)
(0 0 0)
(0 0 0)
(0 0 0)
(0 0 0)
(0 0 0)
(0 0 0)
(0 0 0)
(0 0 0)
(0 0 0)
(0 0 0)
(0 0 0)
(0 0 0)
(0 0 0)
(0 0 0)
(0 0 0)
(0 0 0)
(0 0 0)
(0 0 0)
(0 0 0)
(0 0 0)
(0 0 0)
(0 0 0)
(0 0 0)
(0 0 0)
(0 0 0)
(0 0 0)
(0 0 0)
(0 0 0)
(0 0 0)
(0 0 0)
(0 0 0)
(0 0 0)
(0 0 0)
(0 0 0)
(0 0 0)
(0 0 0)
(0 0 0)
(0 0 0)
(0 0 0)
(0 0 0)
(0 0 0)
(0 0 0)
(0 0 0)
(0 0 0)
(0 0 0)
(0 0 0)
(0 0 0)
(0 0 0)
(0 0 0)
(0 0 0)
(0 0 0)
(0 0 0)
(0 0 0)
(0 0 0)
(0 0 0)
(0 0 0)
(0 0 0)
(0 0 0)
(0 0 0)
(0 0 0)
(0 0 0)
(0 0 0)
(0.0329581 0.0364436 -0.0249097)
(0.242997 0.00666514 -0.0179993)
(0.128363 0.0812467 -0.00981582)
(0.271152 0.0934109 -0.00711388)
(0.311559 0.0304855 -0.00333325)
(0.408889 0.133045 0.00795227)
(0.433781 0.195937 0.0510439)
(0.303356 0.197657 0.0198244)
(-0.0657328 0.180227 -0.0167934)
(-0.032831 0.114361 -0.0333217)
(0.0607366 0.181555 -0.0154337)
(-0.0267953 0.241917 -0.0126436)
(0.117444 0.346238 0.0302152)
(0.206616 0.243465 0.0127216)
(0.338928 0.294213 0.0540417)
(0.252972 0.400298 0.0581911)
(0.405998 0.462887 0.075076)
(0.465982 0.288057 0.0587735)
(0.528673 0.309939 0.0853385)
(0.517914 0.500684 0.11409)
(0.583193 0.493284 0.133772)
(0.416406 0.322042 0.0601891)
(0.237805 0.234787 0.0377854)
(0.535984 0.459136 0.128497)
(0.291456 0.329383 0.0615923)
(0.104935 0.106806 0.00915927)
(-0.0370316 0.246934 -0.00250249)
(0.0123021 0.0971746 -0.0762722)
(0.0479055 0.272976 0.0267802)
(0.0342707 0.404647 0.0323541)
(0.192209 0.51504 0.0732494)
(0.134622 0.522476 0.0795594)
(0.242304 0.603291 0.0747907)
(0.29005 0.559535 0.104517)
(0.43513 0.584368 0.124417)
(0.349079 0.680584 0.0945106)
(0.421977 0.691545 0.132863)
(0.527135 0.578152 0.144508)
(0.605924 0.577236 0.129748)
(0.54405 0.634962 0.145906)
(0.592102 0.604763 0.12499)
(0.639967 0.590254 0.145029)
(0.155392 0.292435 0.0428572)
(0.620572 0.567468 0.104713)
(0.121821 0.215287 0.0211261)
(0.0516453 0.10754 -0.00978629)
(-0.0086029 0.0350618 0.00799633)
(-0.0156937 -0.0218641 -0.00058636)
(0.0522781 0.0772846 -0.0713537)
(0.16394 0.128236 -0.0412493)
(0.18355 0.155219 -0.035745)
(0.291162 0.328248 0.0346279)
(0.310695 0.657988 0.101942)
(0.367018 0.239632 0.0014995)
(0.490338 0.446791 0.0596975)
(0.406077 0.749793 0.0851489)
(0.442873 0.755234 0.0898496)
(0.356999 0.519476 0.0731821)
(0.365568 0.504732 0.040002)
(0.504317 0.743323 0.0953144)
(0 0 0)
(0.484018 0.722555 0.0668359)
(-0.0311158 0.12421 0.0330955)
(0.0818477 0.250826 0.0203411)
(0.0775046 0.153265 0.0282397)
(0.0259142 0.189643 0.0365459)
(-0.0716914 0.118458 0.0736308)
(-0.0278414 -0.0342173 0.0464367)
(-0.0145301 -0.0160932 0.0198086)
(-0.0904028 0.0846756 0.0248575)
(0.180916 0.196451 -0.0351796)
(0.332623 0.280347 -0.00861713)
(0.491772 0.414465 0.0519382)
(0.186347 0.174467 0.0466267)
(0.19401 0.117809 0.0504172)
(0.114062 -0.0659392 0.0112578)
(0.0409574 -0.0548341 0.0146202)
(0.0795484 -0.0840993 0.04169)
(-0.0509876 -0.0401463 0.0617996)
(-0.0858254 0.0198408 0.0354318)
(-0.0745771 0.0154352 0.0551237)
(-0.00195007 -0.0622142 0.0545405)
(0.0104074 -0.130166 0.0616852)
(-0.064679 -0.00528953 0.0979895)
(-0.0815696 0.0811444 0.080123)
(0.0014576 -0.0543124 0.0378469)
(0.00726111 0.00420257 0.0244972)
(-0.0762706 0.114856 0.0202851)
(0.0556815 -0.0121018 -0.0192244)
(0.0386969 -0.065841 -0.0184106)
(0.0405517 -0.0285703 0.0175468)
(0.0290603 -0.0294211 -0.0219386)
(0.0681148 -0.0586638 0.00452153)
(0.0699655 -0.0981541 -0.000936913)
(0.0535187 -0.0396769 -0.0284354)
(-0.0134917 -0.0401314 -0.0288155)
(0.0556812 0.0159909 -0.0972474)
(0.09023 -0.00697908 -0.213983)
(0.182925 0.00669512 -0.067665)
(0.119197 0.0476855 -0.0909934)
(0.205754 0.0894807 -0.0847787)
(0.0750102 0.00239953 -0.150012)
(0.101385 0.0221011 -0.183382)
(0.113535 0.0369663 -0.17468)
(0.304963 0.146011 -0.0247813)
(0.326557 0.183536 0.0371093)
(0.124498 0.0183308 -0.150339)
(0.197601 0.0572232 -0.107276)
(0.193203 0.0943176 0.0152459)
(0.233648 0.152136 0.043003)
(0.0973833 0.0653425 0.0432567)
(-0.00228513 0.0981436 -0.0992888)
(0.0551102 0.0256464 -0.237473)
(0.0995413 0.134808 -0.10152)
(0.0783776 0.182306 -0.0825561)
(0.167239 0.273395 -0.0138924)
(0.0686316 0.026969 -0.277793)
(0.135086 0.0834914 -0.220763)
(0.145601 0.117292 -0.196192)
(0.171174 0.18965 -0.0923303)
(0.232071 0.207801 0.0736593)
(0.46805 0.418948 0.179223)
(0.34891 0.326326 0.131338)
(0.167479 0.121987 0.131821)
(0.0799332 0.073208 0.103191)
(0.353335 0.293596 0.228561)
(0.230179 0.214271 0.179906)
(0.208563 0.237646 0.0767618)
(0.118796 0.186227 0.111922)
(0.0600542 0.143615 -0.0448864)
(0.0245043 0.0842602 -0.132898)
(0.137137 0.164371 -0.0324396)
(0.107043 0.0673229 -0.188943)
(0.0232171 0.0633736 -0.259898)
(0.148828 0.113791 -0.149346)
(-0.0210131 0.168544 0.035171)
(-0.015621 0.134074 0.0379958)
(0.0422542 0.176784 0.0236714)
(0.00289124 0.171629 0.017752)
(0.00769695 0.118675 0.00212656)
(0.176101 0.145856 -0.120876)
(0.159163 0.158197 -0.150631)
(0.0434678 0.112506 -0.343452)
(0.158927 0.139496 -0.236618)
(0.114009 0.133131 -0.265969)
(-0.0199514 0.085324 0.0590029)
(-0.0691746 0.15135 -0.0145906)
(-0.0520404 0.154011 0.0230287)
(-0.0205805 0.103895 0.0233385)
(-0.0498332 0.19604 -0.0502411)
(0.135674 0.174695 -0.123206)
(0.0744214 0.099208 -0.185861)
(0.36773 0.331894 0.095475)
(0.185716 0.166736 0.0991855)
(0.22158 0.183259 0.14689)
(0.0716864 0.0324731 -0.0736294)
(0.239891 0.217976 0.173859)
(0.127474 0.092752 0.108851)
(0.211456 0.148749 0.176233)
(-0.0415846 0.0822932 0.137835)
(0.0631882 -0.104528 0.0588296)
(0.0473008 -0.0468761 0.0675524)
(0.0394459 0.122514 0.24649)
(0.0867291 0.0809047 0.239125)
(0.117797 -0.0738441 0.12878)
(0.097424 -0.0760726 0.124482)
(-0.0510303 0.176819 0.0182179)
(0.100647 0.0554403 0.0246688)
(0.14937 0.0895977 0.086139)
(0.0862991 -0.102309 0.0992914)
(0.118321 -0.0374015 -0.0378357)
(0.160495 0.0420038 0.0730091)
(0.119052 -0.106213 0.0919564)
(0.110606 -0.0154886 -0.0457575)
(0.144722 -0.122483 0.0777873)
(0.136154 -0.0513482 -0.0582785)
(0.172429 -0.110937 0.111886)
(0.213924 -0.132064 0.0709038)
(0.114183 -0.0196751 -0.0698373)
(0.233459 -0.151245 -0.00389529)
(0.100313 -0.0488759 -0.323152)
(0.097704 -0.109093 -0.556913)
(-0.0063092 -0.0186559 -0.205904)
(0.0773592 -0.0238653 -0.251727)
(0.0206233 -0.072921 -0.250367)
(-0.0515428 0.0133556 -0.527231)
(0.0767599 -0.151042 -0.540462)
(-0.0216838 -0.143655 -0.449647)
(0.0677302 -0.112958 -0.213678)
(0.13229 -0.0410102 -0.0676887)
(-0.0282267 -0.0384027 -0.279388)
(0.0179596 -0.168322 -0.257103)
(0.112721 -0.133663 -0.0977086)
(0.0586741 -0.00745824 -0.0435263)
(0.129996 -0.0678002 0.00906991)
(0.0629702 -0.016314 -0.411235)
(0.0301974 -0.0468664 -0.600848)
(0.104844 -0.0114662 -0.323357)
(0.119481 0.0226405 -0.367774)
(0.00327576 0.0578911 -0.160876)
(0.0619095 -0.0795398 -0.550486)
(0.0241757 -0.135095 -0.513766)
(0.04089 -0.076632 -0.55551)
(-0.143254 -0.00846801 -0.144475)
(0.0110134 0.00183151 0.0850996)
(0.237772 0.106125 0.271205)
(0.0804051 0.085397 0.207584)
(0.161433 -0.0663393 0.151122)
(0.0376598 -0.00607651 0.0750213)
(0.163196 -0.0513627 0.236638)
(0.042344 0.0352421 0.198196)
(0.0490032 0.104436 0.125156)
(0.0211462 0.0562742 0.110758)
(0.0920284 0.0170235 -0.379245)
(0.0290029 0.0666666 -0.419658)
(0.0990211 0.0553095 -0.358646)
(0.0177101 -0.0262784 -0.578388)
(-0.00815676 0.0115825 -0.611281)
(0.0140387 -0.00280421 -0.584425)
(0.0327122 0.136735 0.0408399)
(0.0150962 0.0810988 0.0136302)
(0.0372189 0.107407 0.112574)
(0.0695896 0.122008 0.0929984)
(0.0267203 0.0857154 0.0588523)
(0.0533384 0.0794257 -0.501276)
(0.000576098 0.0733567 -0.479475)
(-0.00771707 0.0191553 -0.672692)
(-0.0133055 0.0215763 -0.577568)
(-0.0562329 0.00907466 -0.412678)
(-0.0151983 0.0800657 0.0130606)
(-0.0305731 0.181209 -0.0852568)
(0.0294085 0.113087 0.00400216)
(-0.00110481 0.0939273 0.0418453)
(-0.000483382 0.132766 -0.0927764)
(-0.0417087 -0.0216145 -0.227231)
(-0.057047 0.00507929 -0.246409)
(0.17031 0.183522 0.263996)
(0.0720056 0.036528 0.0341571)
(0.174029 0.0981337 0.146556)
(-0.0440154 -0.0160861 -0.0501476)
(0.102284 0.117336 0.275177)
(0.0264741 0.0057833 -0.0503162)
(0.117255 0.0629476 0.110906)
(0.159689 0.182704 0.28642)
(0.161471 0.0243711 0.194147)
(0.171327 -0.0730422 0.166045)
(0.142191 0.292055 0.338806)
(0.181611 0.214163 0.338625)
(0.197725 0.106003 0.227077)
(0.267392 -0.0748209 0.14366)
(0.113393 0.177992 0.181404)
(0.13087 0.0759177 0.0877622)
(0.0784733 0.0390407 0.0709565)
(0.156567 0.000726499 0.130125)
(0.094314 0.00162942 -0.019675)
(0.143316 0.0532941 0.118681)
(0.165111 0.0164295 0.160377)
(0.0814933 0.00917431 0.0175339)
(0.19719 -0.0548247 0.0411977)
(0.0755075 -0.00732673 -0.0368815)
(0.13561 0.0305035 0.169845)
(0.160755 0.0289515 0.104865)
(0.0569383 -0.00201374 0.00134635)
(0.210223 -0.055581 -0.00587161)
(0.0949169 -0.145075 -0.527568)
(0.0319173 -0.164246 -0.510985)
(-0.0762302 0.0512299 -0.452658)
(0.0570545 -0.043249 -0.530129)
(-0.025647 -0.0239323 -0.450793)
(-0.0180324 -0.0237467 -0.445715)
(0.00124675 -0.112929 -0.489469)
(-0.0875815 0.000262917 -0.48348)