/*--------------------------------*- C++ -*----------------------------------*\
| =========                 |                                                 |
| \\      /  F ield         | OpenFOAM: The Open Source CFD Toolbox           |
|  \\    /   O peration     | Version:  5.x                                   |
|   \\  /    A nd           | Web:      www.OpenFOAM.org                      |
|    \\/     M anipulation  |                                                 |
\*---------------------------------------------------------------------------*/
FoamFile
{
    version     2.0;
    format      ascii;
    class       surfaceScalarField;
    location    "9.55";
    object      phi;
}
// * * * * * * * * * * * * * * * * * * * * * * * * * * * * * * * * * * * * * //

dimensions      [0 3 -1 0 0 0 0];

internalField   nonuniform List<scalar> 
29271
(
-8.58664e-06
8.36786e-07
1.64813e-06
6.17085e-06
-1.23539e-05
1.61279e-06
4.98949e-06
5.97491e-06
-4.10889e-05
-5.41216e-06
-6.16879e-06
3.83718e-06
1.27321e-05
3.61005e-05
-4.63439e-05
-8.14583e-07
8.12226e-06
-7.3173e-06
1.17631e-05
3.45904e-05
-3.87059e-05
-3.71483e-06
-2.66894e-06
1.25766e-05
2.66565e-05
5.85657e-06
-5.34457e-05
-6.12942e-06
-2.08051e-05
1.64153e-05
-6.9327e-06
7.08976e-05
-4.41569e-05
-1.35718e-05
-9.63699e-07
-8.60534e-06
-3.06794e-06
7.03657e-05
-4.74768e-05
-1.29017e-05
6.52832e-06
-3.2138e-06
3.3438e-06
5.37202e-05
-5.30209e-05
-1.39044e-05
-2.28915e-06
1.94407e-07
7.29538e-06
6.17247e-05
-4.22415e-05
-7.62054e-06
1.77428e-05
4.03825e-05
-8.27226e-06
-7.43144e-06
-7.79053e-07
4.9319e-06
3.47458e-06
-4.47315e-05
-5.00578e-06
1.21329e-05
6.29091e-06
-4.5432e-06
3.58567e-05
-5.66822e-05
1.52294e-05
-2.69408e-06
5.83603e-07
-1.02041e-05
5.37673e-05
-3.04727e-05
7.17106e-06
2.27514e-06
2.28879e-06
-3.3257e-06
2.20634e-05
-4.89051e-05
-3.93892e-06
-8.74793e-06
4.84894e-06
-8.44576e-06
6.51888e-05
-4.77608e-05
-3.23371e-06
1.41656e-07
-5.67448e-06
5.83579e-05
-1.83051e-06
-3.0765e-05
-2.77342e-07
2.33178e-06
-3.70215e-06
2.72498e-05
5.16293e-06
-5.69143e-05
-2.14373e-06
6.19061e-06
1.03039e-06
-3.57484e-06
5.54119e-05
-6.45871e-05
2.73244e-06
6.04129e-07
-4.30879e-06
-8.49727e-06
7.40565e-05
-5.85395e-05
2.72736e-06
-1.21405e-05
6.56402e-05
7.64695e-06
-5.33448e-06
-1.27359e-05
6.17233e-06
2.63321e-06
4.09247e-06
-3.21775e-05
-1.84225e-06
-3.62274e-06
3.33987e-05
4.49977e-06
-2.89682e-05
2.25132e-06
5.21722e-07
-1.84352e-06
1.63603e-05
1.16784e-05
-9.652e-06
5.6844e-06
-1.65065e-06
5.90818e-06
-7.66426e-06
-6.05487e-07
4.45189e-07
7.85861e-06
-2.27796e-06
1.2249e-06
-5.56237e-07
1.58974e-06
2.97144e-06
-1.78326e-06
-3.73942e-05
-2.86879e-06
-2.59073e-07
3.93339e-05
1.18046e-05
-2.73772e-05
2.70801e-07
-2.37902e-06
-6.55018e-06
2.4231e-05
-2.14856e-05
3.24154e-06
-1.20461e-06
-6.72267e-06
2.56702e-05
5.01074e-07
-3.69854e-06
-2.0769e-06
-7.67219e-05
7.04931e-06
-6.34577e-07
7.60826e-05
-3.96402e-05
-1.53198e-05
0.000329921
-8.6756e-05
-4.67497e-05
-9.17202e-05
-9.86042e-05
2.96408e-06
1.47148e-06
1.82377e-05
6.50842e-06
2.20417e-06
3.21203e-06
5.67012e-06
8.60121e-06
1.16619e-05
1.36028e-05
8.54816e-05
-4.67305e-05
-3.78594e-05
-4.32069e-05
-3.06905e-05
2.59815e-07
6.8117e-07
1.38765e-06
5.77221e-06
-2.99096e-06
1.68151e-05
0.000149061
5.95863e-07
3.38931e-06
8.93221e-06
4.21744e-06
2.46666e-06
-1.06695e-06
9.70739e-07
-6.10981e-05
-2.15298e-05
-3.10585e-05
-5.70417e-05
-3.63323e-05
3.28961e-06
-9.86738e-07
3.10232e-05
-1.41972e-06
1.00702e-06
-7.13208e-08
5.61224e-07
-1.12281e-05
-3.91544e-05
2.6025e-06
3.03209e-06
-5.60859e-06
5.03566e-05
-9.50289e-06
6.30165e-06
0.000156342
-5.26435e-05
-4.62509e-05
-5.59645e-05
-2.80537e-05
2.57257e-06
-2.17037e-06
1.00202e-05
4.02993e-06
1.5482e-05
2.8184e-05
9.75044e-05
-1.96238e-05
-3.62957e-05
-3.67114e-05
-4.44395e-05
-1.72332e-06
2.60222e-08
0.000318918
-5.22874e-06
-1.18636e-06
-3.0998e-06
7.02997e-07
1.06054e-05
3.30512e-06
-7.65068e-05
-6.78909e-05
-5.99175e-05
-8.57065e-05
-6.01248e-05
-4.03524e-06
-1.68484e-06
4.77647e-06
5.93451e-05
-2.11625e-05
-2.12052e-06
5.25883e-06
1.38735e-06
1.61922e-05
4.44651e-07
1.53421e-05
3.57623e-07
0.000216104
-4.58546e-06
-1.54078e-06
2.77376e-06
4.90237e-06
4.27595e-06
3.69418e-06
6.74382e-06
-6.30996e-05
-6.01572e-05
-5.72839e-05
-6.12246e-05
-5.20863e-06
2.23822e-06
0.000236595
-2.65768e-08
-5.92149e-07
4.99213e-06
2.06829e-06
2.85275e-06
2.98869e-06
-7.82117e-05
-3.74206e-05
-5.54635e-05
-3.12863e-05
-8.57674e-05
-1.53755e-05
-9.38987e-07
9.68992e-05
-9.21387e-07
-2.41913e-06
1.92077e-06
1.42476e-06
-2.79964e-05
1.67947e-06
2.3627e-06
2.43325e-05
-5.53418e-06
-3.75374e-07
7.64869e-07
4.24958e-07
6.95795e-06
-4.80384e-06
2.78633e-06
-3.7299e-06
5.73874e-06
-6.05405e-06
-1.35986e-06
3.6277e-06
3.79004e-06
-2.75551e-06
-6.76611e-07
-2.38403e-06
5.67967e-06
1.6755e-05
-1.58227e-06
-4.25186e-05
1.1206e-05
-3.16413e-05
4.77811e-05
2.66253e-06
-2.14953e-05
-3.40141e-06
-3.41502e-08
-5.3724e-06
2.76407e-05
-3.5559e-05
1.00375e-05
-4.28587e-06
-1.59845e-05
4.3108e-05
2.68389e-06
6.60292e-06
1.40873e-05
-7.22629e-05
-1.78391e-05
2.55022e-06
6.68616e-05
-8.02287e-06
-2.58411e-05
0.000236112
3.10003e-05
1.52061e-05
2.24909e-05
1.63357e-05
9.17472e-06
8.29974e-06
1.13288e-05
1.3837e-05
9.65046e-07
-6.07271e-06
4.99079e-05
4.85573e-06
5.17921e-06
1.27766e-05
9.84689e-06
-3.18276e-06
-1.4456e-05
0.000136823
5.58589e-06
1.1469e-05
9.53693e-06
2.17588e-05
-1.1617e-05
-8.10275e-07
-5.0818e-06
-2.90762e-05
1.06454e-05
-1.50349e-05
3.03411e-05
-4.68102e-07
1.79937e-07
-4.00145e-07
6.5189e-07
2.81383e-06
-7.03943e-05
-6.02436e-06
-1.37389e-05
-4.63102e-06
9.19748e-05
-2.52025e-06
4.65401e-06
8.90019e-05
9.88932e-06
6.44624e-06
1.58718e-05
7.15758e-06
-1.34387e-05
3.36647e-06
9.89837e-05
-7.23163e-06
7.52199e-06
0.000281916
-7.19443e-06
-7.60366e-06
-3.33629e-06
5.12744e-06
1.49333e-05
6.88981e-06
-5.56328e-05
2.56667e-06
-7.87395e-06
7.20435e-06
4.65041e-05
-1.63671e-05
1.54071e-06
-3.44674e-06
-4.3229e-07
1.44444e-05
4.26101e-06
4.2367e-06
-5.98688e-07
0.000204073
1.12483e-06
2.91339e-06
2.88903e-06
4.29498e-06
3.51712e-07
3.47346e-07
1.12546e-06
-2.67094e-06
2.99709e-06
0.000212898
5.13008e-06
7.07267e-06
5.79208e-06
3.17109e-06
6.29814e-06
3.50983e-06
-0.000111596
-5.55743e-06
2.69022e-07
0.000121735
-3.16701e-06
-6.78902e-06
4.9492e-06
4.99848e-06
-2.27278e-05
-2.1648e-07
4.85206e-06
1.75341e-05
-1.32615e-05
-2.84064e-06
-1.6877e-06
-1.38648e-06
2.21734e-05
-4.35901e-06
1.16493e-06
2.44391e-07
2.89934e-06
-2.35676e-06
4.62501e-07
7.71684e-07
1.13147e-06
-1.18712e-05
-1.48752e-08
-3.27394e-06
1.51658e-05
6.94429e-06
3.22315e-06
-5.12862e-05
2.1984e-06
-1.2984e-05
5.19045e-05
-3.71369e-06
-4.22957e-05
-2.33721e-06
-6.40424e-06
-6.66108e-06
6.14119e-05
-5.63896e-05
4.7403e-06
-2.00656e-05
-1.37351e-05
7.13719e-05
1.40781e-05
9.96761e-06
4.20407e-06
-7.14474e-05
-1.67239e-05
-8.4148e-06
8.24145e-05
9.0283e-07
-2.39058e-06
0.000149711
6.49645e-06
8.66026e-06
2.01031e-05
1.56094e-05
5.48646e-06
4.11349e-06
1.63592e-05
1.10603e-05
-7.12906e-06
-4.33015e-06
4.19352e-05
7.5276e-06
4.39425e-06
5.92444e-06
2.48846e-06
-7.15122e-06
-1.88383e-05
0.000133014
9.89286e-06
1.41614e-05
4.87244e-06
7.92368e-06
-4.35814e-06
-5.47632e-06
-4.34622e-06
-3.22971e-05
1.45747e-05
-1.38788e-05
2.44515e-05
-1.27329e-06
2.44042e-07
-1.79704e-06
2.75012e-06
1.38499e-05
-0.000106456
5.5818e-07
-9.2136e-06
2.11213e-06
9.91499e-05
-6.66644e-07
-9.28528e-06
7.85022e-05
6.66592e-06
2.03493e-06
6.8897e-06
2.47044e-06
-3.07434e-05
-3.01361e-05
0.000154866
-5.01125e-06
-1.05087e-06
0.000245967
-2.67545e-06
-3.07733e-06
-1.7503e-06
-2.23368e-06
3.05207e-06
-8.85748e-07
-3.9075e-05
6.70782e-06
-4.90605e-07
9.44108e-07
2.69024e-05
-1.37566e-05
3.79607e-06
-4.72051e-06
-4.01304e-06
1.74125e-05
1.28166e-06
-1.60208e-05
-4.55334e-06
0.000221214
1.75501e-06
1.41106e-06
2.38567e-06
2.32987e-06
-6.4196e-06
-2.96629e-06
-4.34854e-06
-2.44821e-06
-4.66471e-07
0.000166925
-5.97878e-07
1.7842e-06
-5.21919e-07
-5.79929e-08
1.15318e-06
9.7148e-07
-0.000146335
-5.78809e-06
-3.17261e-06
0.000151797
-6.16571e-06
-1.41758e-06
2.80253e-06
4.78634e-06
-1.39209e-05
7.22489e-07
-8.3444e-07
9.51151e-06
-3.31701e-05
-1.12523e-06
3.84682e-07
7.09346e-07
3.27349e-05
-2.13906e-06
-8.18015e-07
1.01719e-06
1.84645e-06
-6.56304e-07
9.08071e-07
-5.16287e-07
2.67404e-07
-1.42571e-05
-1.51082e-06
5.7482e-06
1.00267e-05
-5.37456e-06
6.28262e-06
-6.49488e-05
-9.0868e-06
-4.66878e-06
7.77963e-05
-9.34781e-06
-7.59566e-05
1.35873e-05
-1.49394e-05
7.56033e-06
7.90962e-05
-7.55702e-05
1.37342e-08
-1.4412e-05
3.2991e-07
7.65273e-05
1.31113e-05
-5.78648e-08
2.02304e-06
-9.72732e-05
-6.85009e-06
-7.53752e-06
0.000109696
-6.95482e-06
-3.21076e-06
0.000134021
7.88951e-06
-2.14102e-06
-3.14819e-06
-6.64054e-06
1.31294e-05
6.68772e-06
4.67703e-06
5.40147e-06
-1.69673e-05
-8.68579e-06
7.94267e-05
-2.83199e-06
-3.02615e-06
-5.0404e-06
-7.89468e-06
-6.02686e-06
-1.46105e-05
0.000148402
1.27055e-07
1.23786e-06
-1.10166e-06
-7.54412e-07
-6.13629e-06
-2.46073e-06
-2.63033e-06
-1.68732e-05
1.83083e-06
-7.45973e-07
9.74627e-06
-8.10973e-06
2.16759e-06
-8.2141e-06
1.41582e-05
6.68074e-06
-7.16387e-05
9.99485e-06
1.18315e-06
6.19938e-08
5.37179e-05
-1.6483e-05
-2.98411e-05
0.000128661
-1.49865e-06
-3.65111e-06
9.09026e-07
-2.80472e-06
-3.88187e-05
-2.042e-05
0.000188936
-4.18992e-06
-6.42006e-06
0.000212445
-1.92944e-06
-1.9709e-06
-3.55104e-07
-3.67677e-06
6.57922e-07
-2.02323e-06
-1.81456e-05
7.70736e-07
1.42853e-06
4.81749e-07
1.12747e-05
-2.03203e-05
4.80701e-06
-2.10102e-06
-2.4719e-06
2.33885e-05
-3.30228e-06
-6.76368e-06
-2.01859e-06
0.000181433
3.05791e-06
3.81784e-06
8.94093e-06
5.9051e-06
-2.38817e-06
-1.10216e-06
4.91147e-07
-1.07654e-05
1.21709e-06
0.000137807
-1.8211e-06
-2.47217e-06
7.8742e-07
1.7363e-06
4.06211e-06
9.19076e-06
-0.000157663
1.75249e-07
1.13199e-05
0.000128982
-3.59759e-06
4.49047e-07
-1.2704e-06
4.38493e-06
-6.84371e-06
6.31697e-07
3.52175e-07
3.83182e-06
-2.9923e-05
-3.24091e-06
3.64617e-06
1.90923e-06
2.88256e-05
-3.64564e-06
-4.83079e-06
3.17858e-08
8.34399e-06
-3.02327e-07
-3.80406e-07
4.50405e-10
6.6183e-07
-7.07867e-06
-6.98734e-06
8.19848e-06
5.8868e-06
-1.78075e-05
1.36723e-05
-8.51145e-05
-1.24282e-05
1.53731e-05
8.63048e-05
-1.11752e-05
-6.96196e-05
5.03408e-06
-1.46267e-07
1.47433e-05
6.11636e-05
-7.18261e-05
-1.02597e-05
-1.7184e-06
1.50797e-05
6.73411e-05
1.38338e-06
-1.15081e-05
8.59724e-06
-0.000116727
-2.76911e-06
1.43109e-06
0.000120976
4.92825e-06
-6.27671e-06
0.000166254
-7.96176e-06
-1.16275e-05
-1.08646e-05
-1.06254e-05
1.17076e-06
3.3372e-06
2.97429e-07
5.38945e-06
-2.15168e-07
-5.08734e-06
0.000127272
-7.64483e-06
-1.25359e-05
-6.25957e-06
-1.11739e-05
4.83904e-07
-9.80688e-06
0.000185897
-9.61916e-06
-3.93465e-06
-9.71345e-06
-4.20203e-06
-8.15039e-07
-3.11439e-07
2.08454e-07
-6.02838e-06
2.95312e-07
3.44298e-07
-1.45127e-06
7.32394e-06
-1.34332e-07
1.73653e-08
-4.35757e-08
1.59041e-07
-1.45484e-05
-6.83563e-07
2.70582e-06
1.25213e-05
-3.2448e-06
-5.13034e-05
1.51503e-06
-2.58362e-06
-1.01988e-06
5.66366e-05
-2.85786e-05
-2.30707e-05
0.000166259
1.45296e-06
-1.22646e-06
4.87325e-06
2.67506e-06
-1.27941e-05
4.88702e-06
0.000163177
-1.40099e-06
-2.11533e-06
0.000198964
-4.9771e-07
-1.15063e-06
2.93046e-08
-1.03668e-06
-5.31641e-07
-2.41611e-06
-9.72101e-06
-3.37416e-07
-2.29333e-06
1.92183e-06
9.02894e-06
-3.91456e-08
-3.56016e-07
5.29584e-08
6.20399e-08
2.77368e-07
-3.01388e-05
-3.00524e-06
-1.98802e-06
-3.66815e-06
3.40295e-05
4.77078e-06
1.38343e-06
1.06235e-06
0.00012565
5.29845e-06
2.41088e-06
6.28938e-06
3.90082e-06
1.9046e-06
6.3151e-06
4.14767e-06
-6.94051e-07
1.27003e-06
0.00014076
1.04249e-06
1.0528e-06
-1.19047e-06
4.98681e-06
-3.07628e-06
-7.45274e-08
-9.13798e-05
1.19512e-05
1.22455e-05
6.43737e-05
-8.9289e-06
2.09888e-06
-1.03857e-05
1.72191e-05
-8.21843e-07
6.69649e-07
1.25425e-07
9.28454e-07
-3.46276e-05
-2.18769e-06
-1.79528e-07
1.01668e-06
3.72482e-05
-1.92875e-05
-1.28279e-05
2.71457e-06
2.93939e-05
-1.74191e-06
-4.28014e-07
-3.32742e-07
2.44236e-06
-6.11531e-06
-1.92556e-06
2.38344e-06
5.65653e-06
-7.04805e-06
4.21118e-06
-7.85857e-05
-2.46569e-06
1.22921e-05
7.15962e-05
-7.15319e-06
-5.9705e-05
-1.05446e-07
1.20856e-06
6.15756e-06
5.95976e-05
-6.23845e-05
-4.00163e-06
1.96478e-07
1.04922e-05
5.44736e-05
1.22385e-06
-7.23136e-06
7.30789e-06
-0.000123297
-3.21382e-06
3.59127e-06
0.000122843
8.42074e-06
-9.31642e-06
0.000183987
-9.5169e-06
-8.34951e-06
-6.77596e-06
1.44679e-07
-2.98583e-07
3.21706e-06
3.13101e-07
4.42853e-06
1.19311e-05
-8.48263e-06
0.000144987
-1.90016e-06
-1.04032e-05
4.52316e-06
-4.96296e-06
7.25274e-07
-1.37345e-05
0.000224366
-9.77523e-06
-6.80857e-07
-7.3383e-06
3.91461e-07
1.65591e-06
2.9927e-07
1.91911e-06
-8.82678e-06
1.73274e-06
1.14425e-06
-1.88965e-06
8.56471e-06
-1.26886e-07
-5.4542e-08
-3.88125e-07
-1.52165e-07
-2.80545e-07
1.00226e-06
-1.09098e-05
-1.29918e-06
1.76507e-06
1.0445e-05
5.09216e-07
-6.37921e-05
-1.31972e-06
-6.97407e-06
1.28887e-06
7.02878e-05
-8.66953e-06
-1.54856e-06
0.000149416
4.0224e-06
1.08634e-06
7.19072e-06
5.44548e-06
1.20331e-05
8.76157e-06
0.00012523
1.68249e-06
-3.70116e-06
0.000205246
1.8016e-06
3.0154e-07
-1.46297e-07
-2.59428e-06
-2.13998e-06
-3.18677e-06
-9.37561e-06
3.63086e-06
1.20819e-06
-3.73546e-06
9.95451e-06
-1.2631e-09
8.69032e-07
1.70954e-06
-2.39979e-06
-1.15858e-06
9.81056e-07
-3.56054e-05
-1.11942e-06
-1.58038e-06
1.52172e-06
3.52337e-05
1.54977e-06
-9.91038e-07
1.64252e-06
0.000109001
3.41893e-06
1.64114e-06
2.7238e-06
7.11601e-07
1.16249e-06
2.83005e-06
1.96024e-06
-1.57834e-06
-9.26435e-07
0.000143876
6.77846e-07
1.53777e-06
2.2488e-06
2.1189e-07
1.83449e-06
6.48674e-07
-6.3188e-05
-2.43579e-06
-1.18495e-06
6.15292e-05
-1.2572e-05
6.88371e-07
3.15408e-06
-1.49409e-07
8.87892e-06
1.08299e-06
8.44385e-07
-1.46545e-06
-4.61897e-07
-5.43012e-06
-1.93847e-06
8.13564e-07
8.19818e-06
-3.66279e-05
1.24847e-07
1.03452e-06
-1.88168e-06
3.64238e-05
-3.1235e-05
1.21288e-06
-8.43147e-07
3.08653e-05
-9.49875e-07
-1.2315e-07
4.97293e-07
5.76648e-07
-4.6431e-06
2.07921e-06
-1.70816e-06
4.27177e-06
-1.9526e-06
1.37465e-06
-6.64445e-05
-2.5168e-06
5.77631e-06
6.37629e-05
-7.3305e-07
-6.15496e-05
6.86013e-07
-4.89535e-07
-5.03441e-07
6.25896e-05
-4.32557e-05
1.09252e-06
6.41107e-07
6.23005e-06
3.28209e-05
2.47118e-06
-3.39038e-06
4.94982e-06
-0.000122216
-3.78388e-06
3.28115e-06
0.00012116
8.44603e-06
-8.75036e-06
0.000185558
-5.0717e-06
1.21116e-06
-3.67893e-06
3.24692e-06
-6.01065e-07
1.29624e-06
-8.0979e-08
2.41143e-06
6.52827e-06
-6.57e-06
0.000151783
4.48562e-06
-5.84132e-06
5.68083e-06
-2.63309e-06
2.09375e-06
-1.19309e-05
0.00024042
-7.21258e-06
1.77968e-06
-4.5493e-06
3.01934e-06
2.07999e-06
2.41369e-06
2.78105e-06
-1.29113e-05
1.38348e-06
2.68029e-07
-3.97225e-06
1.73258e-05
-2.06809e-06
5.33886e-09
1.09743e-06
-4.67271e-07
7.61724e-07
6.70866e-07
-1.04342e-05
-1.58738e-06
1.81229e-06
1.0216e-05
2.89901e-06
-7.65696e-05
-1.96606e-06
-8.63067e-06
2.46379e-06
8.18035e-05
7.32417e-07
-8.69526e-07
0.000124626
4.03138e-06
2.49004e-06
5.66295e-06
3.99171e-06
6.36266e-06
2.45016e-06
0.00011058
-1.29095e-07
-3.45912e-06
0.000205946
1.5712e-06
8.06732e-07
3.41941e-06
-3.47353e-06
-1.39033e-06
-3.61416e-06
-1.13475e-05
3.56116e-06
-1.48041e-06
-4.2758e-06
1.34135e-05
-3.25304e-06
6.20034e-08
4.7067e-07
-6.76713e-07
-1.11441e-06
4.5115e-06
-3.59074e-05
-1.0276e-06
-1.91532e-06
2.41988e-06
3.77235e-05
-1.29304e-06
2.207e-06
3.35372e-06
9.34642e-05
1.64032e-06
6.47623e-08
2.04085e-06
-2.84249e-07
2.4975e-06
1.75245e-06
1.39532e-06
1.28361e-06
9.83771e-07
0.000137152
2.36163e-06
2.87384e-06
2.66475e-06
-2.60928e-07
1.46903e-06
5.17947e-09
-5.88627e-05
5.14315e-06
-9.88106e-07
5.25321e-05
-7.73661e-06
4.8548e-06
-5.49258e-06
1.41106e-06
6.96332e-06
1.59967e-06
4.70576e-07
2.74251e-07
-5.33535e-07
-1.81097e-06
-1.19586e-05
-1.63272e-06
1.57561e-06
1.53694e-05
-3.72253e-05
5.19566e-07
9.85929e-07
-1.11642e-06
3.782e-05
-2.97108e-05
5.06488e-06
-2.15614e-06
2.6802e-05
-1.70551e-06
-1.54996e-06
6.24692e-07
2.62946e-06
-4.90072e-06
2.40254e-06
-3.93982e-06
6.43865e-06
1.02116e-06
1.42787e-06
-6.09357e-05
-3.06654e-06
2.93758e-06
5.86157e-05
1.79288e-06
-6.28575e-05
4.30877e-07
6.9495e-07
-2.92988e-06
6.28687e-05
-2.70229e-05
4.75485e-07
-3.59549e-06
2.47734e-06
2.53027e-05
2.3629e-06
-1.13405e-06
3.21084e-06
-0.000119565
-2.19312e-06
3.27988e-06
0.000116402
5.1653e-06
-1.27206e-05
0.000190953
-2.83856e-06
3.13635e-06
-1.56579e-06
4.41454e-06
-8.45064e-07
-2.33635e-07
-9.47285e-07
1.0397e-06
-1.19564e-06
-7.49593e-06
0.000158636
4.80778e-06
-3.5469e-06
6.24851e-06
-5.06095e-07
2.15794e-06
-1.31584e-05
0.000246055
-4.92518e-06
4.18737e-06
-2.66818e-06
3.64358e-06
2.37611e-06
1.31412e-07
1.42499e-06
-2.48307e-05
5.79073e-06
6.10409e-07
-4.07316e-06
2.46607e-05
2.21605e-06
-1.74074e-06
3.11655e-06
-2.2904e-06
-1.30146e-06
-1.01017e-05
-1.473e-06
1.23968e-06
1.03367e-05
4.66241e-06
-8.60575e-05
-2.40862e-06
-7.85938e-06
3.37851e-06
8.82846e-05
4.09396e-06
-1.47361e-05
0.000112531
2.40729e-06
1.55903e-06
3.39327e-06
2.65745e-06
1.81926e-06
-2.49164e-06
0.00010785
1.18573e-06
-3.16286e-06
0.000201076
3.16188e-06
1.45374e-06
1.54994e-06
-3.73917e-06
-1.82497e-06
-5.09358e-06
-1.62636e-05
4.6324e-06
1.05108e-06
-6.13588e-06
1.79017e-05
-2.99769e-06
1.66796e-06
-3.15836e-06
3.22582e-06
1.4076e-07
1.12151e-06
-4.03978e-05
-1.71992e-06
-1.69925e-06
2.95986e-06
4.34195e-05
-2.56238e-06
5.62296e-06
-1.11972e-06
7.68795e-05
1.08078e-06
-1.01773e-06
1.87406e-06
-1.00776e-06
-7.95939e-07
-1.67634e-06
-1.11177e-06
1.61893e-06
1.18398e-06
0.000127703
2.54298e-06
2.7478e-06
2.53093e-06
-5.14452e-08
1.44576e-06
5.61362e-07
-5.02318e-05
4.70606e-06
-2.04218e-06
4.6024e-05
-4.75593e-06
4.60156e-06
-7.12539e-06
7.27976e-06
-1.70378e-05
-1.09752e-06
3.16503e-07
1.66991e-05
-3.88595e-05
9.28755e-07
1.01103e-06
-8.3335e-07
3.8937e-05
-2.37445e-05
4.91494e-06
-2.66354e-06
2.14931e-05
-3.2347e-06
-1.71324e-06
1.22247e-06
3.72548e-06
-8.56838e-06
3.85774e-06
-5.98028e-06
1.06889e-05
1.39266e-06
1.20007e-06
-5.71044e-05
-3.06325e-06
7.05489e-07
5.68694e-05
2.9242e-06
-6.33598e-05
4.28023e-07
1.01381e-06
-4.53243e-06
6.35262e-05
-2.49802e-05
1.84738e-06
-5.25759e-06
5.21179e-07
2.53255e-05
2.54373e-06
1.18268e-06
2.30766e-06
-0.00011138
-5.82223e-07
2.73716e-06
0.000105735
4.62932e-06
-1.52371e-05
0.000196514
-6.58639e-07
3.97238e-06
5.04933e-07
5.4523e-06
-1.44865e-06
-1.37353e-06
-1.24155e-06
-1.60089e-07
-3.70398e-06
-9.2821e-06
0.000164632
5.5039e-06
-1.99246e-06
7.18448e-06
9.2431e-07
-9.75912e-07
-1.63846e-05
0.000253884
-3.66545e-06
4.60017e-06
-1.22311e-06
5.60802e-06
-4.06478e-07
7.16014e-07
1.97946e-07
-2.36463e-05
4.04505e-06
-4.59334e-06
2.32186e-05
-1.08378e-05
-7.94267e-07
-4.40222e-07
1.20703e-05
5.96009e-06
-8.97716e-05
-3.27536e-06
-6.24979e-06
3.44307e-06
8.98936e-05
3.68169e-06
-1.62134e-05
0.000102835
1.18426e-06
1.1513e-06
2.38899e-06
2.26574e-06
-8.36412e-07
-6.6004e-06
0.000109687
-3.0263e-08
-3.46697e-06
0.000198646
-3.22737e-07
6.5683e-07
4.02938e-08
-5.41508e-06
-1.88794e-06
-4.36446e-06
-2.3856e-05
4.12705e-06
1.05119e-06
-4.65175e-06
2.32992e-05
-4.64401e-05
-1.92265e-06
-1.49443e-06
4.1157e-06
4.88962e-05
-3.15479e-06
5.72824e-06
-2.35253e-06
6.48569e-05
8.17374e-07
-1.68257e-06
1.52848e-06
-1.80442e-06
-2.19948e-06
-2.13819e-06
-2.08772e-06
1.50833e-06
5.77055e-07
0.000115593
2.50866e-06
2.64519e-06
2.33648e-06
5.05908e-07
2.49686e-07
9.0722e-07
-4.41495e-05
3.34144e-06
-1.63872e-06
4.04881e-05
-8.33843e-06
4.63624e-06
-4.26559e-06
7.96778e-06
-1.63177e-05
-1.88914e-06
2.90035e-07
1.55643e-05
-3.93119e-05
9.30603e-07
4.40157e-07
-7.63675e-07
3.92819e-05
-2.03463e-05
2.79849e-06
-2.20988e-06
1.97576e-05
-4.34303e-06
-1.34161e-06
5.69561e-07
5.11508e-06
-1.23476e-05
3.33067e-06
-4.89557e-06
1.39125e-05
1.23816e-06
1.3223e-06
-5.76667e-05
-2.98759e-06
-3.35712e-07
5.84296e-05
3.85572e-06
-6.38288e-05
3.05488e-07
1.09713e-06
-5.47462e-06
6.40451e-05
-2.6672e-05
1.63716e-06
-5.558e-06
-1.91723e-07
2.84926e-05
2.29203e-06
9.33639e-07
1.25902e-06
-0.000100758
4.79798e-08
2.16134e-06
9.63562e-05
5.24079e-06
-1.61514e-05
0.000199399
1.23774e-06
4.64519e-06
1.819e-06
5.66426e-06
-1.56071e-06
-2.32896e-06
-1.11431e-06
-3.37259e-07
-1.79364e-06
-9.09812e-06
0.000166082
6.3901e-06
-9.40664e-07
7.69809e-06
1.53421e-06
1.49332e-06
-1.78473e-05
0.000255061
-2.68469e-06
6.03152e-06
-5.20768e-07
6.10625e-06
1.09821e-06
1.82218e-06
1.53094e-06
-2.41163e-05
4.99347e-06
-4.92519e-06
2.55414e-05
-1.34924e-05
3.23629e-07
-1.54378e-06
1.47166e-05
5.88897e-06
-8.93532e-05
-3.24924e-06
-5.40294e-06
3.12493e-06
8.89915e-05
-3.10536e-07
-1.5835e-05
9.54435e-05
6.59687e-07
1.46003e-06
2.40304e-06
2.86291e-06
-5.29294e-07
-6.89659e-06
0.000107704
8.46601e-07
-3.32787e-06
0.000188548
5.28856e-07
1.07249e-06
7.78372e-07
-3.47827e-06
-1.97961e-06
-2.71905e-06
-2.1621e-05
3.06225e-06
1.76033e-06
-2.73165e-06
2.03767e-05
-5.09483e-05
-2.41139e-06
-1.12286e-06
4.63387e-06
5.27578e-05
-2.90913e-06
3.86956e-06
-2.49408e-06
5.82209e-05
6.7746e-07
-2.15798e-06
1.54204e-06
-2.3146e-06
-2.63721e-06
-3.19608e-06
-2.48808e-06
8.77035e-07
-9.83173e-07
0.000108005
1.49515e-06
1.7316e-06
1.25817e-06
7.30979e-07
-1.23385e-06
6.84759e-07
-3.98845e-05
2.27678e-06
-2.29999e-06
3.74569e-05
-8.72118e-06
2.95582e-06
-3.47648e-06
9.24184e-06
-1.48793e-05
-2.39789e-06
9.05948e-07
1.38772e-05
-3.93337e-05
4.67661e-07
4.73168e-07
-9.31477e-07
3.83412e-05
-1.95738e-05
2.01193e-06
-1.86579e-06
1.94277e-05
-5.883e-06
-7.35881e-07
-8.53306e-08
6.70421e-06
-1.58098e-05
2.32888e-06
-3.88305e-06
1.7364e-05
1.30042e-06
8.84526e-07
-5.90496e-05
-2.49788e-06
-2.37774e-07
5.96003e-05
4.1035e-06
-6.44608e-05
3.34514e-07
7.54129e-07
-5.49307e-06
6.47617e-05
-3.0847e-05
1.16053e-06
-5.14754e-06
-3.84279e-07
3.29507e-05
2.26759e-06
-1.58711e-07
1.42521e-07
-9.27427e-05
4.46557e-07
2.16226e-06
9.015e-05
2.95425e-06
-1.71753e-05
0.00020166
1.88282e-06
4.5605e-06
2.36489e-06
5.64457e-06
-6.48185e-07
-1.72169e-06
-3.16269e-07
1.9359e-07
-9.13428e-07
-9.16546e-06
0.000164524
6.33939e-06
-7.75088e-07
7.46115e-06
1.56643e-06
1.72917e-06
-1.44579e-05
0.000253093
-2.22965e-06
5.78829e-06
-1.94628e-07
5.69491e-06
1.31116e-06
1.90098e-06
1.51189e-06
-2.74422e-05
4.26684e-06
-4.31262e-06
2.92172e-05
-1.55771e-05
9.52634e-07
-1.63631e-06
1.62607e-05
5.3729e-06
-8.88774e-05
-2.35812e-06
-4.98846e-06
2.24394e-06
8.86071e-05
-1.37844e-06
-1.694e-05
8.91943e-05
4.44102e-07
1.71275e-06
2.24852e-06
2.98697e-06
6.18175e-07
-7.06498e-06
0.000103607
1.06518e-06
-2.33028e-06
0.000177735
7.30651e-07
1.25188e-06
5.44855e-07
-1.90897e-06
-6.12158e-07
-1.76851e-06
-2.009e-05
2.58394e-06
1.21402e-06
-2.85744e-06
2.02146e-05
-5.45547e-05
-2.12111e-06
-1.19123e-06
4.36953e-06
5.59257e-05
-2.42818e-06
2.05725e-06
-4.16547e-06
5.64462e-05
7.07706e-07
-2.72084e-06
1.50955e-06
-2.68741e-06
-2.92874e-06
-3.84096e-06
-3.09647e-06
-3.50167e-07
-1.5203e-06
0.000103714
5.07141e-07
5.42138e-07
5.42244e-07
4.0819e-07
-1.04317e-06
1.97115e-07
-3.76408e-05
1.2247e-06
-2.19039e-06
3.5926e-05
-9.52443e-06
2.69358e-06
-2.98959e-06
9.82044e-06
-1.25303e-05
-1.95086e-06
-9.32979e-07
1.12487e-05
-3.71357e-05
8.55785e-07
7.3784e-07
-1.20804e-06
3.52298e-05
-1.92595e-05
1.98133e-06
-1.5035e-06
1.87816e-05
-7.52563e-06
-3.06886e-07
-5.49089e-07
8.3816e-06
-1.81423e-05
3.30206e-06
-3.33653e-06
1.81767e-05
1.94483e-06
7.57102e-09
-6.01126e-05
-1.72993e-06
-6.24661e-07
6.05147e-05
4.10251e-06
-6.53032e-05
8.56549e-08
4.57401e-07
-5.11718e-06
6.57748e-05
-3.5183e-05
7.76902e-07
-4.91764e-06
-3.23127e-07
3.71665e-05
2.4804e-06
-1.17278e-06
-1.37488e-07
-8.8137e-05
1.19712e-06
2.84115e-06
8.5409e-05
2.22777e-06
-1.78091e-05
0.000205716
2.33054e-06
4.44078e-06
2.62937e-06
5.5394e-06
-8.33145e-07
-1.62207e-06
-8.48087e-07
-1.11552e-07
-4.16658e-07
-9.56766e-06
0.000163147
5.86636e-06
-8.07513e-07
6.96547e-06
1.564e-06
1.88388e-06
-9.91642e-06
0.000245616
-1.88187e-06
5.40258e-06
2.48777e-07
5.44475e-06
1.56587e-06
2.13012e-06
2.18296e-06
-3.10327e-05
3.1758e-06
-2.65768e-06
3.23984e-05
-1.69555e-05
1.40245e-06
-2.20667e-06
1.77597e-05
4.93004e-06
-8.90152e-05
-1.92305e-06
-4.38663e-06
1.27437e-06
8.91205e-05
-8.17878e-07
-1.85828e-05
8.48504e-05
1.39943e-07
1.42371e-06
1.83727e-06
2.53464e-06
4.19359e-07
-9.16691e-06
0.000101969
9.06509e-07
-5.68967e-07
0.000166979
4.84877e-08
1.11433e-06
2.83949e-08
-8.67114e-07
1.11936e-06
-5.2193e-07
-2.03988e-05
2.00843e-06
1.05182e-06
-2.31625e-06
2.05613e-05
-5.71526e-05
-2.07447e-06
-9.83985e-07
3.95175e-06
5.80093e-05
-1.74992e-06
3.9874e-06
-3.18374e-06
5.12445e-05
1.94619e-07
-3.29984e-06
9.82441e-07
-3.45723e-06
-3.46768e-06
-2.2122e-06
-2.92488e-06
-8.73901e-07
-1.2186e-06
0.000102872
-1.55497e-07
3.3777e-07
-6.25936e-07
-4.47994e-07
-7.78293e-07
-5.75139e-07
-3.64886e-05
8.05396e-07
-1.42268e-06
3.5663e-05
-1.01131e-05
2.31234e-06
-2.51068e-06
1.03114e-05
-1.00605e-05
-1.43931e-06
-1.45396e-07
8.46149e-06
-3.37489e-05
7.48806e-07
1.94244e-07
-5.53532e-07
3.21407e-05
-1.78845e-05
1.79223e-06
-7.83345e-07
1.68756e-05
-9.19718e-06
-5.26745e-08
-7.74876e-07
1.00247e-05
-1.76295e-05
3.60619e-06
-2.29744e-06
1.63208e-05
2.01513e-06
-6.27663e-07
-6.08595e-05
-8.84555e-07
-6.76594e-07
6.10332e-05
3.86084e-06
-6.64834e-05
-2.64547e-07
4.48097e-07
-4.61982e-06
6.70589e-05
-3.94016e-05
8.78562e-07
-4.66321e-06
-5.63011e-07
4.13252e-05
2.42405e-06
-1.03513e-06
1.08446e-07
-8.22534e-05
1.07634e-06
3.03711e-06
7.90666e-05
2.80153e-06
-1.81611e-05
0.000211125
2.23998e-06
4.26856e-06
2.30448e-06
5.4447e-06
-1.08509e-06
-2.19766e-06
-6.53288e-07
-3.71217e-07
1.73515e-07
-1.08193e-05
0.000164048
5.22723e-06
-7.63904e-07
6.40259e-06
1.68041e-06
2.10668e-06
-8.8898e-06
0.000234372
-1.28512e-06
5.26889e-06
9.51884e-07
5.36883e-06
2.48378e-06
2.24794e-06
3.16398e-06
-3.36654e-05
2.34191e-06
-1.09211e-06
3.45222e-05
-1.85624e-05
1.65495e-06
-2.37304e-06
1.92805e-05
4.43895e-06
-8.92499e-05
-1.89968e-06
-3.38019e-06
1.14117e-06
8.89496e-05
1.67655e-06
-2.09416e-05
8.28382e-05
-6.51328e-07
7.79245e-07
1.08699e-06
1.90128e-06
-6.74427e-07
-1.12876e-05
0.000104788
4.34026e-07
2.73802e-07
0.000153993
-3.05771e-07
5.66445e-07
-1.51354e-07
1.52707e-07
1.56065e-06
8.91136e-07
-2.11171e-05
8.60913e-07
5.571e-07
-1.44272e-06
2.15759e-05
-5.88089e-05
-2.06747e-06
-7.65641e-07
3.96274e-06
5.93134e-05
-1.63412e-06
5.33275e-06
-2.38783e-06
4.37907e-05
-4.07628e-07
-4.07131e-06
2.18323e-07
-3.83541e-06
-3.12257e-06
-2.47422e-06
-2.73996e-06
-8.8614e-07
-1.13268e-06
0.000104768
-1.39586e-06
2.54664e-07
-1.51634e-06
-1.04127e-06
-1.27672e-06
-8.56183e-07
-3.69426e-05
8.47407e-07
-4.54936e-07
3.59378e-05
-1.04767e-05
1.87998e-06
-2.04445e-06
1.06412e-05
-6.76275e-06
-4.14934e-06
3.16517e-06
5.35909e-06
-3.12077e-05
-3.73346e-07
1.57329e-07
-8.45908e-08
3.03757e-05
-1.61509e-05
9.17482e-07
-3.50537e-07
1.5584e-05
-1.07791e-05
1.20884e-07
-8.10723e-07
1.14689e-05
-1.4681e-05
1.97256e-06
-7.68858e-07
1.34772e-05
1.32836e-06
-1.52571e-07
-6.13235e-05
-5.49243e-07
-7.8162e-07
6.14786e-05
3.49385e-06
-6.78394e-05
-3.68564e-07
4.21598e-07
-4.122e-06
6.84145e-05
-4.34787e-05
1.1602e-06
-4.3321e-06
-8.68699e-07
4.52332e-05
2.28602e-06
-5.94867e-07
-3.86345e-07
-7.62512e-05
9.10045e-07
2.88585e-06
7.34365e-05
3.17745e-06
-1.69697e-05
0.000216872
1.83989e-06
3.7651e-06
2.13798e-06
4.83017e-06
-8.51579e-07
-2.50734e-06
-5.59212e-07
-6.0968e-07
3.60016e-07
-1.18452e-05
0.000167091
4.56629e-06
-6.23824e-07
5.85954e-06
1.818e-06
2.04913e-06
-1.0539e-05
0.000223141
-5.06465e-07
5.07798e-06
1.72699e-06
5.15302e-06
3.10455e-06
2.07672e-06
3.44854e-06
-3.53652e-05
1.94438e-06
-4.36551e-07
3.59065e-05
-1.98738e-05
1.85673e-06
-2.32431e-06
2.03413e-05
3.71985e-06
-8.89448e-05
-1.58538e-06
-2.62974e-06
7.28402e-07
8.87116e-05
4.81791e-06
-2.12372e-05
8.26929e-05
-1.63859e-06
1.92268e-08
2.80508e-07
9.33754e-07
-7.04543e-07
-1.15077e-05
0.000109973
3.89228e-08
5.71953e-08
0.000139664
-2.66762e-07
1.10757e-07
-3.60748e-08
7.79359e-07
1.62251e-06
7.79849e-07
-2.25087e-05
-1.4013e-08
-8.57305e-08
-8.30428e-07
2.34778e-05
-5.97348e-05
-1.41591e-06
-1.13655e-06
3.35936e-06
6.00855e-05
-1.15758e-06
2.71966e-06
-3.25137e-06
4.03568e-05
1.22221e-09
-3.98078e-06
1.12275e-07
-4.85053e-06
-2.91024e-06
-3.08688e-06
-2.55666e-06
-1.27576e-06
-2.47543e-06
0.000107927
-1.57098e-06
-4.10613e-07
-8.73255e-07
-8.22924e-07
-3.32238e-06
-1.19581e-06
-3.67654e-05
5.52812e-07
5.2461e-07
3.44694e-05
-1.09082e-05
1.65762e-06
-1.87106e-06
1.11216e-05
-4.7778e-06
-5.64306e-06
3.20752e-06
3.96197e-06
-2.94651e-05
-6.06458e-07
8.33974e-07
-2.0396e-07
2.69661e-05
-1.53353e-05
3.72675e-07
-5.03031e-07
1.54656e-05
-1.2063e-05
2.25354e-07
-7.63324e-07
1.2601e-05
-1.3044e-05
-3.14405e-08
-2.99506e-07
1.3375e-05
9.93902e-07
7.69664e-07
-6.14671e-05
-4.86505e-07
-1.03657e-06
6.12266e-05
3.12756e-06
-6.92395e-05
-2.8392e-07
9.67315e-08
-3.61703e-06
6.99162e-05
-4.71505e-05
1.35112e-06
-4.07207e-06
-1.11194e-06
4.85705e-05
2.41288e-06
-3.64657e-08
-6.18314e-07
-7.04823e-05
1.16897e-06
2.75221e-06
6.72159e-05
3.70092e-06
-1.48075e-05
0.000222471
1.7808e-06
3.00145e-06
2.04236e-06
4.04153e-06
-8.70554e-07
-2.86106e-06
-7.0672e-07
-9.19935e-07
2.8408e-08
-1.21735e-05
0.000172601
3.8657e-06
-5.65179e-07
5.24398e-06
1.79169e-06
1.70277e-06
-1.20535e-05
0.000214379
1.06553e-07
4.71935e-06
2.10113e-06
4.75674e-06
2.90472e-06
1.61872e-06
2.93414e-06
-3.65696e-05
1.86073e-06
-5.35076e-07
3.69467e-05
-2.06789e-05
1.98804e-06
-2.22106e-06
2.09119e-05
3.31399e-06
-8.88443e-05
-1.09826e-06
-2.30204e-06
3.01226e-07
8.86294e-05
4.42587e-06
-1.94631e-05
8.50301e-05
-2.04689e-06
-5.38684e-07
8.10535e-08
3.97066e-07
-1.20195e-06
-1.19932e-05
0.000115421
-2.56125e-07
-5.70703e-08
0.000128497
-2.677e-07
-9.81039e-08
-3.60502e-07
-3.75217e-07
1.97105e-07
-8.70591e-07
-2.47864e-05
-4.28939e-08
-5.79875e-07
-8.17212e-07
2.59703e-05
-6.0542e-05
-1.12901e-06
2.5788e-08
1.66218e-06
6.0521e-05
-5.37941e-07
-6.73994e-06
-2.68539e-06
4.49773e-05
-5.11474e-07
-4.05579e-06
-2.31848e-07
-2.98451e-06
-2.38118e-06
-2.33805e-06
-2.15534e-06
-2.03954e-06
-2.94162e-06
0.00010295