/*--------------------------------*- C++ -*----------------------------------*\
| =========                 |                                                 |
| \\      /  F ield         | OpenFOAM: The Open Source CFD Toolbox           |
|  \\    /   O peration     | Version:  5.x                                   |
|   \\  /    A nd           | Web:      www.OpenFOAM.org                      |
|    \\/     M anipulation  |                                                 |
\*---------------------------------------------------------------------------*/
FoamFile
{
    version     2.0;
    format      ascii;
    class       surfaceScalarField;
    location    "1.15";
    object      phi;
}
// * * * * * * * * * * * * * * * * * * * * * * * * * * * * * * * * * * * * * //

dimensions      [0 3 -1 0 0 0 0];

internalField   nonuniform List<scalar> 
29271
(
-3.12279e-06
-1.78642e-08
-3.79327e-07
3.49868e-06
-4.41665e-06
6.05551e-07
1.71581e-07
3.63881e-06
-1.0899e-05
-4.56772e-08
-7.7703e-07
3.47576e-07
-1.00206e-09
1.13751e-05
-1.08075e-05
2.75615e-07
2.43797e-07
-7.07937e-07
-2.76341e-07
1.12724e-05
-1.07727e-05
8.41025e-07
-1.27442e-06
-2.90832e-07
1.01885e-05
1.30851e-06
-1.12223e-05
-5.28408e-07
-1.17012e-06
1.98032e-07
-3.14355e-08
1.27542e-05
-9.58347e-06
2.16588e-06
1.67154e-06
-7.24997e-07
-1.50235e-06
7.97339e-06
-9.56435e-06
2.8578e-06
2.81402e-07
-4.78813e-07
-2.12098e-06
9.02494e-06
-9.81009e-06
2.30541e-06
1.01053e-06
-8.05083e-07
-1.54218e-06
8.84142e-06
-8.78685e-06
5.48037e-07
-1.69492e-07
8.16881e-06
1.88292e-07
-2.69136e-06
2.47724e-07
5.8191e-07
1.87025e-06
-1.16816e-05
-1.13675e-06
8.65538e-07
-8.24745e-07
-1.39499e-06
1.41725e-05
-9.27245e-06
9.1747e-07
2.47703e-06
-1.30517e-06
-7.34564e-07
7.91768e-06
-8.84146e-06
1.00062e-06
4.14959e-07
-9.6293e-08
-2.22399e-07
7.74457e-06
-9.27611e-06
5.68812e-07
-2.03546e-07
5.61712e-07
2.83622e-07
8.06551e-06
-1.11491e-05
-2.85776e-07
4.39191e-07
6.77372e-07
1.13208e-05
-1.00252e-06
-1.08076e-05
9.20511e-08
-3.96074e-07
-5.919e-07
1.02122e-05
1.49132e-06
-9.4233e-06
1.24568e-06
3.10585e-07
-5.95761e-07
5.17103e-07
7.94569e-06
-9.43866e-06
-5.09412e-07
1.75104e-08
3.80076e-07
1.40921e-06
8.14127e-06
-1.06747e-05
4.22491e-08
9.6492e-07
1.20881e-05
-1.35908e-06
-1.06152e-06
-4.12247e-06
9.93888e-08
-9.56971e-08
4.05663e-06
-9.15167e-06
-8.53258e-07
1.15495e-06
1.03581e-05
-1.57585e-06
-1.31344e-05
-5.16014e-07
-4.52724e-07
6.84043e-07
1.60621e-05
-2.643e-06
-3.90398e-06
-3.46521e-07
7.02105e-07
3.49404e-06
-6.10653e-06
-3.31222e-06
5.57845e-07
8.861e-06
-3.19839e-06
4.01452e-06
-3.08694e-06
2.26605e-06
3.78377e-06
-4.86401e-06
-1.12753e-05
4.71912e-06
-3.44989e-06
1.10863e-05
6.334e-07
-1.25885e-05
-4.42299e-06
3.01503e-06
1.57674e-06
1.17864e-05
-1.00887e-05
-2.62113e-06
-1.02182e-06
1.03577e-05
4.68618e-06
-1.31222e-06
3.37214e-06
-2.01123e-06
-1.36633e-05
6.83806e-06
-3.72043e-06
9.18479e-06
2.30323e-06
3.35208e-07
3.37641e-05
-4.29892e-06
-4.69574e-06
-4.26916e-06
-4.86834e-06
1.30882e-06
2.03223e-06
-8.40994e-07
-3.71124e-07
-7.10352e-06
-5.00561e-06
-4.1605e-06
-4.12969e-06
1.43145e-06
2.41849e-06
4.45057e-05
-6.24445e-06
-7.19872e-06
-6.18846e-06
-6.56999e-06
-3.39763e-06
-7.43344e-06
-3.82431e-06
-5.1954e-06
-8.73424e-07
4.83654e-07
5.45092e-05
-1.8944e-05
-3.11545e-06
-2.08402e-06
-1.00987e-06
-9.3235e-07
-2.95908e-07
-4.56387e-07
-6.69673e-06
-6.17803e-06
-6.3101e-06
-6.66509e-06
-7.52918e-06
-1.84387e-07
2.01094e-07
6.60418e-06
-1.47886e-06
2.64308e-07
-4.07091e-07
1.61124e-06
-5.2563e-07
-1.55398e-05
2.33706e-06
4.18436e-06
-2.82111e-06
1.23651e-05
2.28058e-06
2.43162e-07
3.6553e-05
-5.29801e-06
-5.74475e-06
-5.39721e-06
-5.88074e-06
-5.82608e-06
-4.81707e-06
-3.87853e-06
-1.89912e-06
-5.49639e-07
-2.4311e-06
3.58002e-05
-6.92848e-06
-6.98595e-06
-7.15452e-06
-7.05141e-06
-2.95361e-06
-3.00448e-06
4.82745e-05
-8.53926e-06
-7.77337e-07
-1.25116e-06
-3.72012e-06
-8.11439e-07
-9.26737e-07
-6.74126e-06
-6.70818e-06
-6.39887e-06
-6.508e-06
-1.34278e-05
-9.19664e-07
-1.05231e-06
2.19656e-06
1.02496e-05
-1.01826e-05
9.016e-07
1.0959e-06
-3.33106e-07
6.05856e-06
2.45962e-06
2.78613e-07
-1.96688e-06
3.45396e-05
-3.58461e-06
-2.09852e-06
-9.66256e-07
-7.62951e-07
-1.45804e-06
-7.14451e-07
-1.09217e-06
-5.76317e-06
-5.54429e-06
-5.19604e-06
-5.42762e-06
-9.99828e-07
-3.14994e-06
4.60175e-05
-6.2085e-06
-3.48965e-07
-8.04372e-07
-7.62846e-06
-2.5762e-06
-3.45886e-06
-6.35808e-06
-6.13149e-06
-5.24639e-06
-5.25892e-06
-1.36304e-05
2.2784e-07
2.70642e-06
6.69185e-06
-4.16281e-06
2.6909e-06
-1.58963e-06
3.04775e-06
-1.13791e-05
-6.00056e-06
1.02849e-05
5.11551e-06
-2.11949e-05
-7.98548e-06
6.04074e-06
-1.31709e-06
2.13068e-05
-3.96683e-06
-5.52632e-06
4.55054e-06
4.94168e-06
-1.39779e-05
-1.62238e-06
3.86955e-06
1.17487e-05
-2.24396e-06
-7.36471e-07
-5.62285e-07
3.51717e-06
-9.90482e-08
4.5616e-07
-8.28633e-06
2.96643e-07
1.70291e-06
5.92966e-06
-1.83856e-06
-1.1646e-05
-8.08154e-07
1.61629e-06
2.63003e-06
1.00464e-05
-4.04468e-06
-2.35677e-07
4.30474e-07
2.06589e-07
5.18538e-06
-1.54209e-06
5.88086e-07
9.43088e-08
-7.00397e-06
1.25071e-06
-1.64905e-07
5.23577e-06
3.74584e-06
3.63295e-06
4.89564e-05
-4.18445e-06
-5.4219e-06
-1.07156e-06
-1.23337e-06
-4.00565e-06
-4.55563e-06
-9.30615e-07
-1.16792e-06
1.46432e-06
6.68154e-06
5.63536e-05
-6.80204e-06
-5.32008e-06
-1.94838e-06
-2.17745e-06
7.66187e-08
1.52937e-06
6.19885e-05
-4.45525e-07
-3.64242e-07
-2.06298e-06
-2.96986e-06
-2.5192e-07
-1.4671e-06
-5.9334e-08
-6.90266e-06
-2.01123e-07
-3.73521e-08
7.24712e-06
-1.92692e-06
-3.72557e-08
-7.26195e-09
1.97248e-06
-4.27056e-07
-1.06993e-05
-1.86637e-08
1.77835e-06
7.18093e-07
8.64859e-06
5.61816e-06
-9.26143e-07
4.40405e-05
-3.44953e-06
-1.84431e-06
-1.61953e-06
-1.63325e-06
-4.10293e-07
-4.75201e-06
5.32622e-05
-3.05475e-07
-3.67307e-07
5.69269e-05
-3.32886e-09
-1.36981e-06
-2.11471e-06
-9.90298e-08
-1.52507e-06
-1.74865e-06
-9.85113e-06
1.27373e-07
-4.80882e-07
-1.4078e-07
1.00399e-05
-5.46513e-06
-3.04152e-07
4.40811e-07
5.93047e-07
6.04121e-06
-1.30579e-06
6.06704e-07
-1.20371e-07
3.68357e-05
-9.78803e-08
6.4892e-08
-7.52176e-07
-3.68085e-07
-6.73709e-07
-4.31533e-07
-1.4501e-06
6.94112e-08
-2.60199e-06
4.90827e-05
3.56827e-07
1.57432e-06
2.54596e-07
-2.43564e-06
-2.56362e-06
-1.8644e-06
-6.35779e-06
-1.62713e-07
-4.22452e-07
6.64506e-06
-3.03802e-06
6.46523e-08
4.47691e-08
2.94874e-06
-4.2265e-06
1.09085e-07
-7.83689e-07
4.82135e-06
-1.81658e-05
7.42713e-07
7.3867e-07
-3.43278e-06
1.75152e-05
-5.10769e-06
6.50559e-07
-8.76575e-07
5.38227e-06
-9.75913e-06
-8.42843e-08
-2.53669e-06
1.23827e-05
-3.73746e-06
2.04813e-06
7.83708e-07
9.05619e-07
-6.67222e-08
-3.41243e-06
-5.84525e-06
2.33312e-06
1.58618e-06
5.40509e-06
1.61213e-06
-9.79368e-06
1.60412e-06
-6.82487e-06
-1.52915e-07
1.35552e-05
-5.17387e-06
2.94803e-06
-3.50506e-06
-8.63323e-07
-8.55518e-07
7.44974e-06
-2.02073e-06
-1.60208e-06
-5.20677e-06
2.5078e-06
1.40031e-06
4.92147e-06
1.60364e-06
-1.12272e-06
7.52931e-05
-1.6825e-06
-9.37335e-07
-5.04531e-06
-3.93874e-06
-2.4687e-06
-1.79973e-06
-5.6582e-06
-5.28707e-06
-1.54907e-05
9.5715e-07
7.70627e-05
-1.62651e-07
-1.19988e-06
-1.57499e-06
-1.63435e-06
-9.12388e-07
-3.46841e-07
5.44557e-05
-1.13615e-06
-1.10925e-06
-4.98046e-07
-1.32738e-06
-9.40299e-07
-4.6455e-07
-1.22295e-06
-6.83215e-06
-9.21326e-07
7.01832e-07
6.13926e-06
-1.98668e-06
9.94808e-08
-4.18013e-07
2.30521e-06
-5.61984e-07
-8.1653e-06
1.07632e-06
-9.44625e-07
-3.91366e-06
1.25092e-05
7.81201e-07
-1.25637e-05
6.0603e-05
6.23337e-07
-7.58918e-07
-2.18868e-06
-3.57851e-06
-4.43442e-06
-3.98476e-06
6.34197e-05
-3.16985e-07
-6.02547e-07
5.41538e-05
-9.06546e-07
1.96024e-08
1.36458e-07
-6.87792e-07
2.59587e-08
3.23718e-07
-8.34691e-06
-2.05997e-07
2.45114e-07
3.49258e-07
7.64155e-06
-5.50044e-06
2.41037e-06
-5.83677e-07
-3.86394e-06
2.42224e-06
5.11546e-06
1.52796e-06
-2.37798e-06
4.46252e-05
-2.58134e-06
-2.7602e-06
-4.3886e-06
-3.67213e-06
-9.13187e-07
-3.10961e-06
-2.07812e-06
-2.17226e-06
3.24665e-07
5.81123e-05
-2.32274e-06
-2.94925e-06
-2.35242e-06
-1.21354e-07
-6.06187e-07
-1.28689e-06
-5.85985e-06
-1.15074e-06
5.1918e-07
3.71661e-06
-1.54716e-06
-3.61069e-08
2.96003e-07
1.28726e-06
-4.99933e-06
-1.13128e-06
3.35783e-06
3.94805e-07
-1.55338e-05
-1.58262e-06
-1.34259e-06
1.29532e-06
1.74883e-05
-6.22741e-06
-1.81578e-06
2.17391e-06
5.86928e-06
-1.4565e-05
4.07865e-07
-2.27461e-07
1.43846e-05
-7.63746e-07
8.25918e-07
-6.5622e-07
5.94048e-07
3.86148e-07
1.27037e-06
-3.74924e-06
-1.84236e-06
-1.44304e-07
4.07938e-06
-1.85392e-08
-1.33773e-05
1.0998e-06
-1.19363e-06
2.21065e-07
1.32686e-05
2.1745e-06
4.18276e-07
-1.19691e-06
-8.31175e-08
-2.71568e-06
1.40293e-06
1.24279e-06
4.01497e-07
-3.39426e-06
4.02125e-08
-1.33363e-06
3.04339e-06
2.54191e-06
3.15794e-06
7.50277e-05
-1.01317e-06
-1.51826e-06
4.31986e-07
-3.55743e-08
-1.29968e-06
-2.21663e-06
2.31137e-07
-1.42299e-08
-6.5671e-06
3.0271e-06
8.40585e-05
-1.08703e-06
-1.04547e-06
8.60696e-08
1.13247e-06
-5.4675e-07
-2.60474e-07
4.93185e-05
-4.95482e-07
3.51255e-07
6.18735e-07
1.19609e-07
-1.50912e-06
1.4338e-07
1.48948e-07
-5.71076e-06
-8.95986e-07
7.40944e-07
5.31905e-06
-2.3209e-06
4.17135e-07
-3.66684e-07
2.27045e-06
1.39698e-07
-1.13151e-05
1.54005e-07
9.61983e-07
1.16628e-06
8.89309e-06
2.30187e-06
-3.88912e-06
6.72551e-05
-1.36161e-06
-1.34933e-06
-1.0996e-07
9.13986e-07
-1.53275e-06
-8.46229e-07
7.11277e-05
-3.68478e-07
4.83243e-08
5.03912e-05
-9.59898e-08
8.85539e-07
2.75279e-07
3.68531e-07
2.45275e-07
6.1084e-07
-7.36372e-06
-5.7762e-07
1.22477e-07
7.77892e-07
6.67249e-06
-1.47387e-07
-5.4293e-07
7.13429e-07
8.89634e-07
-3.17418e-08
-8.81004e-07
2.0697e-07
6.24142e-07
4.35122e-05
-1.12667e-06
-5.22077e-07
1.07286e-07
-3.42104e-07
-2.0484e-06
1.23515e-06
-9.10426e-07
-3.84126e-09
-4.48549e-07
6.02514e-05
-2.12453e-06
1.41717e-06
-2.6494e-07
-7.65204e-07
-2.77388e-07
-3.11002e-07
-2.13348e-06
-9.28549e-10
5.41901e-07
1.63699e-06
-2.966e-06
-7.75274e-07
4.87651e-07
3.25362e-06
1.32343e-06
-5.57799e-07
-3.31382e-08
-1.0835e-07
-1.75912e-05
2.2833e-07
-6.59007e-08
5.17781e-08
1.69285e-05
-5.49987e-06
-1.21835e-06
6.22467e-07
6.09575e-06
-1.34495e-05
4.7797e-07
2.81498e-07
1.26901e-05
-4.33718e-07
2.37146e-08
-3.66757e-07
7.7676e-07
4.20244e-07
9.86639e-07
-5.06171e-06
-1.28638e-06
-1.11588e-06
6.05708e-06
-3.14536e-09
-1.34951e-05
1.46738e-07
1.04708e-06
-5.60539e-07
1.28649e-05
2.231e-06
-1.14386e-06
1.18573e-06
2.09141e-07
-9.78966e-07
-1.50304e-06
3.91579e-07
1.95006e-07
-3.2733e-06
-6.8614e-07
-5.77852e-08
3.43064e-06
1.49585e-06
3.69656e-06
6.98354e-05
3.28665e-07
-3.56485e-07
2.21222e-07
-9.24867e-08
2.66994e-07
9.00228e-08
-5.61105e-07
1.02981e-07
-4.85865e-06
4.08633e-06
8.44603e-05
-4.81567e-07
9.08807e-07
2.28577e-07
1.21058e-06
4.91171e-07
-1.34394e-08
4.65602e-05
5.4481e-09
-7.00007e-07
-5.11651e-07
-1.05215e-06
-1.17507e-07
-2.0708e-07
4.77198e-09
-4.20188e-06
-6.25628e-07
1.04722e-06
1.60304e-06
2.66841e-06
2.7022e-07
-5.00739e-07
7.21563e-07
-4.91043e-07
-2.31671e-06
-9.97448e-08
2.26367e-07
2.19009e-06
-1.46058e-07
-7.90213e-06
-7.09201e-07
-2.13119e-08
1.65213e-06
7.12657e-06
2.49995e-06
-2.47694e-06
6.93296e-05
-1.51822e-08
6.16056e-07
3.24555e-07
6.73652e-07
-2.9016e-08
5.98132e-07
7.71448e-05
6.2795e-07
-7.22586e-07
5.20286e-05
2.30993e-07
5.13418e-07
1.56977e-07
-4.6057e-07
-1.20744e-06
-8.1859e-07
-6.3796e-06
-6.49123e-07
1.97567e-06
9.74161e-07
4.70684e-06
-7.68836e-07
-1.66892e-06
-6.17564e-07
-1.97453e-07
3.25278e-06
-6.69325e-07
-8.34836e-07
4.78675e-07
1.30181e-06
1.69181e-06
-1.96814e-06
-5.01361e-07
8.98813e-07
4.41511e-05
-3.45896e-07
-6.68269e-07
-7.87189e-07
-8.7826e-07
-4.70377e-07
1.74878e-07
-5.38161e-07
3.02227e-07
-3.99065e-07
6.10373e-05
1.34796e-07
3.55939e-07
1.28239e-07
-3.79038e-07
-3.92944e-07
-4.39285e-07
-2.66644e-06
7.10806e-07
-9.90871e-07
2.52614e-06
-3.84792e-06
3.38247e-08
-3.07621e-07
4.12172e-06
-1.31342e-06
6.52763e-07
-6.65472e-07
2.22494e-06
-1.55044e-05
1.25053e-06
2.6896e-07
2.18757e-07
1.33671e-05
-5.78054e-06
1.2486e-06
-9.57337e-07
5.48928e-06
-1.18955e-05
7.06488e-07
4.41497e-08
1.11448e-05
-1.90381e-08
-7.52777e-07
9.53519e-07
-1.81704e-07
-4.86399e-08
6.60931e-07
-7.25817e-06
-1.03332e-06
-2.77428e-07
7.95662e-06
-3.77749e-07
-1.22111e-05
5.29882e-07
9.58349e-07
-4.59811e-07
1.15604e-05
2.49106e-07
-7.61686e-07
3.31733e-07
8.41558e-07
8.5084e-07
-1.51155e-06
-9.01729e-07
7.72728e-08
-3.15016e-06
3.58921e-07
1.14672e-06
2.46897e-06
2.53576e-06
5.02442e-06
6.59871e-05
-1.61323e-07
-5.23924e-07
-4.95804e-07
-4.88805e-07
-7.13446e-07
-5.33661e-07
-3.61565e-07
-4.33283e-07
-2.90508e-06
4.49812e-06
8.50301e-05
-2.07724e-07
3.90985e-07
5.75376e-08
1.32082e-07
-7.05871e-07
1.54012e-06
4.79486e-05
-1.21754e-06
-1.10001e-06
-1.30802e-06
-9.78329e-07
1.08265e-07
-6.91282e-07
5.92083e-08
-2.12275e-06
-3.11413e-07
-1.12699e-06
1.17068e-06
1.68461e-06
1.17827e-06
-9.33617e-07
1.75962e-06
-1.52002e-06
5.15962e-07
-1.00022e-06
-2.0909e-06
-4.47523e-07
4.41261e-07
2.09716e-06
-3.39266e-07
-6.89424e-06
-1.16956e-06
4.31711e-08
1.27553e-06
7.08437e-06
2.40572e-06
-1.70856e-06
7.25054e-05
-1.63167e-09
4.24265e-07
1.83026e-07
5.45755e-07
8.3861e-07
9.11813e-07
8.22982e-05
6.82616e-07
-1.47331e-06
5.57128e-05
5.05908e-07
6.26085e-07
5.44404e-07
-5.95528e-07
-1.12677e-06
-4.68854e-07
-5.38152e-06
-2.02325e-07
9.60643e-07
-1.03924e-06
6.34506e-06
-4.0813e-06
-5.71488e-07
-9.67814e-07
4.22803e-07
7.25392e-07
4.4724e-06
-2.01652e-06
-3.85174e-07
4.12793e-07
7.52697e-07
2.45279e-06
-1.21658e-06
-9.81805e-07
-2.45133e-07
4.81256e-05
-6.12619e-07
-3.9873e-07
-6.16647e-07
-3.45302e-07
-8.48946e-07
-5.67604e-07
-1.06621e-06
-1.4081e-07
-3.19245e-07
6.22136e-05
-2.10943e-07
-1.96994e-07
-5.22837e-07
-4.13313e-08
-2.44933e-07
4.30787e-07
-3.12329e-06
1.4656e-08
-2.02594e-06
3.52045e-06
-3.31455e-06
-1.12232e-07
-2.26205e-07
5.90085e-07
3.0629e-06
-6.56194e-07
-1.28978e-07
6.15898e-08
7.23582e-07
-2.8057e-06
1.0581e-06
-1.6348e-06
3.13726e-06
-1.10983e-05
1.51199e-06
-8.79301e-07
3.82733e-07
9.76365e-06
-4.50832e-06
1.90451e-06
-3.37733e-07
2.94155e-06
-1.03488e-05
8.54753e-07
-1.21188e-07
9.6152e-06
6.92037e-07
-1.20006e-06
1.42091e-06
-9.12882e-07
-7.47219e-07
7.94658e-07
-8.3016e-06
-7.89081e-07
1.00406e-06
8.03919e-06
-1.12338e-06
-1.09034e-05
7.56786e-07
1.30837e-07
1.0068e-06
1.01324e-05
-1.72573e-06
-4.82556e-07
-9.79127e-09
8.50572e-07
1.92339e-06
-5.55887e-07
-1.33392e-06
2.63999e-07
-2.19549e-06
-2.95798e-07
1.44663e-06
2.11458e-06
2.52892e-06
5.52201e-06
6.26352e-05
-9.73303e-07
-1.17071e-06
-1.31867e-06
-1.18621e-06
1.26022e-07
-4.89893e-07
4.73517e-07
-1.59847e-07
-6.87187e-07
5.39591e-06
8.61001e-05
-8.46278e-07
-8.14804e-07
-9.07991e-07
-6.80725e-07
-3.99796e-07
3.20423e-06
4.95628e-05
-1.53607e-06
-9.09505e-07
-1.31611e-06
-8.60431e-07
4.21403e-08
-5.98058e-07
7.22964e-08
-1.57907e-06
1.93121e-07
-7.36257e-07
2.62968e-07
1.45944e-06
1.12662e-06
8.56483e-07
8.24655e-07
-6.13033e-07
-8.77255e-07
-1.31747e-06
-2.2102e-06
-6.17395e-07
4.17354e-07
2.41024e-06
-5.19268e-07
-7.58897e-06
-1.38475e-06
3.91147e-07
1.0021e-06
8.09974e-06
2.86546e-06
-8.77218e-07
7.57732e-05
-2.7331e-07
2.38716e-07
-1.56752e-07
4.57352e-07
2.257e-06
6.74407e-07
8.76282e-05
8.81537e-07
-8.17401e-07
5.93491e-05
8.90378e-07
9.18283e-07
4.9191e-07
-8.52118e-08
-3.74812e-07
-7.96885e-08
-7.06496e-06
1.84893e-07
9.43962e-07
-9.07471e-07
7.72512e-06
-4.52714e-06
5.24863e-07
-1.23717e-06
7.19087e-07
7.18633e-08
4.44849e-06
-2.80561e-06
-1.4338e-07
5.63869e-08
3.57619e-07
3.23256e-06
-6.97576e-07
-3.64905e-07
-6.82914e-07
5.25012e-05
-5.68853e-07
-2.20588e-07
-3.66029e-07
-1.81488e-07
-1.21311e-06
-6.61875e-07
-9.93129e-07
-2.64792e-07
-3.86069e-07
6.33327e-05
-5.38488e-07
-3.46101e-08
-6.88189e-07
6.35842e-07
-1.62057e-07
6.28785e-07
-4.14255e-06
-1.84256e-07
-1.27267e-06
4.51728e-06
-2.35187e-06
1.62516e-07
1.24778e-06
-8.92453e-07
1.83403e-06
-6.70606e-07
-2.76072e-07
3.00743e-07
2.68158e-07
3.77777e-07
-3.36892e-06
1.23883e-06
-2.13405e-06
3.58123e-06
-9.52569e-06
1.30358e-06
-1.04501e-06
-7.29619e-07
9.61067e-06
-1.57605e-06
1.02115e-06
-3.17991e-07
8.72891e-07
-9.15277e-06
5.5856e-07
2.35573e-08
8.57065e-06
1.09198e-06
-1.03751e-06
1.14373e-06
-1.1982e-06
-2.05682e-06
1.38075e-06
-7.61315e-06
-1.3518e-06
2.55155e-06
7.08947e-06
-1.58231e-06
-9.43589e-06
9.52613e-07
-4.29102e-07
1.85957e-06
8.63512e-06
-1.52085e-06
-4.99159e-07
1.38863e-07
7.43533e-07
1.10325e-06
3.43702e-08
-1.12959e-06
1.4022e-07
-2.34239e-06
-4.62416e-07
1.08317e-06
2.71101e-06
2.49582e-06
6.81878e-06
6.14583e-05
-2.10201e-06
-2.07835e-06
-2.39151e-06
-2.21205e-06
6.2883e-07
-3.4541e-07
5.98483e-07
-2.35614e-07
3.27381e-07
5.78222e-06
8.71304e-05
-1.55693e-06
-1.08335e-06
-1.30494e-06
-6.98883e-07
-7.80156e-07
3.88139e-06
5.14817e-05
-1.15528e-06
-5.39248e-07
-8.68008e-07
-5.33322e-07
-9.08204e-09
-1.3124e-06
-2.75504e-07
-1.56156e-06
1.27425e-06
-1.36948e-06
-4.56864e-07
1.33349e-06
2.25851e-06
7.11091e-07
1.23011e-07
-1.92385e-06
-1.16876e-06
-2.63008e-06
-5.41702e-07
3.97638e-07
2.77415e-06
-6.90758e-07
-8.59226e-06
-1.00504e-06
7.64142e-07
6.59027e-07
8.86489e-06
3.07906e-06
2.02756e-07
7.97516e-05
-5.97713e-07
1.12515e-07
-4.2051e-07
4.64256e-07
2.45658e-06
1.22564e-06
9.28073e-05
8.82366e-07
-8.79492e-08
6.34778e-05
5.49131e-07
4.29743e-07
-2.87911e-07
2.79857e-07
2.8966e-07
1.54296e-07
-7.94923e-06
1.95142e-07
6.71861e-07
1.08031e-07
7.85656e-06
-4.00739e-06
1.45502e-06
-1.06385e-06
1.29086e-06
-1.56971e-07
2.48233e-06
-3.60031e-06
7.23453e-08
-2.24365e-07
2.03908e-07
4.00454e-06
-4.56116e-07
2.43339e-07
-6.24761e-07
5.6261e-05
-4.2479e-07
-1.88774e-07
-2.47478e-07
-1.78093e-07
-8.30515e-07
-5.70603e-07
-7.35324e-07
-7.88819e-08
1.14011e-07
6.46547e-05
-6.84573e-07
1.59296e-07
-7.43049e-07
5.60346e-07
2.85914e-07
5.33906e-07
-5.14491e-06
-1.11181e-07
-4.92216e-07
5.58147e-06
-1.3866e-06
-1.26046e-06
1.12918e-06
1.51788e-06
-3.71059e-06
1.20131e-06
-1.85182e-06
3.73634e-06
-9.63729e-06
1.13516e-06
-6.25216e-07
1.3247e-08
9.22811e-06
-5.9119e-07
4.2742e-07
-3.73616e-07
5.37386e-07
-7.18766e-06
-3.92608e-08
2.10897e-06
5.11795e-06
1.27666e-06
-5.58616e-07
6.28165e-07
-1.3462e-06
-2.24929e-06
1.22007e-06
-6.60941e-06
-1.58772e-06
3.10319e-06
6.12316e-06
-2.22024e-06
-7.97257e-06
7.24681e-07
-2.29395e-07
2.24387e-06
7.45366e-06
-1.02064e-06
-3.64214e-07
-1.63002e-07
1.22506e-07
1.25086e-06
1.74491e-07
-7.38997e-07
1.23328e-07
-3.30832e-06
-2.81591e-07
2.75757e-07
3.92983e-06
1.88688e-06
7.76513e-06
6.31917e-05
-2.73987e-06
-3.00674e-06
-2.71715e-06
-2.81997e-06
5.18093e-07
-5.27695e-07
2.89647e-07
-3.81711e-07
-1.21028e-07
5.64179e-06
8.85726e-05
-1.85044e-06
-1.0648e-06
-1.49466e-06
-6.66205e-07
-1.36396e-06
3.26684e-06
5.31236e-05
-5.87053e-07
-3.60116e-07
-2.05331e-07
-2.92048e-07
-1.01471e-06
-7.22335e-07
-4.8414e-07
-1.38393e-06
8.9734e-07
-1.66207e-06
7.84699e-07
-2.8059e-06
-4.28924e-07
4.72558e-07
2.76226e-06
-1.09505e-06
-8.85741e-06
-6.54991e-08
1.25642e-06
2.30057e-07
8.53149e-06
2.54358e-06
9.37871e-07
8.45708e-05
-8.23458e-07
1.71362e-07
-5.38363e-07
6.55014e-07
2.59237e-06
1.65804e-06
9.67422e-05
-1.96831e-08
2.09389e-07
6.76413e-05
-3.87745e-07
4.78869e-07
-3.6688e-08
3.36054e-07
6.52735e-07
4.62846e-07
-9.54594e-06
5.58472e-07
-5.11689e-07
4.03075e-07
9.07639e-06
-4.26908e-06
2.40604e-07
-2.68311e-07
-1.46217e-08
4.49596e-06
-1.84548e-07
-3.08071e-07
-3.89651e-07
5.95423e-05
-2.06125e-07
5.8978e-08
4.87695e-09
7.80548e-08
-6.39274e-07
-3.37532e-07
-6.04651e-07
2.4426e-08
4.01368e-07
6.48648e-05
-5.99369e-07
3.41013e-07
-6.16418e-07
6.25507e-07
3.88835e-07
5.74467e-07
-6.37403e-06
-1.00816e-07
3.77052e-08
6.67095e-06
-1.58963e-06
-6.41097e-07
1.03504e-06
1.19569e-06
-3.71475e-06
1.03733e-06
-1.48792e-06
3.77569e-06
-8.69454e-06
9.3493e-07
-5.11661e-07
5.36245e-07
8.13639e-06
-6.08406e-07
6.27522e-08
-2.31361e-07
7.77015e-07
-3.35561e-06
-4.33917e-07
1.61149e-06
2.17803e-06
1.42097e-06
-1.02116e-07
1.45423e-07
-1.46428e-06
-1.53823e-06
5.22417e-07
-5.74302e-06
-1.2822e-06
2.56308e-06
5.47795e-06
-2.16037e-06
-7.00139e-06
7.71618e-07
-3.85908e-07
2.24199e-06
6.53406e-06
-1.53805e-06
-3.15905e-08
-2.4632e-07
-5.91326e-07
1.91589e-06
4.91392e-07
-2.94323e-07
1.97183e-07
-4.44623e-06
-8.84399e-08
-2.52795e-07
4.88461e-06
1.30186e-06
6.16843e-06
6.61651e-05
-2.52934e-06
-2.89467e-06
-2.08692e-06
-2.22993e-06
1.9149e-07
-6.25965e-07
4.28396e-08
-3.11214e-07
-4.99767e-07
4.12059e-06
8.95203e-05
-1.63683e-06
-7.68785e-07
-8.59446e-07
-1.52083e-09
-2.68229e-07
1.24395e-06
5.06654e-05
3.84972e-07
3.04493e-07
7.90383e-07
2.27637e-07
-3.03528e-07
-2.34316e-07
-1.86974e-07
-9.55067e-07
3.47662e-07
-1.18803e-06
1.5272e-06
-2.64008e-06
-7.74248e-08
2.32634e-07
2.48487e-06
-1.15142e-06
-8.06243e-06
5.49421e-07
1.25819e-06
-2.97886e-07
7.70412e-06
8.8616e-07
5.86047e-07
8.79881e-05
-5.07285e-07
4.73507e-07
2.86906e-07
1.02578e-06
2.69145e-06
1.26647e-06
9.77911e-05
9.12325e-07
5.11412e-07
6.6594e-05
1.64274e-07
9.84411e-07
4.42734e-08
7.12785e-07
9.19346e-07
7.3382e-07
-8.3214e-06
5.97707e-07
6.46674e-07
7.74617e-08
7.91189e-06
-4.57685e-06
5.57678e-07
-5.02209e-07
-3.77029e-07
4.68477e-06
2.13641e-07
-2.22447e-06
4.76204e-08
6.07108e-05
2.38696e-07
5.68419e-07
7.02393e-07
6.06381e-07
-3.3045e-07
7.57516e-08
-2.66796e-07
3.5353e-08
4.45517e-07
6.2854e-05
-5.37264e-07
2.87353e-07
-5.74014e-07
6.08756e-07
3.40585e-07
4.46579e-07
-7.37323e-06
3.26304e-07
3.15367e-07
7.27833e-06
-1.08553e-06
-2.60365e-07
1.08121e-07
1.23777e-06
-3.73787e-06
7.50542e-07
-8.35784e-07
3.87073e-06
-7.62817e-06
6.71624e-07
-3.69443e-07
5.14502e-07
7.257e-06
-9.87471e-07
-5.59064e-08
-2.09899e-07
1.25328e-06
-1.43152e-06
-7.24545e-08
5.41268e-07
9.62707e-07
1.47167e-06
1.11229e-07
-1.91924e-07
-1.39098e-06
-5.18406e-07
1.82765e-07
-5.3451e-06
-9.16045e-07
1.11628e-06
5.48051e-06
-1.34949e-06
-6.29262e-06
1.15437e-06
-1.05112e-06
9.81994e-07
6.55686e-06
-2.30653e-06
8.90866e-08
-2.54686e-07
-1.21999e-06
2.87613e-06
8.15992e-07
5.42958e-08
3.63581e-07
-5.17712e-06
-2.43622e-07
-5.36712e-07
5.53958e-06
-9.32641e-07
2.46684e-06
6.70609e-05
-1.06769e-06
-1.35933e-06
-6.38383e-07
-4.30096e-07
3.65876e-07
-1.22284e-07
4.11258e-07
4.10684e-07
-1.15441e-06
2.03441e-06
8.62031e-05
-3.17036e-07
3.59478e-07
5.12141e-07
9.499e-07
1.03879e-07
-4.63105e-07
4.58939e-05
1.24025e-06
8.05608e-07
1.2003e-06
7.28818e-07
-7.02357e-08
1.11664e-07
-4.00668e-08
-2.07282e-06
4.18606e-07
-9.84049e-07
2.74214e-06
-2.34089e-06
1.29659e-07
-5.22047e-08
2.26344e-06
-4.70961e-07
-7.63694e-06
8.69864e-07
-1.96406e-08
-6.67289e-07
7.92497e-06
-1.27765e-06
-2.16686e-07
8.73792e-05
6.25703e-07
9.28458e-07
1.46145e-06
1.55444e-06
2.00371e-06
1.29765e-06
9.52464e-05
8.57136e-07
7.58672e-07
6.24266e-05
2.12906e-07
7.5599e-07
3.55046e-07
8.8631e-07
1.06412e-06
8.17871e-07
-7.67059e-06
6.18042e-07
7.79335e-07
-3.83757e-07
7.51411e-06
-4.84366e-06
9.55973e-07
-1.04966e-06
-7.04838e-07
5.12204e-06
5.2014e-07
-3.84647e-06
4.22518e-07
5.88085e-05
8.7163e-07
1.07041e-06
1.34623e-06
1.10502e-06
1.02996e-07
4.30234e-07
1.83053e-07
-1.61058e-07
4.34631e-07
5.97531e-05
-5.08068e-07
4.27459e-08
-4.66678e-07
5.15673e-07
3.42357e-07
3.52391e-07
-7.5711e-06
5.13685e-07
5.12714e-07
7.14232e-06
-1.5529e-06
2.27721e-07
-5.39922e-07
1.8651e-06
-3.86169e-06
4.53888e-07
-1.91078e-07
4.0214e-06
-6.99152e-06
2.94027e-07
-8.1492e-08
2.24794e-07
6.98882e-06
-1.55009e-06
-1.67248e-08
-2.9691e-07
1.86373e-06
-6.85612e-07
-1.46804e-07
2.74797e-07
5.57619e-07
1.22693e-06
1.40506e-07
-4.00829e-07
-9.66609e-07
5.44202e-07
1.57493e-07
-5.69898e-06
-8.37187e-07
-3.28056e-07
6.16253e-06
-3.90348e-07
-7.04195e-06
1.38761e-06
-1.15838e-06
-3.73087e-07
7.57615e-06
-3.35298e-06
-2.49628e-07
-9.27116e-08
-4.5713e-07
3.62972e-06
5.22727e-07
2.41378e-07
6.33524e-07
-5.88153e-06
-7.59738e-07
-6.50212e-07
6.41658e-06
-4.60947e-06
2.96454e-07
6.52407e-05
2.52879e-07
2.20991e-07
4.56926e-07
7.31129e-07
1.05769e-06
8.50049e-07
1.16998e-06
1.39352e-06
-1.52211e-06
9.58812e-07
7.81138e-05
7.5506e-07
8.45444e-07
1.36341e-06
1.07924e-06
3.4132e-07
-1.78722e-07
4.05548e-05
7.95561e-07
7.85607e-07
5.73396e-07
7.20376e-07
1.83748e-07
3.3749e-07
2.58229e-07
-3.29137e-06
5.69494e-07
-8.13757e-07
3.87695e-06
-2.26185e-06
1.51368e-07
-2.32935e-07
2.34342e-06
3.11079e-07
-8.41188e-06
9.62548e-07
-1.17242e-06
-7.32324e-07
9.04299e-06
-2.9051e-06
-2.14477e-07
8.36724e-05
1.50321e-06
1.41277e-06
2.17861e-06
2.02822e-06
1.46959e-06
2.33554e-06
8.9495e-05
7.06681e-07
6.73035e-07
5.79999e-05
5.71907e-07
7.66802e-07
6.80263e-07
8.27223e-07
7.763e-07
7.15307e-07
-7.55294e-06
6.52199e-07
6.36344e-07
-8.10749e-07
7.78183e-06
-5.54411e-06
1.36795e-06
-1.68082e-06
-8.57523e-07
6.07529e-06
6.39221e-07
-4.25151e-06
6.06023e-07
5.51044e-05
1.35609e-06
1.28314e-06
1.8009e-06
1.25009e-06
3.82025e-07
6.32245e-07
4.30599e-07
-3.22141e-07
4.52346e-07
5.69805e-05
-2.55569e-07
-8.38841e-08
-1.56078e-07
4.431e-07
4.21081e-07
3.57793e-07
-7.13722e-06
4.61026e-07
3.49089e-07
6.678e-06
-2.12678e-06
5.58648e-07
-7.43761e-07
2.3119e-06
-4.11956e-06
2.54946e-07
2.06598e-07
4.26404e-06
-7.02715e-06
-9.49231e-08
3.72865e-07
-1.95383e-08
7.2211e-06
-2.15499e-06
2.70341e-07
-5.19437e-07
2.40409e-06
-5.44152e-07
-4.02602e-07
3.46315e-07
6.00439e-07
6.33559e-07
1.53916e-07
-5.341e-07
-2.53375e-07
1.1949e-06
-8.832e-09
-6.54129e-06
-4.05066e-07
-1.05212e-06
6.81241e-06
1.30174e-08
-7.9759e-06
9.24125e-07
-2.90358e-07
-8.08414e-07
8.13753e-06
-3.7243e-06
-3.79415e-07
1.97171e-07
4.50205e-07
3.70435e-06
-2.48008e-07
3.45506e-07
8.80103e-07
-6.9678e-06
-1.16563e-06
-6.66697e-07
7.57452e-06
-6.92235e-06
-1.64488e-06
6.31137e-05
1.0218e-06
9.52456e-07
1.18162e-06
1.32287e-06
1.4826e-06
1.42984e-06
1.47549e-06
1.82753e-06
-1.86616e-06
-3.96967e-07
6.87694e-05
1.34456e-06
8.03918e-07
1.74248e-06
7.94268e-07
3.40169e-07
1.39946e-07
3.66649e-05
-5.35541e-08
4.2972e-07
-1.83224e-07
3.92509e-07
3.37341e-07
2.51262e-07
3.69584e-07
-4.35539e-06
6.65986e-07
-7.46126e-07
4.7757e-06
-2.52849e-06
9.81743e-08
-3.76809e-07
2.80712e-06
9.19457e-07
-9.7983e-06
9.05513e-07
-1.82059e-06
-7.15584e-07
1.05095e-05
-4.39231e-06
-7.42357e-07
7.8762e-05
1.90764e-06
1.78181e-06
2.42902e-06
2.28168e-06
1.20464e-06
2.3958e-06
8.11053e-05
7.8825e-07
1.67787e-08
5.51145e-05
7.70905e-07
8.80222e-07
8.29666e-07
4.37549e-07
1.53499e-07
3.53114e-07
-8.21896e-06
6.05775e-07
5.81184e-07
-9.15083e-07
8.73533e-06
-6.70313e-06
1.45109e-06
-2.1606e-06
-7.49168e-07
7.46522e-06
6.96594e-07
-3.29765e-06
6.5221e-07
4.99572e-05
1.64481e-06
1.11351e-06
1.81397e-06
9.91817e-07
4.09337e-07
6.40672e-07
4.36082e-07
-1.70948e-07
3.24059e-07
5.46678e-05
7.58688e-08
1.86797e-07
1.17549e-07
2.82682e-07
3.04853e-07
2.90015e-07
-6.88253e-06
2.8361e-07
-2.95303e-07
6.74006e-06
-2.43317e-06
6.11637e-07
-6.41364e-07
2.4629e-06
-4.40254e-06
1.62457e-07
4.20353e-07
4.47194e-06
-7.42545e-06
-3.48487e-07
7.07769e-07
-2.22671e-07
7.6129e-06
-2.56744e-06
6.2513e-07
-6.71843e-07
2.61415e-06
-6.9533e-07
-6.17122e-07
4.91429e-07
8.21023e-07
-1.43844e-07
1.97285e-07
-5.90855e-07
5.37413e-07
1.44244e-06
-1.62434e-07
-6.87103e-06
1.51683e-07
-1.2745e-06
6.71384e-06
-6.70417e-08
-8.23658e-06
2.50903e-08
5.55135e-07
-5.50533e-07
8.27393e-06
-3.58522e-06
-4.03696e-07
2.21665e-07
1.00595e-06
3.38101e-06
-6.19715e-07
3.06587e-07
1.00143e-06
-8.10715e-06
-1.22135e-06
-5.42832e-07
8.56331e-06
-5.85507e-06
-4.63375e-06
6.21883e-05
1.50258e-06
1.48498e-06
1.40918e-06
1.98462e-06
1.18307e-06
1.27315e-06
1.09129e-06
1.48535e-06
-1.583e-06
-2.04227e-06
6.33368e-05
1.32967e-06
1.8398e-07
1.50299e-06
1.86121e-07
1.40924e-07
1.73095e-07
3.52291e-05
-7.23114e-07
1.27288e-07
-7.03415e-07
1.1997e-07
3.36656e-07
2.10469e-08
3.60309e-07
-5.08616e-06
7.75314e-07
-8.36911e-07
5.28868e-06
-3.13143e-06
-1.1976e-08
-3.15013e-07
3.45842e-06
1.24878e-06
-1.12508e-05
8.35483e-07
-2.09264e-06
-6.20516e-07
1.18797e-05
-4.31197e-06
-2.00738e-06
7.25159e-05
1.88863e-06
1.72604e-06
2.20881e-06
2.10829e-06
1.16631e-06
2.62563e-07
7.33222e-05
8.45463e-07
-5.3695e-07
5.36764e-05
8.47785e-07
9.33483e-07
8.93182e-07
4.18099e-08
-2.94001e-07
4.67997e-08
-9.27658e-06
5.57101e-07
6.26283e-07
-7.85398e-07
9.72406e-06
-8.42839e-06
2.82839e-07
-1.32156e-06
-1.93837e-07
9.18787e-06
4.73085e-07
-3.8759e-07
6.00982e-07
4.38976e-05
9.83391e-07
5.16231e-07
6.61205e-07
3.47509e-07
4.42647e-07
4.3884e-07
4.4904e-07
2.63135e-07
-5.389e-08
5.26777e-05
3.48391e-07
6.95791e-07
3.52595e-07
6.84887e-08
-1.20583e-09
1.9178e-07
-7.30523e-06
2.70625e-07
-7.10487e-07
7.47128e-06
-2.47929e-06
4.25817e-07
-4.01148e-07
2.45462e-06
-4.49605e-06
1.54451e-07
4.9273e-07
4.44985e-06
-7.90873e-06
-4.64073e-07
6.46036e-07
-3.73719e-07
8.04659e-06
-2.53446e-06
6.52853e-07
-4.38118e-07
2.31972e-06
-9.81668e-07
-6.45013e-07
4.52896e-07
1.17379e-06
-9.21509e-07
3.10416e-07
-6.43606e-07
1.2547e-06
1.64291e-06
-1.63248e-07
-6.20992e-06
5.52068e-07
-1.23597e-06
5.41416e-06
9.39681e-08
-8.35347e-06
-8.1589e-07
1.06146e-06
-3.74842e-07
8.38878e-06
-3.21884e-06
-4.83941e-07
3.30449e-08
1.22182e-06
3.13878e-06
-6.90861e-07
1.91719e-07
9.94732e-07
-8.93651e-06
-1.2709e-06
-2.98688e-07
9.31964e-06
-3.06054e-06
-6.8149e-06
6.32581e-05
1.16785e-06
1.64048e-06
1.12161e-06
1.73187e-06
7.06536e-07
6.88047e-07
8.38344e-07
9.10913e-07
-9.14023e-07
-3.69107e-06
6.31112e-05
9.36297e-07
-3.71934e-07
1.28335e-06
-7.75669e-08
-9.21096e-08
3.19248e-07
3.58575e-05
-1.09938e-06
-4.72687e-08
-9.89018e-07
-5.52606e-08
3.10954e-07
-2.30616e-07
3.40985e-07
-5.37941e-06
9.25207e-07
-1.04533e-06
5.40742e-06
-3.75448e-06
-1.38647e-07
-1.24714e-07
4.01784e-06
1.08923e-06
-1.24777e-05
6.13102e-07
-1.67043e-06
-4.64495e-07
1.29103e-05
-2.33704e-06
-3.23981e-06
6.58802e-05
1.31797e-06
1.17116e-06
1.53883e-06
1.36968e-06
1.25202e-06
-2.03432e-06
6.80764e-05
8.60401e-07
-7.77548e-07
5.30539e-05
8.64695e-07
9.18645e-07
8.83167e-07
-9.20086e-08
-4.3426e-07
-2.93109e-08
-1.01535e-05
5.84012e-07
6.77663e-07
-6.83832e-07
1.0436e-05
-9.3859e-06
-7.70786e-07
7.97735e-07
5.40254e-07
8.81513e-06
3.56805e-09
2.89142e-06
1.86662e-07
3.87796e-05
-5.4743e-07
-2.84258e-07
-6.98254e-07
-3.81484e-07
3.84637e-07
2.96619e-08