/*--------------------------------*- C++ -*----------------------------------*\
| =========                 |                                                 |
| \\      /  F ield         | OpenFOAM: The Open Source CFD Toolbox           |
|  \\    /   O peration     | Version:  5.x                                   |
|   \\  /    A nd           | Web:      www.OpenFOAM.org                      |
|    \\/     M anipulation  |                                                 |
\*---------------------------------------------------------------------------*/
FoamFile
{
    version     2.0;
    format      ascii;
    class       volVectorField;
    location    "1.15";
    object      U;
}
// * * * * * * * * * * * * * * * * * * * * * * * * * * * * * * * * * * * * * //

dimensions      [0 1 -1 0 0 0 0];

internalField   nonuniform List<vector> 
10571
(
(0.0192561 0.164965 0.719349)
(0.046215 0.00550034 0.527436)
(0.0358391 -0.0685765 0.699867)
(-0.0597977 -0.105437 0.758705)
(-0.151453 -0.128527 0.795714)
(0.0230582 -0.00940062 0.772033)
(-0.255408 -0.368691 0.890212)
(-0.0425692 -0.486005 0.953801)
(-0.0531366 -0.389187 0.97822)
(0.0146403 -0.104691 0.937296)
(0.19638 -0.0318936 0.738788)
(-0.0516176 -0.155052 0.89721)
(-0.385335 -0.123321 0.965666)
(-0.026948 -0.0912034 0.96568)
(0.141471 0.00225755 0.998978)
(0.163157 0.0599251 1.00582)
(-0.0954468 -0.101629 0.886954)
(-0.216792 0.104126 0.924225)
(0.0500435 0.237997 0.963195)
(0.190092 0.283397 0.994156)
(-0.00354777 -0.0100169 0.847898)
(0.11493 0.15843 0.970114)
(0.00289244 0.306162 0.905365)
(-0.0828194 0.00887025 0.723849)
(0.385265 -0.0605541 1.0961)
(0.23324 -0.179558 0.545235)
(0.390663 -0.254654 0.603831)
(0.292786 -0.0942981 0.840897)
(-0.0539097 0.0361273 0.816226)
(0.217765 -0.311956 0.785886)
(0.0746434 0.0105007 0.527384)
(0.0860915 0.0904196 0.589163)
(-0.0184714 0.0780254 0.424361)
(-0.169062 0.0127815 0.913481)
(-0.00988729 -0.0480692 0.449391)
(0.0492817 -0.176287 1.04813)
(0.0756189 0.0160786 0.38953)
(0.0449739 0.000391982 0.413747)
(-0.0458598 -0.0440931 0.405823)
(-0.342746 0.13997 1.36722)
(-0.0879383 -0.0845004 0.944941)
(0.0467853 -0.00335509 0.348692)
(-0.0101829 -0.0637387 0.46035)
(-0.0722596 -0.257467 1.23869)
(0.104002 -0.198296 1.00081)
(0.695704 -0.378023 1.11331)
(0.546199 -0.29451 1.66825)
(-0.524473 0.175956 0.883713)
(0.299049 0.175576 3.46771)
(-0.0699001 -0.0460319 0.186074)
(-0.034581 0.0483728 0.454403)
(0.188 0.13479 0.822097)
(0.124501 0.0284381 0.161823)
(0.00996268 -0.064927 0.40177)
(0.225097 0.231578 0.447486)
(0.0565447 0.376991 0.77037)
(-0.0102287 0.155617 1.3491)
(-0.031061 0.0187356 0.574686)
(-0.00488352 0.012781 0.294895)
(0.122303 0.0650482 0.697042)
(0.280207 0.0360249 0.7299)
(0.0704713 0.0267136 1.01146)
(-0.0735817 -0.0756561 1.26217)
(-0.0611804 -0.0197357 0.669222)
(0.066222 0.150162 0.244128)
(0.045758 -0.0872601 0.721529)
(-0.00575085 -0.272593 0.903253)
(-0.0233235 -0.0544565 0.450597)
(-0.00434948 -0.00446542 0.406995)
(-0.059796 -0.0373166 0.257858)
(-0.0256704 -0.288672 0.634474)
(0.0975003 -0.0589287 0.269799)
(0.00399313 -0.0536555 2.64297)
(0.0628727 0.013501 0.420092)
(0.234229 0.0919618 0.738687)
(-0.319404 0.0273178 1.10235)
(-0.39503 -0.157918 -0.0630836)
(0.18335 0.160303 0.666607)
(0.323614 0.211168 1.10525)
(-0.260728 0.118819 0.948502)
(-0.230463 0.0967135 0.500549)
(0.0132562 0.0924465 0.18565)
(-0.0303384 -0.0158973 0.693319)
(0.0259904 -0.169339 0.994727)
(0.147524 -0.2339 0.728416)
(-0.113635 -0.0715018 0.504692)
(-0.0640251 -0.105582 0.440534)
(0.00747402 0.0574113 0.107131)
(-0.149865 -0.37081 0.197926)
(0.28391 -0.226999 0.554457)
(-0.226003 -0.0979101 0.708231)
(-0.0869765 -0.00528872 -0.0333235)
(0.0139575 0.00825014 -0.230327)
(0.191411 -0.118394 0.0366127)
(0.00928638 0.0920198 0.83878)
(-0.178334 0.0842211 0.409029)
(-0.0414638 -0.0207883 1.97126)
(0.0876706 -0.0255636 0.281456)
(-0.149544 -0.0838036 0.328397)
(-0.0554931 -0.0165318 0.616643)
(-0.0387156 -0.0130136 -0.118218)
(-0.0612118 -0.116168 0.300534)
(0.172446 0.126607 0.613538)
(-0.105593 0.0916737 0.744527)
(-0.155975 0.110109 0.533612)
(-0.0146208 0.0588746 0.255775)
(-0.00706405 -0.0456512 0.420944)
(0.0189271 0.0401662 0.491532)
(0.101781 -0.0365935 0.586349)
(-0.0386813 -0.00367489 0.670186)
(-0.044272 -0.12218 0.574441)
(-0.040444 0.0336645 0.236452)
(0.0910449 0.0133695 0.0308028)
(0.217787 -0.107766 0.428241)
(-0.209883 -0.0253076 0.568686)
(0.100322 0.0674087 -0.0741054)
(0.0195401 0.0746102 0.215296)
(0.00229026 0.118579 -0.0757096)
(-0.019139 -0.0452547 0.669886)
(-0.0979313 0.0809291 0.525844)
(-0.0637029 0.0187594 1.93074)
(0.0189289 -0.0156589 0.188548)
(-0.103541 -0.0422024 0.281918)
(0.0648923 -0.056642 0.578964)
(0.144789 0.10397 -0.0536368)
(0.0077601 -0.0211867 0.210113)
(0.138807 0.141173 0.757146)
(-0.0905972 0.0977404 0.86015)
(-0.101748 0.152781 0.539858)
(0.0782552 0.104111 0.13327)
(-0.101509 0.0459867 -0.0135173)
(0.016693 0.01676 0.327119)
(0.0434792 0.0910675 0.323115)
(0.0929852 -0.0106217 0.697707)
(-0.0142135 0.0352337 0.779127)
(-0.00660142 -0.154795 0.560453)
(0.0484963 -0.0366879 0.213697)
(0.0989467 0.0364108 0.121517)
(0.122278 0.135144 0.0819742)
(0.190888 -0.081479 0.459296)
(-0.207648 -0.017481 0.648753)
(0.126172 0.0090428 0.0557073)
(0.0336398 0.0126122 0.291567)
(0.00246352 0.132194 0.0910179)
(-0.0596179 -0.0368958 0.5878)
(0.0879786 -0.006046 0.522671)
(-0.0916171 0.00345407 1.62026)
(-0.0545116 0.0554273 0.0444028)
(-0.0652774 0.0139308 0.335718)
(0.015488 -0.00556469 0.526598)
(0.0849837 0.0892116 0.00395582)
(0.0362078 0.0740231 0.133112)
(0.127246 0.147105 0.699909)
(-0.0485635 0.118106 0.896169)
(-0.0548681 0.204559 0.507967)
(-0.0460438 0.0549518 0.0789209)
(-0.0984526 0.026746 -0.0423422)
(0.0167779 0.0461309 0.295065)
(0.0498486 0.0890136 0.305488)
(0.0814224 0.0180404 0.73864)
(0.00325797 0.0433251 0.836848)
(0.016177 -0.14665 0.596271)
(0.0767058 -0.0880561 0.274659)
(0.0790154 0.0336443 0.162062)
(0.0676786 0.0747244 0.0950588)
(0.146528 -0.0801387 0.486085)
(-0.18012 -0.0205381 0.676012)
(0.0706092 -0.0841741 0.133308)
(0.0735126 -0.0300412 0.226684)
(0.0257065 0.0134501 0.056763)
(-0.08198 0.0140493 0.154318)
(-0.104809 -0.0333174 0.396002)
(0.071216 -0.0462515 0.345337)
(-0.10819 0.00606576 1.42497)
(-0.0507863 0.0745809 -0.0475821)
(-0.0251281 0.0888394 0.361319)
(-0.0276428 0.112024 0.463272)
(0.0292424 0.0669898 0.0732528)
(0.0183309 0.0925986 0.0946425)
(0.0949906 0.130173 0.632097)
(-0.0132378 0.117426 0.868614)
(-0.0156689 0.216057 0.529989)
(-0.0375279 -0.0152336 0.0818545)
(-0.0495616 -0.057697 -0.0517324)
(0.00894342 0.0559764 0.326729)
(0.0603062 0.0834666 0.345457)
(0.0665132 0.0504511 0.748221)
(0.0321315 0.0628191 0.875335)
(0.0414188 -0.0946228 0.634106)
(0.0641342 -0.0769881 0.347826)
(0.0863364 -0.0111923 0.181848)
(0.0279153 0.0318464 0.115081)
(0.140975 -0.0828916 0.527959)
(-0.151404 -0.0377394 0.663416)
(0.0489932 -0.0361583 0.182153)
(-0.0627784 0.0382378 0.124258)
(0.0437938 0.0183134 0.0347775)
(-0.116696 -0.0262618 0.176204)
(-0.0852995 -0.0318085 0.376254)
(0.0700536 -0.0118905 0.0977226)
(-0.0932013 -0.000635762 1.28014)
(-0.0392336 0.0557596 -0.0828958)
(-0.109267 0.185007 0.326103)
(-0.057236 0.146309 0.399182)
(0.000145965 0.0761815 0.0472697)
(0.0257926 0.0697729 0.110496)
(0.05802 0.142167 0.610763)
(0.0303903 0.107474 0.871529)
(-0.00975787 0.196652 0.564346)
(-0.082943 -0.106907 0.0606594)
(-0.0239121 -0.136489 -0.0841678)
(0.0105264 0.0462718 0.391021)
(0.0733802 0.052135 0.385751)
(0.0528402 0.0918532 0.774519)
(0.0560579 0.0888412 0.9168)
(0.0470692 -0.0438511 0.682133)
(0.0545741 -0.0637379 0.39237)
(0.0915905 -0.0623406 0.133494)
(0.00357389 0.01593 0.146726)
(0.134749 -0.085695 0.570661)
(-0.122897 -0.0440141 0.671748)
(0.0653815 0.0230576 0.225623)
(-0.0516894 0.0591084 0.10438)
(-0.11072 -0.0184215 0.189401)
(-0.081881 0.0244913 0.374115)
(0.0341947 0.0082985 0.0467265)
(0.031849 0.092594 0.891919)
(-0.0268418 0.0250733 -0.096149)
(-0.139293 0.209208 0.276185)
(-0.0310282 0.169618 0.339116)
(-0.0242525 0.0392067 0.0420428)
(0.0286005 0.0475323 0.162058)
(0.0293457 0.158728 0.614176)
(0.0405438 0.10272 0.881876)
(-0.0245207 0.152295 0.56271)
(-0.0920467 -0.126256 0.032274)
(0.014842 0.0391549 0.400551)
(0.110202 0.0126748 0.386069)
(0.0368732 0.112573 0.822606)
(0.0574223 0.0926201 0.96787)
(0.0639971 -0.0214265 0.708708)
(0.0114145 -0.0292465 0.342552)
(-0.0079843 0.00330666 0.169772)
(0.0847314 -0.0806259 0.613519)
(-0.0910364 -0.029773 0.690205)
(0.0692691 0.0518857 0.274102)
(-0.033859 0.0641171 0.111213)
(-0.0917862 0.00245243 0.190648)
(-0.0604202 0.0477579 0.331972)
(0.0157073 0.018419 0.0616699)
(0.0765701 0.0551408 0.372822)
(-0.0130947 0.000910725 -0.106607)
(-0.0859318 0.167338 0.241056)
(-0.0307347 0.181042 0.29452)
(-0.0419593 -0.0135366 0.0665566)
(0.0191161 0.0222173 0.207589)
(0.0201262 0.143835 0.638014)
(0.0295346 0.0866444 0.898651)
(-0.0383701 0.0479855 0.561991)
(-0.000252112 -0.0789766 0.0605938)
(0.00874084 0.0100011 0.366957)
(0.125838 -0.030009 0.343437)
(0.00255312 0.0738654 0.877085)
(0.0322549 0.0573238 0.996268)
(0.0742697 0.00163246 0.717603)
(0.0665556 -0.0309888 0.317197)
(-0.0365443 -0.0195269 0.178733)
(0.00334253 -0.0521957 0.644255)
(-0.0793606 -0.0113819 0.678139)
(0.0622958 0.068553 0.311838)
(-0.00103068 0.00563236 0.0986815)
(-0.0526839 0.0322477 0.193513)
(-0.0450979 0.0444525 0.292893)
(0.0161962 0.0160427 0.10143)
(0.0149221 0.0172861 0.164418)
(-0.000989166 -0.0155092 -0.105059)
(-0.0445953 0.0876806 0.236813)
(-0.0885349 0.130295 0.274201)
(-0.0417538 -0.0471972 0.100382)
(-0.00618955 4.80105e-05 0.236808)
(-0.0236654 0.0790679 0.681736)
(-0.00437602 0.0484946 0.901755)
(-0.0288531 -0.05253 0.517148)
(0.0272088 -0.062625 0.122259)
(0.000613209 -0.0188856 0.327145)
(0.051499 -0.0566414 0.341243)
(-0.0447766 0.0109439 0.899605)
(0.00047491 0.0237283 0.987134)
(0.0724127 0.0364278 0.691407)
(0.0513757 -0.0251189 0.294911)
(-0.0779602 -0.0401828 0.192706)
(-0.0580108 -0.0163754 0.638754)
(-0.0798374 0.0200417 0.647618)
(0.0384231 0.0785655 0.314709)
(0.0314574 -0.0166993 0.156531)
(-0.0171441 0.0549727 0.198594)
(-0.0222812 0.0298491 0.274724)
(0.028607 0.00500622 0.155697)
(0.022237 0.00762715 0.0853372)
(0.00700927 -0.0267322 -0.0802909)
(-0.0277705 -0.0159133 0.260889)
(-0.117116 0.0409275 0.321512)
(-0.0153858 0.000924778 0.137915)
(-0.0443301 -0.0107843 0.270725)
(-0.0998049 0.00781341 0.670837)
(-0.0502593 0.0057314 0.842343)
(0.0015836 -0.0742693 0.451029)
(0.0358882 -0.0544648 0.182062)
(-0.0061994 -0.0245682 0.326574)
(-0.0381227 -0.0608216 0.384917)
(-0.0872487 0.0048168 0.869477)
(-0.0147873 0.0263749 0.950988)
(0.0679149 0.0673028 0.634114)
(0.0364486 -0.0411582 0.29868)
(-0.112989 -0.0547128 0.225138)
(-0.0896 -0.0089023 0.60794)
(-0.066532 0.0514916 0.616872)
(0.0166782 0.0589872 0.288878)
(0.0411013 -0.0423837 0.202721)
(-9.58695e-05 0.0695155 0.210966)
(0.0131847 0.020377 0.280369)
(0.0507206 -0.0119708 0.208786)
(0.0636061 0.00752772 0.0804608)
(0.0136624 -0.034798 -0.0321423)
(0.00774721 -0.0711489 0.295858)
(-0.0680141 0.0111778 0.355354)
(0.0174947 0.0517681 0.147371)
(-0.0735516 -0.0156601 0.320377)
(-0.139061 -0.0579869 0.637037)
(-0.0876807 -0.0465294 0.728035)
(0.0208489 -0.0367984 0.396277)
(0.027095 -0.0530549 0.231591)
(-0.0117 -0.0200914 0.379465)
(-0.0978638 -0.053604 0.447929)
(-0.128054 0.00603284 0.814818)
(-0.0221736 0.0303492 0.862922)
(0.0642528 0.0423916 0.589896)
(0.0449496 -0.0447214 0.331834)
(-0.139623 -0.0599289 0.274143)
(-0.0896946 -0.0248577 0.561264)
(-0.0337232 0.0502785 0.588003)
(0.0140677 -0.000758216 0.283048)
(0.0395473 -0.0509576 0.223223)
(0.00658422 0.0779318 0.224022)
(0.0379999 0.0103609 0.29529)
(0.0597758 -0.0249378 0.238627)
(0.0978891 0.00877806 0.107568)
(0.0174142 -0.040872 0.0253222)
(0.0327419 -0.0847795 0.30076)
(0.0110308 0.0212933 0.359338)
(0.0293391 0.0748133 0.136535)
(-0.092876 -0.00454676 0.36692)
(-0.10617 -0.114002 0.619024)
(-0.0853825 -0.0824173 0.645646)
(0.0271719 0.00991272 0.371583)
(0.00449169 -0.0610818 0.263584)
(-0.00971335 -0.00149992 0.471387)
(-0.129307 -0.0469762 0.509342)
(-0.129161 -0.0426343 0.764533)
(-0.0190833 0.00741681 0.771961)
(0.0574962 -0.00257369 0.569348)
(0.0530939 -0.0398143 0.372581)
(-0.0789492 -0.0290478 0.346766)
(-0.0398881 -0.0185375 0.49348)
(0.0244279 0.0022802 0.560557)
(0.0297283 -0.038561 0.312677)
(0.0265714 -0.0348765 0.223924)
(0.00551611 0.0679113 0.22586)
(0.0439376 -0.00142241 0.312856)
(0.0339839 -0.0200472 0.222535)
(0.102656 0.00639593 0.153739)
(0.021011 -0.0463171 0.0805872)
(0.0225708 -0.112949 0.253625)
(0.0769349 -0.00337618 0.36793)
(0.0273216 0.0739264 0.122364)
(-0.109313 0.00954857 0.399534)
(-0.0356534 -0.122825 0.621318)
(-0.0632727 -0.106185 0.621772)
(0.0287639 0.0411441 0.370876)
(-0.0199004 -0.07763 0.27406)
(-0.0039359 0.0206762 0.556158)
(-0.109106 -0.0354993 0.559137)
(-0.0765327 -0.107697 0.69156)
(-0.00682171 -0.0267793 0.707091)
(0.0474 -0.0279796 0.562283)
(0.058846 -0.0407265 0.404369)
(0.0746223 0.0371161 0.362737)
(0.0336881 0.00153647 0.424268)
(0.067792 -0.0376458 0.543551)
(0.0463545 -0.0512646 0.356589)
(0.0101199 -0.00486406 0.22266)
(-0.00634432 0.0166033 0.21114)
(0.0224177 0.00328738 0.334215)
(0.00713577 -0.000391852 0.177031)
(0.084096 0.00352117 0.213344)
(0.0296364 -0.0465512 0.114993)
(0.0223944 -0.12726 0.180394)
(0.109127 -0.0278856 0.377958)
(0.0181716 0.0550256 0.126125)
(-0.0850692 -0.00232832 0.440637)
(0.0061124 -0.0525757 0.63669)
(-0.0407105 -0.11786 0.63663)
(0.0256614 0.0577717 0.384092)
(-0.0456108 -0.0901503 0.268418)
(-0.00363708 0.0368152 0.626499)
(-0.0870664 4.93444e-05 0.589736)
(-0.0153535 -0.117327 0.628131)
(0.00574811 -0.0467609 0.667589)
(0.0387467 -0.0322757 0.559354)
(0.0569736 -0.0469235 0.424143)
(0.12817 0.0681475 0.2909)
(0.0708792 0.00384534 0.384092)
(0.0771991 -0.0530581 0.534646)
(0.0551091 -0.0460806 0.398848)
(0.00418855 0.0113795 0.225038)
(-0.0108824 -0.0213845 0.19411)
(-0.0070323 0.00826665 0.349279)
(-0.0100139 0.012879 0.156752)
(0.0555816 0.00163838 0.260515)
(0.0402747 -0.0394673 0.115621)
(0.0373795 -0.0659664 0.161332)
(0.0839643 -0.0103197 0.397233)
(0.00540472 0.0196384 0.14143)
(-0.0297765 -0.0229109 0.455423)
(0.0256716 0.0667679 0.642051)
(-0.0260658 -0.103811 0.662969)
(0.0287062 0.0710434 0.410436)
(-0.0720768 -0.0879097 0.249097)
(-0.0054086 0.040312 0.690672)
(-0.0511498 -0.0110793 0.612691)
(0.0201494 -0.0697724 0.613801)
(0.010922 -0.0418739 0.642405)
(0.0335875 -0.0260498 0.559751)
(0.0473279 -0.0473717 0.435676)
(0.09259 0.0794132 0.232823)
(0.0749931 -0.00369813 0.361727)
(0.073857 -0.0549628 0.53285)
(0.0514954 -0.0345474 0.43081)
(0.00442187 0.0132486 0.231575)
(0.00172723 -0.0299251 0.185485)
(-0.00736561 0.00359301 0.35007)
(-0.0249116 0.0205617 0.153608)
(0.026377 -0.000928435 0.272567)
(0.0413335 -0.0272836 0.100051)
(0.0240721 0.00183755 0.193905)
(0.049192 0.0220547 0.367971)
(-0.0147292 -0.0240102 0.157336)
(-0.0168686 -0.0281047 0.439203)
(0.0271106 0.108398 0.615599)
(-0.00394858 -0.0446323 0.688268)
(0.0406052 0.094575 0.445857)
(-0.0825662 -0.0703469 0.22874)
(-0.00106711 0.0403147 0.747599)
(-0.0303659 -0.0262293 0.617229)
(0.0407477 0.0012087 0.640445)
(0.0113466 -0.0175028 0.635936)
(0.0339861 -0.00386348 0.566574)
(0.0416678 -0.032989 0.443534)
(0.0424128 0.0712285 0.212545)
(0.0672588 -0.0105821 0.357965)
(0.065207 -0.0473838 0.535545)
(0.0338002 -0.0237084 0.448411)
(0.00499748 0.00650966 0.242829)
(0.0215556 -0.0224073 0.186817)
(0.00537622 -0.0045808 0.34478)
(-0.027824 0.0237077 0.158099)
(-0.000171454 -0.00186058 0.259791)
(0.0349401 -0.0199416 0.0845681)
(0.00544329 0.035768 0.223554)
(0.0287552 0.0224657 0.325173)
(-0.0263734 -0.0594029 0.176406)
(-0.0272931 -0.0473929 0.412894)
(0.0327499 0.0960021 0.577119)
(0.063129 0.0472635 0.687267)
(0.0524625 0.119783 0.484122)
(-0.0675075 -0.0530985 0.221772)
(0.000948942 0.0424289 0.789412)
(-0.0286033 -0.0409823 0.591018)
(0.0606006 0.0543479 0.660951)
(0.0302644 0.0420086 0.654084)
(0.0465424 0.0251307 0.590763)
(0.037049 -0.0150007 0.459601)
(0.0067788 0.0584476 0.224011)
(0.0423102 -0.0210159 0.368646)
(0.0455321 -0.0126378 0.559829)
(0.00244874 -0.00505668 0.451243)
(0.0015046 0.00545314 0.257063)
(0.0344542 -0.00936722 0.199395)
(0.00921835 -0.00201235 0.341314)
(-0.0162343 0.0211056 0.169515)
(-0.0120281 -0.00190666 0.248033)
(0.0297277 -0.0131123 0.0759661)
(0.00344011 0.0440897 0.238197)
(-0.0164366 0.0228438 0.310727)
(-0.0345681 -0.0708792 0.18815)
(-0.0374514 -0.0578494 0.395402)
(0.059912 0.0499625 0.494553)
(0.120221 0.0811911 0.657678)
(0.0479942 0.117982 0.518892)
(-0.0439708 -0.0505463 0.227229)
(-0.00364267 0.0293494 0.823427)
(-0.0362226 -0.0237055 0.564763)
(0.0747742 0.0714249 0.667076)
(0.0643709 0.0931683 0.680962)
(0.0650273 0.039795 0.628419)
(0.0335064 -0.00662539 0.486193)
(-0.00704367 0.0469547 0.233)
(0.00241998 -0.0361783 0.387054)
(0.0191871 0.0224617 0.596964)
(-0.000906324 0.00237733 0.44819)
(-0.00480474 0.0158315 0.276893)
(0.0354518 0.00312544 0.220954)
(-0.00204711 0.0113245 0.345164)
(0.00272097 0.0117072 0.181431)
(-0.0108759 -0.00235661 0.244704)
(0.0284809 -0.0104793 0.0752073)
(0.010657 0.0342671 0.242695)
(-0.051566 0.026842 0.302679)
(-0.0444856 -0.0688141 0.186262)
(-0.00282859 -0.0530786 0.380779)
(0.0803049 0.0221054 0.445545)
(0.133545 0.0789064 0.641138)
(0.0165995 0.0747438 0.546459)
(-0.0235533 -0.0576963 0.234184)
(-0.00736231 0.0110992 0.864372)
(0.0315703 -0.0138713 0.490718)
(0.0779891 0.0672868 0.672987)
(0.0859669 0.104514 0.699349)
(0.0836743 0.0399051 0.674327)
(0.0326005 -0.0118336 0.513208)
(-0.0153805 0.0270375 0.235868)
(-0.0326463 -0.0482428 0.407979)
(-0.00348361 0.0187629 0.613014)
(0.013038 0.00550798 0.440104)
(-0.0125564 0.0316629 0.306558)
(0.026275 0.0123156 0.244153)
(-0.0206374 0.0273284 0.351558)
(0.0180152 8.92478e-05 0.185753)
(-0.00362217 -0.00430163 0.253126)
(0.0229849 -0.0100871 0.0832207)
(0.0131528 -0.00152429 0.250629)
(-0.0672952 0.00658064 0.302772)
(-0.0543423 -0.0672127 0.178396)
(0.0679433 -0.00773083 0.36504)
(0.0885602 -0.00940283 0.414867)
(0.128244 0.0756482 0.637198)
(-0.0241084 0.0102305 0.564944)
(5.11099e-06 -0.0575654 0.240292)
(-0.0228582 -0.0301354 0.91238)
(0.0441455 -0.018943 0.398853)
(0.082917 0.0407272 0.687128)
(0.0880629 0.0960795 0.712883)
(0.0840661 0.0176043 0.713601)
(0.0190555 -0.0294525 0.517038)
(-0.032613 0.00144233 0.239367)
(-0.053092 -0.0467082 0.421306)
(-0.014337 -0.00345315 0.60847)
(0.0327121 0.00674234 0.441258)
(-0.0169998 0.0475622 0.335465)
(0.0104006 0.0146437 0.264928)
(-0.0313129 0.0395861 0.355955)
(0.023281 -0.00173244 0.182926)
(0.00746809 -0.00597106 0.279154)
(0.00948195 -0.00249278 0.0963811)
(-0.00243617 -0.0332516 0.273628)
(-0.0609721 -0.0226509 0.324433)
(-0.0650511 -0.0679865 0.183113)
(0.0876049 0.0255494 0.33933)
(0.077914 -0.0433062 0.388128)
(0.101495 0.0680904 0.637529)
(-0.0310953 -0.0296579 0.56572)
(0.0335319 -0.0494565 0.25446)
(-0.0215151 -0.0482834 0.91)
(0.0575339 -0.0145352 0.360307)
(0.0743386 -0.0145782 0.674838)
(0.077501 0.0697982 0.736968)
(0.0553652 -0.0107517 0.728145)
(0.00758291 -0.0445923 0.492096)
(-0.0467816 -0.0189385 0.245216)
(-0.0572874 -0.029534 0.420981)
(-0.0146323 -0.0218226 0.58265)
(0.0431423 0.00931528 0.451658)
(-0.0222003 0.0607836 0.348118)
(-0.0110345 0.00832599 0.285507)
(-0.0449578 0.0429076 0.357623)
(0.0131568 0.00626466 0.189595)
(0.0132997 -0.00666223 0.316454)
(-0.00509224 0.00553876 0.106751)
(-0.0204224 -0.0262061 0.302756)
(-0.0459607 -0.0461681 0.356854)
(-0.0679398 -0.061374 0.206164)
(0.0580032 0.019069 0.332)
(0.0499745 -0.0517831 0.368754)
(0.041416 0.0430679 0.641708)
(-0.0137988 -0.0506089 0.537709)
(0.0547568 -0.048723 0.269986)
(-0.00971492 -0.0470503 0.87667)
(0.0738171 -0.025033 0.3316)
(0.0411588 -0.0394353 0.643449)
(0.0548703 0.0222317 0.771392)
(0.0239408 -0.0120384 0.720966)
(0.0134752 -0.0287431 0.459381)
(-0.0558329 -0.0439824 0.252688)
(-0.0536476 0.00422091 0.407323)
(-0.0173968 -0.0094898 0.552062)
(0.0488135 0.0171185 0.471435)
(-0.0253156 0.0678556 0.339519)
(-0.0379079 0.00177735 0.310245)
(-0.0607978 0.0307973 0.350581)
(-0.0246718 0.0220317 0.211471)
(0.00933945 -0.00793104 0.360868)
(-0.0147165 0.00759527 0.113699)
(-0.0160669 0.000934321 0.297022)
(-0.030279 -0.0753151 0.399864)
(-0.0565633 -0.0404887 0.247245)
(0.0200707 -0.0124643 0.354241)
(0.0166796 -0.0422587 0.36973)
(-0.0165465 0.00737342 0.632112)
(-0.0165033 -0.0720515 0.468447)
(0.0426871 -0.0568272 0.274693)
(-0.00707052 -0.0379902 0.854115)
(0.0706938 -0.0618005 0.313892)
(0.00441655 -0.0209853 0.611244)
(0.0312525 -0.00298123 0.778748)
(0.0135931 0.0172312 0.701158)
(0.0283139 -0.00612828 0.436838)
(-0.066361 -0.0766104 0.251846)
(-0.0529743 0.0181969 0.399307)
(-0.038871 0.0231059 0.518486)
(0.0486091 0.0351471 0.494939)
(-0.0222989 0.0664959 0.325829)
(-0.0579247 0.00460616 0.338711)
(-0.0650091 0.0292885 0.351652)
(-0.0584675 0.0344818 0.228364)
(-0.00201876 -0.0084705 0.405644)
(-0.0185941 0.00756353 0.119015)
(-0.00238004 0.0207476 0.272232)
(-0.0184 -0.104245 0.44721)
(-0.0277591 -0.0121309 0.290876)
(-0.0123783 -0.0373436 0.389503)
(-0.00948644 -0.0375518 0.378253)
(-0.0584522 -0.0272541 0.604588)
(-0.0502902 -0.0747484 0.394601)
(-0.00652562 -0.0641533 0.256355)
(-0.0077207 -0.0369133 0.839038)
(0.04116 -0.0825125 0.326812)
(-0.0230688 0.00885774 0.577738)
(0.0120284 -0.000146678 0.764101)
(0.0164966 0.0677856 0.638678)
(0.0391056 -0.0128917 0.413407)
(-0.0721641 -0.0949149 0.252205)
(-0.0550675 0.0158775 0.398998)
(-0.0681333 0.0487499 0.48438)
(0.0316643 0.0769963 0.504303)
(-0.00912399 0.0538193 0.335213)
(-0.0499173 0.00959594 0.3827)
(-0.0625549 0.0337422 0.366977)
(-0.0734121 0.0367644 0.24549)
(-0.0159863 -0.00930693 0.449686)
(-0.0156453 0.00923932 0.122507)
(0.00535945 0.0369728 0.253052)
(-0.0150896 -0.122554 0.491687)
(0.00471317 0.0103653 0.331162)
(-0.0325253 -0.0454462 0.428724)
(-0.0203402 -0.0456596 0.386828)
(-0.0809683 -0.0493107 0.5671)
(-0.0797108 -0.0564726 0.337414)
(-0.0293646 -0.0455343 0.236171)
(-0.00209379 -0.0534363 0.826889)
(-0.0104847 -0.07187 0.368708)
(-0.0387211 0.0234642 0.546406)
(-0.022073 0.0144865 0.712981)
(0.0121142 0.0640188 0.575047)
(0.0208126 -0.0393646 0.377981)
(-0.0665287 -0.0870441 0.261865)
(-0.0544967 -0.012492 0.403796)
(-0.0797908 0.0491686 0.461908)
(0.0116397 0.0897757 0.496872)
(0.0156693 0.0287874 0.384415)
(-0.025124 -0.0210228 0.397812)
(-0.0408725 0.0505049 0.392191)
(-0.0465861 0.0157966 0.270332)
(-0.021746 -0.0121465 0.49232)
(-0.00628946 0.00757176 0.124008)
(0.00524848 0.0415905 0.241081)
(-0.0221277 -0.124428 0.530464)
(0.0327843 0.0269397 0.369045)
(-0.0177825 -0.0374446 0.478826)
(-0.0223386 -0.0492088 0.401438)
(-0.0801986 -0.0619778 0.536686)
(-0.0873749 -0.0319295 0.299994)
(-0.0246032 -0.00505407 0.223154)
(0.0299813 -0.11768 0.800735)
(-0.0476732 -0.0658061 0.399485)
(-0.0381033 0.0268715 0.524983)
(-0.0456592 0.0106595 0.666414)
(-0.00872701 0.0290374 0.52928)
(-0.00417151 -0.0336066 0.355944)
(-0.0617752 -0.0574072 0.283686)
(-0.0390697 -0.0409032 0.417912)
(-0.0711033 0.029406 0.455086)
(-0.0163873 0.0583655 0.491956)
(0.0284715 -0.0164668 0.410031)
(-0.0298854 -0.0230293 0.323868)
(0.0258933 0.0145589 0.408948)
(0.0262774 -0.0197933 0.302454)
(-0.0212519 -0.0160913 0.539211)
(0.00740269 -0.00411308 0.134305)
(0.00111909 0.0129669 0.243105)
(-0.0133451 -0.11387 0.55119)
(0.0547654 0.0343901 0.400472)
(0.0438365 -0.0189292 0.538322)
(-0.0218112 -0.032595 0.415675)
(-0.0631058 -0.0698771 0.520611)
(-0.0774069 -0.00850255 0.281422)
(-0.011469 0.0347557 0.218932)
(0.0445989 -0.246437 0.432197)
(-0.0657875 -0.0435776 0.413051)
(-0.0341987 0.0409661 0.511926)
(-0.0496794 -0.00249581 0.640886)
(-0.0292515 0.00537453 0.508215)
(-0.0201503 -0.0157085 0.340304)
(-0.0668839 -0.0440169 0.294898)
(-0.0207293 -0.0333111 0.429807)
(-0.0490932 -0.0105912 0.464011)
(-0.034562 0.0102524 0.497759)
(0.028239 -0.0463527 0.396301)
(-0.00879367 0.00335166 0.272176)
(0.0672455 -0.0371903 0.365919)
(0.0652204 -0.037989 0.316162)
(-0.0287558 -0.00988332 0.581805)
(0.0134612 -0.0104865 0.160241)
(-0.00220706 -0.017607 0.256888)
(-0.011456 -0.0891979 0.554973)
(0.0733322 0.0307021 0.419296)
(0.119757 0.0230487 0.563782)
(-0.0167009 0.0133818 0.429924)
(-0.0334155 -0.0611806 0.513787)
(-0.0577857 0.00904763 0.282334)
(-0.0038691 0.0599363 0.223634)
(-0.0460347 -0.122769 0.416044)
(-0.063926 -0.015484 0.39312)
(-0.0379817 0.0688787 0.503007)
(-0.0408268 -0.00772391 0.627419)
(-0.0372795 0.00192012 0.503779)
(-0.019907 -0.0080243 0.322688)
(-0.0773658 -0.0434023 0.295677)
(0.00285273 -0.00084877 0.439296)
(-0.0378223 -0.0174759 0.476132)
(-0.0397933 -0.00632084 0.499613)
(0.0223746 -0.0494191 0.373748)
(0.00904247 0.0211428 0.252978)
(0.0585041 -0.0277109 0.317818)
(0.0648792 -0.0368435 0.310842)
(-0.0225284 -0.00235045 0.586978)
(0.00857221 -0.00460291 0.190962)
(-0.00754113 -0.0250344 0.266604)
(-0.00793429 -0.0311706 0.557482)
(0.0831198 0.0264997 0.428836)
(0.172159 0.0422731 0.493521)
(-0.00725823 0.0529671 0.431287)
(0.0129973 -0.0182224 0.502272)
(-0.0387603 0.0170714 0.302634)
(0.00131458 0.0724407 0.237203)
(-0.0600523 0.0301839 0.56304)
(-0.0317909 -0.0034316 0.381504)
(-0.0494858 0.0945768 0.503174)
(-0.020485 0.00110423 0.619993)
(-0.0359055 0.00716139 0.504596)
(-0.0139264 -0.0110846 0.310177)
(-0.0850726 -0.0399117 0.291649)
(0.00984632 0.0134828 0.441858)
(-0.0176094 -0.00277295 0.486016)
(-0.0414553 -0.00380065 0.494997)
(0.0199987 -0.0494855 0.352442)
(0.00944033 0.0286813 0.247664)
(0.040677 -0.010105 0.297728)
(0.0530324 -0.0282558 0.291329)
(0.0126248 0.00141065 0.584983)
(0.000752703 0.000685494 0.215704)
(-0.00848275 -0.0287844 0.270229)
(0.0328862 -0.034092 0.518866)
(0.0765376 0.0400779 0.430632)
(0.136262 0.0213786 0.42288)
(0.00340733 0.0736866 0.42488)
(0.0331819 0.0230527 0.489064)
(-0.029832 0.0131837 0.335453)
(0.00353989 0.0755697 0.258723)
(-0.0733623 0.146244 0.726673)
(0.029535 0.00818175 0.384377)
(-0.0581741 0.110521 0.515556)
(0.0187571 0.0295816 0.609586)
(-0.0183313 0.0168087 0.512275)
(-0.00720161 -0.0228227 0.308571)
(-0.0899343 -0.0235445 0.300832)
(0.00656058 0.0117515 0.440821)
(0.0324571 0.0143188 0.498872)
(-0.0288111 0.0142964 0.482412)
(0.0276936 -0.054079 0.342043)
(0.00375153 0.0292225 0.251989)
(0.0276274 0.0026572 0.298057)
(0.0408849 -0.0187274 0.28985)
(0.0244273 0.00469483 0.594407)
(-0.00598262 0.00399269 0.230964)
(-0.00534611 -0.0238398 0.271682)
(0.0384482 -0.0445579 0.463153)
(0.0566327 0.0792428 0.386646)
(0.0807445 -0.00803712 0.38996)
(0.0120692 0.0745812 0.418171)
(0.022714 0.0418318 0.478024)
(-0.0308062 -0.00354642 0.373551)
(0.00359115 0.0713021 0.285153)
(-0.0451114 0.144121 0.872923)
(0.0569033 0.00922399 0.408598)
(-0.0518137 0.114718 0.534654)
(0.0315676 0.0530074 0.60036)
(0.00328584 0.00837717 0.519697)
(-0.0047792 -0.0384756 0.320155)
(-0.0716149 0.00304496 0.338642)
(-0.00879921 -0.00474577 0.42362)
(0.0743664 0.00897434 0.500858)
(0.0355814 0.0166738 0.481145)
(0.0460484 -0.0632162 0.358361)
(0.00175901 0.0259072 0.265445)
(0.0165109 0.00979987 0.306248)
(0.0284605 -0.00590962 0.308895)
(0.0110795 -0.00252698 0.626928)
(-0.0131856 0.0116476 0.241402)
(-0.00822407 0.00338734 0.267753)
(-0.0174992 0.00510887 0.42653)
(0.0605255 0.071156 0.332813)
(0.0563116 -0.021903 0.367573)
(0.0252811 0.0635446 0.415993)
(0.00120779 0.0464873 0.472076)
(-0.0357317 -0.0292939 0.411508)
(0.00458409 0.0632422 0.3129)
(0.0216592 0.122156 0.819817)
(0.052352 -0.0169479 0.457725)
(-0.0330793 0.0990438 0.553637)
(0.0210901 0.0703866 0.598787)
(0.00967744 -0.0232979 0.519312)
(-0.0131136 -0.0463766 0.343611)
(-0.0131442 0.0334966 0.387733)
(-0.0158246 -0.0166056 0.403443)
(0.0900583 -0.00736336 0.490541)
(0.0803891 -0.0021469 0.486403)
(0.0595169 -0.0725186 0.399091)
(0.00280579 0.0185612 0.281853)
(0.00603168 0.0138328 0.313257)
(0.0187802 0.00431454 0.332759)
(-0.0281142 0.000428951 0.648839)
(-0.0228731 0.0234376 0.251728)
(-0.0185395 0.03787 0.267504)
(-0.00954783 0.0625871 0.366144)
(0.0511201 0.0417462 0.320923)
(0.0203285 -0.00849681 0.352556)
(0.04548 0.0499012 0.429063)
(-0.0185312 0.0473247 0.47832)
(-0.0403365 -0.0535462 0.442209)
(0.00864398 0.0559265 0.336758)
(0.0347981 0.0835445 0.516452)
(0.0423203 -0.0477019 0.4974)
(-0.0142532 0.0444415 0.581148)
(0.0089173 0.0843465 0.610956)
(0.00294681 -0.0599736 0.518269)
(-0.0245486 -0.0376315 0.369168)
(0.0377706 0.0410188 0.407135)
(-0.00979444 -0.0117656 0.395432)
(0.0821506 -0.0204583 0.477064)
(0.0942833 -0.0304595 0.484762)
(0.0615668 -0.0870316 0.435234)
(0.00121962 0.00304182 0.298033)
(-0.00254835 0.0170954 0.318196)
(0.00959654 0.0105294 0.349503)
(-0.0249112 -0.0139336 0.626296)
(-0.0287921 0.0309505 0.260137)
(-0.0261623 0.0454941 0.284823)
(0.038728 0.0907773 0.317556)
(0.0301092 0.0181142 0.338739)
(-0.0118782 0.00138544 0.345115)
(0.0626474 0.0284799 0.456399)
(-0.0318623 0.0455566 0.495896)
(-0.0398027 -0.0657455 0.462446)
(0.013182 0.0503122 0.352552)
(0.00882747 0.0462514 0.432451)
(0.0280662 -0.0504384 0.49563)
(-0.00889513 -0.0051331 0.595462)
(-0.00115533 0.0854287 0.633462)
(-0.0074716 -0.0814265 0.520865)
(-0.0257095 -0.0177931 0.382269)
(0.0534876 0.0407182 0.388647)
(0.0103562 0.0120957 0.3917)
(0.0670776 -0.0227853 0.469016)
(0.0845668 -0.0456487 0.470748)
(0.0397786 -0.0820198 0.448917)
(-0.0026512 -0.0152042 0.312668)
(-0.0086825 0.0194477 0.323938)
(-0.00141508 0.0153335 0.359274)
(0.00933443 0.0266579 0.437384)
(-0.0299007 0.0322906 0.262823)
(-0.0263596 0.0244455 0.30304)
(0.050164 0.0639226 0.312308)
(0.0138865 -0.00427837 0.367079)
(-0.0231542 -0.00294917 0.34885)
(0.0621208 -0.00608015 0.478628)
(-0.0303727 0.0400717 0.512767)
(-0.032014 -0.0637315 0.47101)
(0.0161664 0.048655 0.360826)
(0.00336824 0.0377623 0.415027)
(0.00375449 -0.0142394 0.491944)
(-0.00745268 -0.0212466 0.589908)
(-0.00938052 0.061909 0.655911)
(-0.00964619 -0.0911795 0.522974)
(-0.0197528 0.00381004 0.381975)
(0.0566005 0.0494804 0.348337)