/*--------------------------------*- C++ -*----------------------------------*\
| =========                 |                                                 |
| \\      /  F ield         | OpenFOAM: The Open Source CFD Toolbox           |
|  \\    /   O peration     | Version:  5.x                                   |
|   \\  /    A nd           | Web:      www.OpenFOAM.org                      |
|    \\/     M anipulation  |                                                 |
\*---------------------------------------------------------------------------*/
FoamFile
{
    version     2.0;
    format      ascii;
    class       volScalarField;
    location    "5.55";
    object      p;
}
// * * * * * * * * * * * * * * * * * * * * * * * * * * * * * * * * * * * * * //

dimensions      [0 2 -2 0 0 0 0];

internalField   nonuniform List<scalar> 
10571
(
122.239
128.298
127.231
125.121
122.821
130.203
126.403
120.629
114.898
117.317
129.58
132.328
129.33
125.401
120.723
119.874
136.031
134.667
129.808
125.428
121.683
137.255
134.725
129.801
103.271
103.703
105.562
104.278
96.8993
108.74
92.2161
100.03
97.695
92.1565
109.536
107.567
64.5034
57.8919
79.929
89.1025
95.5476
56.007
60.7297
95.4664
86.4153
86.4535
90.4882
85.844
12.0394
4.98584
15.5891
22.1712
14.1111
8.52812
3.47056
3.31103
3.52482
13.258
4.18225
7.52443
2.8859
2.53724
3.01952
10.5127
4.61593
2.64924
2.62322
4.71305
4.65123
3.01499
3.29534
2.80591
2.35051
2.52997
2.32684
2.23712
2.33297
2.45146
1.84939
1.85633
1.78781
2.2225
2.58841
2.48581
2.14132
2.23567
2.05639
2.32408
2.54613
2.18969
2.15072
2.42428
2.49618
2.56297
2.52371
2.54953
2.46771
2.45841
2.45594
2.46339
2.44543
2.4417
2.66671
2.78714
2.64756
2.34511
2.4402
2.44781
2.64612
2.66094
2.61316
2.37556
2.44253
2.50582
2.51331
2.37248
2.3879
2.45985
2.45837
2.44177
2.46991
2.45871
2.46494
2.47919
2.46147
2.45317
2.47199
2.5232
2.47738
2.40838
2.47128
2.44505
2.45263
2.49513
2.51412
2.48543
2.45081
2.46039
2.43479
2.44046
2.45349
2.39242
2.42448
2.4473
2.44211
2.44417
2.47266
2.46016
2.46846
2.47617
2.46728
2.45526
2.46155
2.48776
2.47672
2.45465
2.47751
2.45382
2.45675
2.47406
2.48342
2.48752
2.46768
2.48576
2.44571
2.44604
2.46412
2.44163
2.45286
2.48431
2.46741
2.46604
2.45794
2.47201
2.46008
2.47105
2.47599
2.46809
2.45994
2.47629
2.49118
2.501
2.47072
2.47864
2.45688
2.45994
2.47934
2.48718
2.49834
2.473
2.48712
2.44745
2.4602
2.46979
2.45952
2.46001
2.48434
2.46946
2.47525
2.47306
2.47315
2.46461
2.47237
2.48053
2.4743
2.464
2.48386
2.48327
2.51584
2.47983
2.48698
2.46589
2.45721
2.47495
2.47836
2.50087
2.47504
2.50211
2.44376
2.46843
2.46564
2.46598
2.4534
2.47583
2.4799
2.48289
2.47653
2.4692
2.47026
2.48058
2.48203
2.46642
2.49607
2.47554
2.51424
2.46405
2.46055
2.44971
2.46806
2.46894
2.4792
2.46611
2.46424
2.47264
2.46281
2.46192
2.45404
2.48422
2.48295
2.48413
2.47183
2.46771
2.46817
2.47535
2.47939
2.46921
2.50317
2.46818
2.49123
2.4672
2.45784
2.44806
2.4645
2.46066
2.45611
2.46322
2.46852
2.47706
2.46434
2.45141
2.45017
2.49173
2.48628
2.47532
2.46779
2.46556
2.46556
2.46724
2.47108
2.47347
2.49817
2.4665
2.47038
2.46697
2.46241
2.46095
2.4584
2.45976
2.44775
2.4569
2.46908
2.47702
2.46664
2.43832
2.44531
2.49505
2.48927
2.47425
2.4647
2.46386
2.4633
2.46145
2.46281
2.47084
2.4779
2.46453
2.46106
2.46455
2.46824
2.47112
2.44793
2.4586
2.44081
2.45606
2.46914
2.46802
2.47006
2.4324
2.44727
2.48975
2.49175
2.47937
2.46177
2.46298
2.4602
2.45693
2.45934
2.46643
2.45369
2.46142
2.46075
2.46485
2.46994
2.47339
2.44024
2.45709
2.43551
2.45782
2.46809
2.45611
2.46408
2.43425
2.45571
2.47536
2.47771
2.47893
2.45803
2.461
2.45674
2.44972
2.46112
2.46086
2.44325
2.44876
2.46446
2.46672
2.46693
2.47004
2.44186
2.45373
2.44019
2.46151
2.46906
2.44644
2.45503
2.45272
2.46681
2.47927
2.45093
2.47812
2.45631
2.45795
2.45317
2.44821
2.46369
2.45426
2.43802
2.44233
2.46772
2.46904
2.46128
2.45862
2.44334
2.45347
2.45212
2.4659
2.46434
2.44724
2.4501
2.47434
2.47278
2.49517
2.4471
2.48471
2.45931
2.45737
2.4528
2.45446
2.46577
2.45084
2.44012
2.44816
2.47181
2.47137
2.45489
2.4468
2.45393
2.45857
2.46259
2.46995
2.45681
2.45207
2.46121
2.47792
2.4741
2.4689
2.46734
2.47027
2.4665
2.46359
2.46091
2.46312
2.47012
2.45495
2.45736
2.45666
2.47403
2.47384
2.45601
2.44577
2.46802
2.4688
2.4721
2.47397
2.4566
2.46987
2.47221
2.48143
2.47683
2.47243
2.47138
2.48029
2.47558
2.47529
2.47303
2.47388
2.47605
2.46954
2.47623
2.46659
2.47777
2.47863
2.46718
2.46106
2.4744
2.47549
2.4801
2.47955
2.4638
2.47029
2.48207
2.48239
2.48071
2.49704
2.53495
2.49849
2.48448
2.48763
2.48456
2.48317
2.48101
2.48555
2.48885
2.47984
2.48331
2.48546
2.48211
2.47914
2.48123
2.48223
2.48569
2.48547
2.47648
2.47324
2.47739
2.48159
2.48459
2.48301
2.51194
2.49382
2.49185
2.49793
2.49658
2.49043
2.48452
2.49783
2.49695
2.49043
2.49109
2.49204
2.4946
2.49275
2.4816
2.48697
2.48806
2.49074
2.49017
2.48894
2.48779
2.48593
2.48995
2.48099
2.49421
2.49283
2.49803
2.50547
2.5071
2.49469
2.4906
2.50658
2.50483
2.49545
2.49752
2.49731
2.50438
2.49899
2.48982
2.49438
2.48909
2.49458
2.49489
2.49482
2.49648
2.49871
2.49538
2.48541
2.49296
2.49756
2.505
2.51032
2.51418
2.50121
2.49851
2.5112
2.51206
2.49966
2.50257
2.5011
2.50944
2.50535
2.50151
2.50262
2.49295
2.49804
2.49863
2.49405
2.50249
2.50221
2.49753
2.49371
2.49596
2.49971
2.51173
2.51212
2.51193
2.50847
2.50782
2.51331
2.51575
2.50542
2.50673
2.50368
2.51002
2.50977
2.5066
2.50712
2.49547
2.50119
2.50331
2.4927
2.50511
2.49907
2.49834
2.50199
2.49701
2.49782
2.5185
2.51144
2.50598
2.51222
2.51777
2.51346
2.51032
2.50146
2.50777
2.50466
2.51076
2.50835
2.50669
2.50734
2.49807
2.50292
2.50558
2.49205
2.50399
2.49693
2.49952
2.50446
2.49762
2.49764
2.52276
2.51076
2.51196
2.52582
2.5206
2.50955
2.51308
2.50414
2.50664
2.50435
2.5111
2.50438
2.5034
2.50304
2.50256
2.50353
2.50188
2.49356
2.50355
2.49695
2.50235
2.502
2.50115
2.50192
2.51971
2.51023
2.5152
2.52488
2.51867
2.50496
2.51569
2.50745
2.50287
2.50318
2.50058
2.49559
2.5027
2.49941
2.50546
2.5037
2.49947
2.50041
2.50176
2.50343
2.50719
2.505
2.50348
2.50646
2.5187
2.50947
2.51537
2.51952
2.51513
2.50384
2.51119
2.50646
2.49768
2.50072
2.49913
2.49863
2.50184
2.50264
2.50601
2.5037
2.50349
2.50841
2.50277
2.50917
2.51126
2.50951
2.50624
2.50926
2.51736
2.50835
2.51118
2.51328
2.51054
2.50402
2.50575
2.50373
2.49503
2.50025
2.50231
2.50121
2.50099
2.50489
2.50652
2.50406
2.50777
2.51113
2.50485
2.51188
2.51268
2.51195
2.5083
2.51045
2.50974
2.5054
2.50483
2.50681
2.50642
2.50426
2.49685
2.50158
2.49508
2.50215
2.50394
2.49925
2.50031
2.50487
2.5071
2.50449
2.50945
2.51175
2.50716
2.51179
2.51179
2.51115
2.50945
2.51041
2.50482
2.50243
2.49929
2.5031
2.50351
2.50391
2.4877
2.4994
2.49499
2.50354
2.50489
2.50053
2.49937
2.5038
2.50602
2.50531
2.50766
2.51057
2.50884
2.51026
2.5099
2.50971
2.50897
2.50934
2.50186
2.50166
2.4971
2.50018
2.50195
2.50294
2.48663
2.50031
2.49595
2.5034
2.50642
2.50313
2.50097
2.50284
2.50385
2.5061
2.50717
2.50952
2.50808
2.50837
2.50812
2.50919
2.50779
2.50767
2.50091
2.50252
2.49788
2.4987
2.50244
2.50235
2.49185
2.50329
2.50122
2.50401
2.50615
2.50427
2.50198
2.50222
2.50221
2.50578
2.50748
2.50807
2.50609
2.50646
2.50649
2.50939
2.50623
2.50552
2.50151
2.50366
2.49973
2.50011
2.50448
2.5033
2.49882
2.50655
2.50883
2.50567
2.50386
2.5027
2.49998
2.50072
2.50093
2.5043
2.50433
2.503
2.50254
2.50424
2.50487
2.51009
2.50502
2.50322
2.50267
2.50432
2.50145
2.50124
2.50675
2.50358
2.5048
2.50858
2.51019
2.50554
2.5015
2.49998
2.49724
2.49945
2.50214
2.50254
2.49885
2.49585
2.50116
2.50208
2.50394
2.50761
2.5039
2.50168
2.50414
2.50558
2.50306
2.50237
2.50798
2.50471
2.50737
2.50784
2.50691
2.5045
2.5017
2.49927
2.49641
2.50017
2.504
2.50087
2.49522
2.4916
2.5019
2.50086
2.50471
2.50444
2.5053
2.50263
2.50599
2.50724
2.50504
2.50426
2.50862
2.50646
2.50711
2.50572
2.50401
2.50574
2.50499
2.50281
2.49957
2.50245
2.50665
2.50506
2.49795
2.49408
2.50337
2.50287
2.50745
2.50362
2.50805
2.50723
2.50775
2.50889
2.5074
2.50633
2.50887
2.50611
2.506
2.50425
2.50295
2.50834
2.50807
2.50597
2.50437
2.50591
2.51068
2.5101
2.50364
2.499
2.50638
2.50822
2.51113
2.5046
2.51043
2.5116
2.50886
2.50959
2.50946
2.50795
2.50867
2.5085
2.50845
2.50406
2.50297
2.51027
2.51069
2.51067
2.50766
2.50907
2.51164
2.51349
2.51017
2.50461
2.50967
2.51152
2.51252
2.5059
2.51219
2.51396
2.50921
2.50958
2.5108
2.5087
2.50798
2.51046
2.51033
2.50589
2.50118
2.51012
2.51539
2.52142
2.51098
2.51068
2.51163
2.51478
2.51702
2.50943
2.51129
2.51466
2.52149
2.50797
2.51293
2.51554
2.50891
2.5101
2.51006
2.50828
2.50695
2.50971
2.50769
2.50534
2.50047
2.50896
2.51597
2.51845
2.51433
2.51102
2.50967
2.51219
2.51667
2.51207
2.51105
2.51601
2.51768
2.50937
2.51288
2.51453
2.5088
2.51054
2.50916
2.5074
2.50587
2.50987
2.50674
2.50483
2.50273
2.50821
2.51372
2.5145
2.51495
2.51228
2.50583
2.51001
2.51394
2.51134
2.51083
2.51493
2.51252
2.51002
2.51272
2.5132
2.50952
2.51127
2.50934
2.50799
2.50728
2.51047
2.50833
2.50568
2.5063
2.5089
2.51139
2.51151
2.51401
2.51309
2.50614
2.50941
2.51119
2.51056
2.51104
2.51054
2.50926
2.5105
2.51288
2.51254
2.51124
2.51241
2.51095
2.50909
2.51115
2.51114
2.51075
2.50582
2.51015
2.511
2.50985
2.50949
2.51226
2.51385
2.5091
2.51095
2.50935
2.51081
2.51116
2.50675
2.50852
2.51119
2.51348
2.51286
2.51359
2.51381
2.51327
2.51212
2.51502
2.51197
2.51233
2.50885
2.51589
2.5142
2.50913
2.50842
2.50938
2.51418
2.51247
2.51401
2.5093
2.51149
2.51044
2.50507
2.51066
2.51177
2.51435
2.5121
2.51574
2.51483
2.51529
2.51507
2.51689
2.51284
2.51502
2.51521
2.52129
2.51749
2.50905
2.50771
2.50557
2.51393
2.51774
2.51696
2.51069
2.51266
2.5105
2.50764
2.51457
2.51276
2.51507
2.51259
2.51757
2.51557
2.51632
2.51708
2.51755
2.51392
2.51811
2.51914
2.52112
2.5192
2.51007
2.50753
2.50645
2.51444
2.52012
2.51742
2.5131
2.51474
2.51143
2.51239
2.51731
2.51426
2.5155
2.51424
2.51885
2.51642
2.51687
2.51821
2.51816
2.51534
2.5176
2.5203
2.519
2.51912
2.51245
2.50831
2.51616
2.51264
2.51817
2.51668
2.51614
2.51615
2.512
2.51499
2.51763
2.51622
2.51605
2.51583
2.51972
2.51749
2.51721
2.51915
2.51882
2.51691
2.51614
2.52063
2.51738
2.51847
2.51674
2.51183
2.5262
2.5119
2.5156
2.51639
2.51844
2.51657
2.51269
2.51436
2.51733
2.51817
2.51624
2.51651
2.52027
2.5187
2.51802
2.51956
2.5191
2.51856
2.51665
2.51931
2.51722
2.51811
2.522
2.51607
2.53034
2.52082
2.51526
2.51699
2.52057
2.51749
2.51493
2.51461
2.51799
2.52123
2.51768
2.51682
2.52015
2.5199
2.51903
2.51963
2.51912
2.5203
2.51865
2.51797
2.51781
2.51815
2.52597
2.52129
2.53009
2.52942
2.51831
2.51845
2.52416
2.51799
2.51661
2.51559
2.51884
2.52372
2.52013
2.5176
2.51972
2.52079
2.51965
2.51972
2.51892
2.5212
2.51971
2.51804
2.51696
2.5179
2.52767
2.5259
2.52584
2.52738
2.52031
2.51927
2.53239
2.51892
2.51726
2.51559
2.51858
2.52428
2.5219
2.51939
2.5192
2.52088
2.51985
2.52025
2.51825
2.52177
2.51981
2.51809
2.51614
2.51717
2.52727
2.52538
2.5214
2.52366
2.51933
2.51844
2.53834
2.52156
2.51725
2.51572
2.51719
2.52301
2.52191
2.52054
2.51913
2.52294
2.52074
2.51905
2.51711
2.5227
2.52045
2.5174
2.515
2.51574
2.5262
2.52443
2.51878
2.51976
2.51608
2.5161
2.53167
2.51982
2.51672
2.51435
2.51478
2.52118
2.51971
2.51915
2.51858
2.5235
2.52153
2.51781
2.51575
2.52329
2.5205
2.5162
2.51297
2.51352
2.52535
2.5236
2.51719
2.51556
2.51158
2.51252
2.52767
2.51727
2.51407
2.51139
2.51148
2.51934
2.51606
2.51537
2.51788
2.52386
2.52165
2.5169
2.51405
2.52367
2.51966
2.51489
2.51022
2.5104
2.52426
2.52261
2.51608
2.51141
2.50708
2.50817
2.52381
2.51521
2.5104
2.50745
2.507
2.51845
2.51239
2.51059
2.51767
2.52466
2.52209
2.51661
2.51211
2.52467
2.52203
2.51387
2.50658
2.50574
2.52315
2.52196
2.51471
2.50835
2.50117
2.5019
2.52123
2.51359
2.50671
2.50291
2.50126
2.51657
2.50952
2.50625
2.51826
2.52655
2.5238
2.51731
2.50974
2.52685
2.52687
2.51354
2.5007
2.498
2.52395
2.52208
2.51604
2.50535
2.49346
2.4917
2.52086
2.51527
2.5042
2.49796
2.49302
2.51404
2.50728
2.50138
2.51979
2.52961
2.52624
2.51834
2.50673
2.53
2.52848
2.51388
2.49044
2.4842
2.52785
2.52464
2.52147
2.50219
2.47984
2.47288
2.5235
2.51906
2.50285
2.48988
2.47878
2.51824
2.50651
2.49743
2.52227
2.53391
2.5298
2.51982
2.50291
2.53431
2.52949
2.51226
2.47325
2.45709
2.53394
2.53004
2.52817
2.49732
2.45734
2.43403
2.52835
2.52142
2.4991
2.47701
2.45426
2.52003
2.50533
2.48906
2.52622
2.53951
2.53443
2.52171
2.49877
2.53977
2.53055
2.5059
2.44499
2.40234
2.54076
2.53696
2.53313
2.48972
2.42117
2.34681
2.53464
2.52572
2.49516
2.45836
2.40966
2.52626
2.50371
2.47949
2.53142
2.54577
2.53953
2.52452
2.49573
2.54616
2.53208
2.49562
2.4056
2.26265
2.54808
2.54265
2.53308
2.47995
2.37121
2.14934
2.54335
2.52816
2.49128
2.43879
2.32435
2.53352
2.50569
2.4731
2.53757
2.55125
2.54428
2.52948
2.49556
2.55228
2.53296
2.48177
2.36593
1.89357
2.55548
2.55072
2.53251
2.46786
2.32
1.85255
-2.12685
2.55534
2.53341
2.49409
2.41907
2.14334
2.54061
2.51287
2.47469
2.5448
2.55491
2.54783
2.536
2.49997
2.55781
2.53685
2.48837
2.36367
1.68226
0.0585283
2.56147
2.55674
2.5312
2.47203
2.31209
1.82523
-0.0021589
2.56451
2.54386
2.50457
2.42231
1.95792
2.55304
2.53206
2.4929
2.55105
2.55661
2.54874
2.54195
2.51467
2.55768
2.54106
2.50491
2.39836
1.91866
0.496893
2.56411
2.55916
2.53111
2.47985
2.36543
1.86883
0.458068
2.56774
2.55703
2.51913
2.45727
2.15097
0.73511
2.56678
2.55266
2.5223
2.55689
2.54965
2.54927
2.54906
2.5375
2.55243
2.53999
2.52427
2.47085
2.05938
0.562
2.56432
2.56086
2.53526
2.4992
2.43289
2.05003
0.400816
2.5771
2.57011
2.5467
2.48235
2.30528
2.58231
2.57474
2.54992
2.56233
2.53636
2.54627
2.55618
2.55965
2.54605
2.53898
2.54624
2.52014
2.29053
2.56099
2.55786
2.54607
2.53187
2.50773
2.21163
-0.624791
2.57372
2.57493
2.56728
2.53517
2.52842
2.59504
2.58802
2.57649
2.56111
2.53369
2.54114
2.55494
2.56246
2.54078
2.53607
2.54955
2.54185
2.53083
2.55465
2.54943
2.54525
2.5428
2.54013
2.51264
2.56488
2.56168
2.56332
2.55809
2.57643
2.57991
2.57904
2.58142
2.55534
2.54655
2.53995
2.55151
2.55913
2.53571
2.5383
2.54794
2.5493
2.56348
2.54505
2.53935
2.54296
2.54629
2.54775
2.56575
2.55283
2.55488
2.55953
2.56049
2.57536
2.56752
2.56792
2.57561
2.55004
2.54052
2.53457
2.547
2.55331
2.53007
2.53773
2.54474
2.54786
2.56301
2.53984
2.5338
2.54164
2.54599
2.54699
2.56582
2.54451
2.54932
2.55434
2.55807
2.56963
2.55959
2.5604
2.56539
2.54708
2.53779
2.53648
2.54471
2.54848
2.53527
2.53922
2.54285
2.5443
2.55612
2.54266
2.5378
2.54213
2.54452
2.5436
2.55823
2.54337
2.54666
2.55011
2.55325
2.56154
2.55465
2.55553
2.55864
2.54905
2.54
2.53769
2.54547
2.54751
2.5424
2.54019
2.54028
2.54048
2.55202
2.54957
2.54528
2.54239
2.54016
2.53863
2.54957
2.54995
2.54736
2.54709
2.54944
2.55444
2.55168
2.55268
2.55456
2.55802
2.54141
2.5411
2.55065
2.55462
2.54743
2.54191
2.54393
2.54464
2.55465
2.55835
2.55255
2.54235
2.53978
2.53589
2.54031
2.56065
2.55221
2.54945
2.54742
2.54849
2.55657
2.554
2.55363
2.5775
2.54723
2.54583
2.56281
2.57283
2.54935
2.54477
2.54368
2.55067
2.56695
2.56942
2.5587
2.54365
2.53767
2.53756
2.5373
2.57255
2.55756
2.55002
2.54873
2.54708
2.56937
2.56067
2.55858
2.59925
2.55755
2.56167
2.57972
2.58952
2.55351
2.54726
2.54924
2.55704
2.57788
2.5807
2.56449
2.54774
2.54396
2.54535
2.55296
2.58039
2.56461
2.55712
2.55543
2.56046
2.57905
2.57089
2.56658
141.289
134.546
137.023
136.225
131.415
137.747
138.981
143.692
141.286
143.218
140.167
141.118
138.542
137.385
136.376
137.209
138.226
137.847
140.826
138.566
135.932
145.444
148.29
133.944
140.005
141.486
138.313
136.533
138.842
139.324
138.724
138.395
141.883
136.733
133.313
137.562
133.739
131.775
128.213
131.706
129.189
124.152
127.893
127.883
128.976
134.466
135.979
135.529
137.228
141.331
143.953
140.21
143.997
145.289
147.084
139.292
136.172
143.469
138.912
134.26
132.226
136.36
133.566
130.763
131.249
132.25
133.76
134.291
135.036
136.287
149.8
151.656
149.873
155.664
154.686
146.733
140.92
149.804
146.938
139.44
136.857
147.18
144.81
138.238
141.608
146.882
145.829
142.472
156.083
153.361
150.372
152.391
148.943
149.206
151.17
150.175
126.575
119.441
122.967
125.916
125.722
118.448
120.655
119.496
124.981
123.928
118.03
116.89
114.746
123.124
109.802
129.013
123.742
128.025
129.29
128.914
121.384
122.322
124.807
124.8
121.457
119.092
119.387
109.072
106.122
111.673
108.671
119.09
106.095
129.506
128.66
130.589
127.057
127.31
127.396
119.331
116.271
108.127
109.436
105.781
131.83
132.788
127.963
127.801
127.405
116.489
120.206
109.37
104.879
109.64
133.894
124.205
137.013
136.677
138.009
126.561
129.165
123.073
127.081
123.762
128.106
125.205
117.836
112.602
116.728
111.042
108.303
137.384
124.466
136.738
134.264
127.628
126.97
124.564
132.284
132.572
124.848
121.435
123.366
116.266
103.312
74.9114
104.322
104.735
104.501
81.4143
78.919
80.8215
102.55
100.258
81.8858
80.9813
78.9691
97.2643
76.408
106.214
74.837
103.927
105.554
107.181
72.2256
74.9565
73.9393
76.5971
94.8242
102.062
97.2531
78.0094
74.0098
84.7679
77.198
93.151
68.679
108.946
110.32
109.635
76.051
76.0595
75.3314
91.9376
88.2135
65.737
65.3698
62.2728
107.627
103.677
74.6695
72.2176
68.2114
86.288
86.9319
61.7014
60.6082
58.4514
97.82
61.6805
95.0553
91.0664
89.5275
55.937
51.592
46.9432
45.9651
89.8295
87.8379
86.1875
55.4112
56.5314
48.7085
50.4207
55.5742
87.2738
40.284
88.6119
87.6601
38.669
42.0586
39.9176
87.7749
89.165
44.5339
41.7993
41.5456
42.4032
5.94136
2.04232
10.2593
10.6378
14.8278
2.05915
2.17337
2.39646
17.5581
13.9415
2.03873
2.46239
2.27023
8.31157
2.01414
4.76122
1.99841
8.23945
6.92005
11.4817
2.07195
2.13889
2.08668
2.34494
7.11289
22.5769
12.1043
2.2242
1.90376
2.47136
2.09466
9.58979
1.92332
5.93143
4.64554
6.42502
1.91392
1.81158
1.91009
12.3335
14.5215
1.87345
2.1087
1.77845
6.26812
6.78212
1.8098
1.92517
1.97816
13.6597
8.32889
2.04011
1.79662
1.65897
4.90649
2.05556
4.53201
2.79991
3.36161
2.01605
1.99446
2.01318
2.01744
4.39121
3.38985
2.88237
1.84548
1.82434
1.89185
1.85851
1.68244
2.77084
2.04608
3.28803
2.87884
1.96007
1.97594
1.98186
3.08108
2.76433
1.95535
1.87864
1.96077
1.90637
2.49853
2.44151
2.39416
2.3872
2.35553
2.47478
2.44152
2.4542
2.31312
2.363
2.48699
2.47784
2.47402
2.39921
2.46145
2.57195
2.40933
2.46983
2.51764
2.40282
2.42088
2.42964
2.4142
2.43237
2.40191
2.22524
2.31147
2.43099
2.42696
2.48298
2.39478
2.35903
2.42951
2.56646
2.58636
2.55409
2.39644
2.40007
2.37536
2.21043
2.1754
2.33041
2.29615
2.31915
2.5474
2.54889
2.3908
2.35857
2.3762
2.271
2.39705
2.33004
2.35222
2.322
2.55739
2.35932
2.49802
2.5462
2.53291
2.36288
2.33289
2.34938
2.32209
2.47628
2.51926
2.51276
2.24507
2.27733
2.29282
2.32564
2.3161
2.54256
2.31106
2.53463
2.53283
2.33379
2.32067
2.33468
2.56348
2.52605
2.30588
2.32951
2.32611
2.30768
2.45396
2.45764
2.46604
2.45183
2.4598
2.46568
2.45971
2.4624
2.4603
2.46046
2.46835
2.46309
2.4649
2.45623
2.4586
2.45924
2.44875
2.45236
2.45524
2.44458
2.4537
2.45381
2.45148
2.44627
2.45001
2.41904
2.41366
2.45795
2.45833
2.41988
2.42533
2.39635
2.41431
2.44907
2.44272
2.4436
2.4471
2.44711
2.44089
2.35675
2.39978
2.3705
2.39359
2.31514
2.44045
2.43961
2.44454
2.4362
2.43302
2.41009
2.38763
2.40116
2.31168
2.41707
2.44759
2.42833
2.43389
2.45261
2.45179
2.42702
2.41552
2.42888
2.40744
2.40891
2.4452
2.44569
2.33877
2.37779
2.39665
2.41351
2.39903
2.46606
2.40202
2.45873
2.45297
2.42228
2.41869
2.43047
2.44993
2.45775
2.41333
2.4204
2.43397
2.39418
2.45973
2.46284
2.46661
2.46307
2.46516
2.46798
2.46774
2.46794
2.46694
2.47108
2.47155
2.46979
2.47299
2.46131
2.46352
2.45298
2.45534
2.45711
2.45593
2.44939
2.46001
2.45933
2.45779
2.45208
2.4582
2.43391
2.44274
2.46477
2.46079
2.43693
2.43967
2.42405
2.43012
2.44961
2.4474
2.44423
2.45261
2.45233
2.44948
2.45451
2.44194
2.51616
2.424
2.47903
2.44327
2.46202
2.48133
2.46295
2.47977
2.47501
2.48262
2.4842
2.48357
2.44045
2.43988
2.45055
2.44709
2.44699
2.49164
2.44037
2.44795
2.46024
2.45485
2.45945
2.4698
2.47855
2.47579
2.48277
2.48626
2.48274
2.48106
2.48494
2.43969
2.44496
2.41709
2.44211
2.43297
2.44061
2.42661
2.44896
2.43558
2.42857
2.45233
2.45124
2.42142
2.44176
2.44881
2.44971
2.44189
2.44759
2.44278
2.43665
2.4416
2.4598
2.44919
2.45481
2.44824
2.45106
2.45694
2.46142
2.46537
2.44647
2.46586
2.46709
2.4697
2.47106
2.47049
2.47166
2.47251
2.47271
2.47163
2.47224
2.47247
2.47188
2.4699
2.4652
2.46599
2.45566
2.45593
2.46148
2.45681
2.4543
2.4599
2.46328
2.4554
2.4563
2.46469
2.4388
2.45401
2.46594
2.46336
2.44139
2.45568
2.4423
2.47838
2.44591
2.47885
2.47714
2.48426
2.47604
2.48539
2.45442
2.45487
2.4523
2.45594
2.45545
2.45319
2.48613
2.45489
2.4773
2.45854
2.47901
2.45759
2.4839
2.4829
2.48041
2.48264
2.47625
2.48402
2.47958
2.48536
2.45183
2.45174
2.456
2.45547
2.4543
2.4711
2.46769
2.47913
2.47092
2.48283
2.47315
2.48216
2.48345
2.48377
2.4847
2.4853
2.48757
2.48666
2.4863
2.44873
2.45041
2.44006
2.45497
2.44107
2.44868
2.45237
2.45997
2.44965
2.45666
2.45885
2.45921
2.45217
2.46675
2.46435
2.46549
2.48338
2.45845
2.48535
2.48733
2.48386
2.48867
2.45291
2.46178
2.45795
2.46309
2.46934
2.46359
2.46834
2.47124
2.47122
2.47192
2.47866
2.47446
2.46753
2.46781
2.46895
2.474
2.47267
2.47431
2.47555
2.47241
2.47494
2.47229
2.46927
2.4726
2.47318
2.4694
2.46843
2.47065
2.45657
2.45861
2.46498
2.45468
2.45766
2.46173
2.46628
2.45745
2.46033
2.46979
2.44513
2.46468
2.46953
2.47326
2.45717
2.47242
2.45565
2.48089
2.4574
2.48315
2.47773
2.48666
2.48224
2.4894
2.45764
2.45506
2.45493
2.4605
2.4555
2.45756
2.48674
2.46435
2.4868
2.47786
2.48915
2.4729
2.49068
2.4867
2.48131
2.48757
2.48316
2.48989
2.48734
2.49114
2.45911
2.45422
2.46119
2.46241
2.45151
2.48845
2.47655
2.49111
2.47548
2.49145
2.47841
2.49373
2.49027
2.48852
2.48887
2.4924
2.49497
2.49075
2.4928
2.44804
2.44536
2.46084
2.46112
2.45728
2.44189
2.46189
2.45935
2.4627
2.46974
2.46842
2.47007
2.46456
2.46774
2.47212
2.47202
2.48771
2.45549
2.48678
2.48998
2.48796
2.49363
2.46667
2.46975
2.46807
2.47359
2.47139
2.47185
2.47857
2.48325
2.4777
2.47867
2.48482
2.47959
2.47955
2.46988
2.47018
2.47726
2.47268
2.47469
2.47788
2.47228
2.47398
2.47369
2.47059
2.47593
2.47374
2.47284
2.47368
2.47692
2.46416
2.46846
2.46743
2.46219
2.46545
2.46759
2.46813
2.46704
2.46918
2.47815
2.47362
2.47855
2.47909
2.48225
2.48463
2.48554
2.47299
2.47521
2.46473
2.46306
2.46285
2.46803
2.46838
2.46601
2.49739
2.48411
2.50166
2.47383
2.49161
2.48213
2.49589
2.49325
2.49767
2.49469
2.49819
2.49486
2.51008
2.49783
2.46519
2.44868
2.46486
2.46262
2.45212
2.4979
2.47319
2.49797
2.46956
2.49073
2.46427
2.4861
2.49809
2.4934
2.49573
2.51166
2.50125
2.50191
2.4965
2.44655
2.45756
2.46013
2.46087
2.46566
2.45379
2.46159
2.4669
2.46975
2.46375
2.47473
2.4729
2.46481
2.459
2.47576
2.47296
2.45362
2.4735
2.47883
2.47489
2.48226
2.48042
2.47809
2.48386
2.48349
2.47946
2.48108
2.48064
2.47911
2.48558
2.46732
2.46341
2.47555
2.47004
2.47235
2.47204
2.4667
2.46992
2.47446
2.47449
2.47449
2.47376
2.47521
2.47889
2.47846
2.47229
2.4735
2.46727
2.47079
2.4711
2.46881
2.46501
2.47203
2.46994
2.48357
2.48721
2.48664
2.48211
2.48304
2.48541
2.48492
2.47736
2.47794
2.46963
2.46632
2.46579
2.47018
2.46355
2.46423
2.47844
2.51538
2.4666
2.47288
2.42282
2.4597
2.45736
2.45809
2.45712
2.45804
2.50123
2.45365
2.463
2.41172
2.45604
2.46802
2.47171
2.4649
2.47264
2.47473
2.46973
2.46695
2.47637
2.47997
2.45647
2.47344
2.46988
2.45791
2.45599
2.46973
2.46459
2.45327
2.48272
2.48472
2.48113
2.48453
2.48813
2.48415
2.48552
2.47863
2.47907
2.48498
2.47794
2.48006
2.4811
2.46151
2.46145
2.46926
2.46434
2.46777
2.46739
2.46343
2.4667
2.47185
2.47411
2.46979
2.46976
2.47241
2.47631
2.47373
2.47071
2.46696
2.4629
2.47087
2.466
2.46656
2.4617
2.46878
2.4599
2.48004
2.47792
2.47964
2.47592
2.47675
2.4687
2.47418
2.47539
2.47233
2.46894
2.4621
2.46252
2.46709
2.46157
2.46078
2.47338
2.46855
2.46833
2.47165
2.47235
2.45613
2.45709
2.4593
2.45704
2.4574
2.45832
2.45593
2.45988
2.45963
2.4547
2.46917
2.46821
2.46963
2.47834
2.4842
2.46824
2.47604
2.47898
2.48764
2.45243
2.46516
2.45933
2.44333
2.44604
2.46064
2.4555
2.44688
2.48723
2.49116
2.4887
2.48777
2.49427
2.49373
2.49267
2.47828
2.4828
2.48791
2.48089
2.48587
2.47267
2.46155
2.46181
2.46648
2.46263
2.46553
2.46543
2.46183
2.46433
2.46767
2.47139
2.46581
2.46623
2.4704
2.47053
2.4676
2.46389
2.46213
2.46153
2.4664
2.45415
2.46465
2.46195
2.46458
2.45209
2.47275
2.46341
2.46907
2.46665
2.46894
2.46139
2.46551
2.4688
2.466
2.46543
2.46132
2.45869
2.46394
2.4618
2.45619
2.46694
2.46663
2.46556
2.46401
2.46405
2.46036
2.45956
2.46562
2.4637
2.463
2.45609
2.45371
2.45528
2.45459
2.45335
2.46895
2.47136
2.47903
2.47962
2.49277
2.46894
2.48561
2.47937
2.49323
2.44253
2.45699
2.45298
2.43502
2.44203
2.45452
2.45243
2.44545
2.49473
2.49292
2.49786
2.49685
2.49334
2.49793
2.49807
2.48551
2.48866
2.4907
2.48916
2.49242
2.4771
2.46227
2.46318
2.46427
2.46124
2.4639
2.46378
2.46091
2.4637
2.46568
2.46768
2.46359
2.46446
2.46448
2.46554
2.4642
2.4619
2.46252
2.46295
2.46351
2.45458
2.46346
2.46421
2.4633
2.46054
2.46584
2.46139
2.46333
2.46033
2.46382
2.46225
2.46261
2.46434
2.4634
2.46266
2.46296
2.4564
2.4626
2.46432
2.45877
2.46272
2.4626
2.46396
2.46238
2.46212
2.46591
2.468
2.46968
2.46765
2.4735
2.45442
2.45462
2.45667
2.45464
2.45572
2.47344
2.4754
2.49828
2.47783
2.49038
2.46888
2.50841
2.47611
2.48619
2.44389
2.45327
2.45414
2.43202
2.44941
2.45303
2.45793
2.45086
2.48577
2.48128
2.49405
2.49515
2.48296
2.48609
2.48931
2.49332
2.49535
2.48763
2.49564
2.49554
2.4803
2.46386
2.46384
2.46321
2.46068
2.46318
2.46222
2.46016
2.46214
2.46261
2.46143
2.4598
2.46053
2.45883
2.46372
2.46387
2.46336
2.46376
2.46514
2.463
2.46613
2.46221
2.46515
2.46214
2.47031
2.46259
2.46334
2.46235
2.45969
2.46201
2.46167
2.46225
2.46346
2.46357
2.46373
2.46537
2.46219
2.46395
2.46575
2.46522
2.46316
2.46258
2.46561
2.46416
2.46341
2.46829
2.47764
2.46933
2.46808
2.47611
2.45565
2.45738
2.45935
2.45709
2.45943
2.47524
2.47329
2.50026
2.47484
2.48162
2.46912
2.48768
2.47525
2.48096
2.45563
2.4563
2.46531
2.44181
2.46436
2.46138
2.47447
2.46158
2.47667
2.48343
2.47932
2.47981
2.476
2.46997
2.4701
2.49322
2.48965
2.46474
2.48487
2.47953
2.47783
2.46283
2.46094
2.46074
2.45932
2.46048
2.45913
2.45836
2.45865
2.45855
2.45702
2.45673
2.45688
2.45594
2.46402
2.46391
2.46328
2.46183
2.46355
2.46102
2.47159
2.45941
2.46054
2.45962
2.46863
2.46212
2.46094
2.46276
2.46257
2.4626
2.46027
2.46337
2.46413
2.46483
2.46263
2.46551
2.46698
2.46073
2.46536
2.46662
2.46562
2.46504
2.46788
2.46727
2.46653
2.46639
2.4722
2.46404
2.46358
2.46791
2.45974
2.4612
2.46372
2.46227
2.46337
2.46975
2.46586
2.47297
2.47516
2.47899
2.46719
2.46268
2.47238
2.47262
2.47125
2.47087
2.48131
2.46642
2.47557
2.48275
2.48439
2.47091
2.48099
2.46619
2.45423
2.45871
2.48958
2.43796
2.44323
2.47451
2.46458
2.44347
2.46361
2.45132
2.4834
2.45892
2.45763
2.45792
2.45743
2.45718
2.45763
2.45709
2.45674
2.45601
2.45557
2.45721
2.45651
2.45608
2.4636
2.46377
2.45957
2.45749
2.45754
2.4578
2.46195
2.45701
2.4556
2.45637
2.45508
2.46345
2.4604
2.4643
2.46455
2.46448
2.46125
2.46536
2.46572
2.4666
2.45857
2.46389
2.46372
2.45628
2.46027
2.45991
2.46873
2.46829
2.47029
2.47013
2.46966
2.46044
2.46337
2.45773
2.45708
2.45864
2.46528
2.46563
2.4679
2.46763
2.46778
2.46171
2.45769
2.45354
2.4669
2.46214
2.4603
2.44568
2.46122
2.45173
2.47679
2.4886
2.48402
2.47759
2.47612
2.48824
2.48132
2.47346
2.46103
2.46372
2.4319
2.44567
2.48526
2.44771
2.46162
2.45633
2.44461
2.45369
2.45544
2.45751
2.47778
2.45777
2.46
2.45869
2.45788
2.45783
2.46107
2.46
2.46028
2.45856
2.45759
2.46251
2.4618
2.46044
2.46459
2.46621
2.45648
2.45733
2.45565
2.45581
2.45095
2.4595
2.45812
2.45725
2.45082
2.46601
2.46286
2.46675
2.46764
2.46794
2.46502
2.46864
2.46788
2.46957
2.45533
2.45684
2.45635
2.45615
2.45546
2.45433
2.47159
2.47141
2.47252
2.47303
2.47277
2.45432
2.45504
2.45385
2.45319
2.45353
2.47032
2.47008
2.47176
2.47235
2.47216
2.45489
2.45431
2.44189
2.45657
2.44579
2.4552
2.44123
2.45436
2.44303
2.47548
2.48398
2.47946
2.47918
2.47556
2.48175
2.47929
2.47505
2.46226
2.46186
2.46166
2.47211
2.46071
2.48883
2.49176
2.45948
2.4751
2.47429
2.46896
2.48257
2.47119
2.46409
2.46986
2.46467
2.46352
2.4639
2.46906
2.46818
2.46829
2.46585
2.46419
2.47093
2.47039
2.46846
2.4685
2.47158
2.46046
2.46582
2.46318
2.46087
2.45469
2.46906
2.46992
2.46623
2.46212
2.4704
2.46758
2.47105
2.473
2.4733
2.47142
2.47411
2.47175
2.47446
2.45942
2.45754
2.45558
2.4649
2.46243
2.46
2.47453
2.47459
2.47571
2.47654
2.47648
2.45483
2.45508
2.46074
2.4592
2.45924
2.47475
2.4746
2.47665
2.47733
2.47705
2.45633
2.45999
2.44736
2.45744
2.44833
2.45956
2.4528
2.46245
2.45641
2.47788
2.48278
2.48093
2.48189
2.47942
2.48502
2.48257
2.4787
2.4666
2.47229
2.53083
2.51645
2.49238
2.54764
2.52582
2.4819
2.48859
2.50896
2.50113
2.51203
2.49225
2.47626
2.48256
2.47399
2.47362
2.47322
2.47911
2.47917
2.47832
2.47518
2.47299
2.48013
2.47986
2.478
2.47501
2.4786
2.4723
2.47933
2.47732
2.47254
2.47089
2.48161
2.48449
2.47923
2.47962
2.47645
2.47576
2.47771
2.47883
2.47956
2.48029
2.48148
2.4776
2.48092
2.47181
2.46954
2.46691
2.47921
2.4777
2.47494
2.4791
2.47906
2.48167
2.48155
2.48151
2.4657
2.4656
2.47461
2.47322
2.47256
2.48014
2.47978
2.4825
2.48281
2.48233
2.46516
2.47134
2.45825
2.46754
2.4653
2.46911
2.4621
2.47238
2.47092
2.4815
2.48707
2.48433
2.48206
2.4825
2.486
2.4849
2.48247
2.47749
2.48016
2.53364
2.5361
2.49254
2.51918
2.52901
2.5117
2.51886
2.52325
2.50814
2.52727
2.49709
2.48818
2.49299
2.48409
2.48447
2.48325
2.48887
2.48966
2.48783
2.48434
2.48306
2.48846
2.48842
2.48774
2.48214
2.4856
2.48622
2.49273
2.49071
2.48558
2.48784
2.49309
2.49563
2.49134
2.49529
2.48244
2.48444
2.48516
2.48276
2.48518
2.48766
2.48842
2.48424
2.48733
2.48644
2.4858
2.48305
2.49314
2.49328
2.49057
2.48476
2.48484
2.48873
2.488
2.48785
2.48062
2.479
2.48886
2.48722
2.48405
2.4856
2.48482
2.48823
2.48805
2.48726
2.47831
2.48506
2.46945
2.47722
2.47388
2.48448
2.48308
2.48226
2.47807
2.48383
2.48486
2.48554
2.48176
2.48523
2.48615
2.48731
2.48694
2.48199
2.48375
2.50422
2.51163
2.47772
2.49252
2.49812
2.50039
2.52518
2.49972
2.49402
2.50722
2.4919
2.49711
2.50094
2.49342
2.49509
2.49207
2.49765
2.50051
2.49611
2.49176
2.49179
2.49491