/*--------------------------------*- C++ -*----------------------------------*\
| =========                 |                                                 |
| \\      /  F ield         | OpenFOAM: The Open Source CFD Toolbox           |
|  \\    /   O peration     | Version:  5.x                                   |
|   \\  /    A nd           | Web:      www.OpenFOAM.org                      |
|    \\/     M anipulation  |                                                 |
\*---------------------------------------------------------------------------*/
FoamFile
{
    version     2.0;
    format      ascii;
    class       surfaceScalarField;
    location    "5.55";
    object      phi;
}
// * * * * * * * * * * * * * * * * * * * * * * * * * * * * * * * * * * * * * //

dimensions      [0 3 -1 0 0 0 0];

internalField   nonuniform List<scalar> 
29271
(
-3.94811e-06
-5.67964e-07
1.48519e-07
4.38619e-06
-4.32055e-06
1.19063e-06
-2.39211e-07
3.38255e-06
-1.00564e-05
-7.57182e-07
-2.22522e-06
2.3303e-06
1.01345e-06
9.69502e-06
-1.02819e-05
-1.41759e-06
-1.29399e-06
4.27628e-07
2.06866e-06
1.04972e-05
-9.87115e-06
-1.14217e-06
1.32497e-07
3.35e-06
7.63082e-06
-9.99931e-08
-9.87794e-06
3.80849e-07
-1.7961e-06
2.88508e-06
-1.11458e-06
9.52269e-06
-1.01623e-05
-1.19153e-06
-4.15739e-06
3.94606e-06
-9.00037e-07
1.24652e-05
-1.06784e-05
-1.5495e-06
-2.75491e-06
3.57905e-06
-2.46395e-06
1.38677e-05
-1.23712e-05
-3.52726e-06
-2.00529e-06
-2.17619e-06
-3.05753e-06
2.31375e-05
-9.29525e-06
-7.0467e-07
-5.20164e-07
8.15528e-06
2.35428e-06
-3.56853e-06
9.73994e-07
-1.60778e-06
4.20884e-06
-1.06632e-05
-1.57827e-07
2.36519e-06
1.21425e-06
-3.21087e-06
1.04525e-05
-1.0666e-05
1.24629e-06
-2.58541e-06
1.89424e-06
-1.73975e-06
1.18507e-05
-1.01303e-05
1.76236e-06
-1.68116e-06
1.91343e-06
-2.07407e-06
1.02097e-05
-1.04519e-05
2.43952e-06
-1.28903e-06
7.30112e-07
-2.8551e-06
1.14264e-05
-1.05376e-05
4.67097e-07
-1.23646e-08
-1.08628e-06
1.07038e-05
4.6537e-07
-1.01724e-05
7.49486e-08
7.31255e-07
-7.76863e-07
7.9189e-06
2.22412e-06
-9.50385e-06
-2.02542e-06
1.80564e-06
2.28227e-06
-2.21163e-06
9.65298e-06
-1.07421e-05
2.1634e-06
-1.80922e-06
1.95608e-06
-2.37066e-06
1.08025e-05
-1.03848e-05
4.0707e-07
-2.9131e-06
1.03517e-05
3.52191e-06
-9.82767e-07
-3.36577e-06
1.11395e-06
-3.76794e-07
2.59569e-06
-8.85937e-06
-5.90384e-07
8.82638e-07
6.81971e-06
1.74307e-06
-1.0721e-05
-1.02983e-06
1.54263e-06
-1.03649e-06
9.26027e-06
1.98447e-06
-3.30983e-06
1.4304e-06
-5.13049e-07
2.38721e-06
-3.64354e-06
-1.61631e-07
7.65031e-07
3.07172e-06
-3.96039e-06
4.70273e-08
-1.81597e-07
4.11456e-06
-1.95421e-07
4.05642e-08
-8.97822e-06
1.12157e-07
5.98139e-07
8.42278e-06
-1.00723e-07
-9.7117e-06
-4.03723e-07
8.83595e-07
3.88073e-07
8.94447e-06
-8.34489e-06
-1.26944e-07
6.85313e-07
-5.35807e-07
9.37795e-06
-1.05562e-06
2.17636e-07
-3.56201e-07
-8.91016e-06
7.59365e-07
9.33954e-09
8.28002e-06
-8.50313e-07
3.28162e-06
5.66883e-05
-1.27864e-05
-1.86923e-05
-1.15027e-05
-1.11477e-05
-1.05458e-06
-1.18828e-06
-5.43442e-07
-5.01505e-07
-6.97836e-07
-7.5168e-07
-1.28442e-07
-1.24684e-07
-3.88463e-07
4.78088e-06
4.95614e-05
-1.45338e-05
-2.14467e-05
-7.4319e-06
-9.38184e-06
-6.76053e-07
-6.58023e-07
-3.62776e-07
-3.13047e-07
1.13419e-06
2.02122e-06
5.31108e-05
-2.69143e-07
6.43916e-08
-1.54378e-07
-1.59784e-07
1.09512e-06
6.65339e-07
4.33226e-07
-2.50176e-05
-1.16806e-05
-1.09262e-05
-1.07051e-05
-9.24435e-06
-2.95331e-07
4.10627e-07
1.02878e-05
-3.67449e-06
-1.07129e-07
9.00822e-07
2.92365e-06
-5.06252e-07
-8.99082e-06
-3.49871e-07
1.03146e-06
4.46572e-07
8.36891e-06
6.91393e-07
4.82466e-07
5.54802e-05
-1.41144e-05
-1.23067e-05
-1.16209e-05
-1.10485e-05
-1.50974e-06
-1.38812e-06
-7.2359e-07
-6.60541e-07
-3.09099e-06
-3.37267e-07
5.7927e-05
-1.17266e-05
-1.36724e-05
-1.03124e-05
-1.33149e-05
-2.37113e-07
-4.19705e-07
4.80976e-05
-3.72831e-07
-7.54467e-08
-3.08052e-08
-9.0985e-08
2.37065e-07
2.06785e-07
-1.19416e-05
-1.36874e-05
-1.16783e-05
-1.10771e-05
-1.01105e-05
-3.83487e-07
1.14791e-06
5.23719e-07
8.58528e-06
-7.59569e-06
-4.64355e-07
4.90781e-07
3.80333e-07
7.75259e-06
-5.63657e-07
-4.34033e-07
-5.76756e-07
4.62469e-05
-1.16025e-06
-7.76702e-07
-5.20371e-07
-3.94349e-07
-6.66159e-07
-9.23416e-08
-1.73519e-07
-1.00521e-05
-1.28498e-05
-8.07193e-06
-9.99608e-06
-1.41629e-06
-6.29229e-07
4.69307e-05
-8.18371e-07
-4.31796e-07
-3.80512e-07
-5.42188e-07
-1.20501e-07
-2.83178e-08
-1.11349e-05
-1.2834e-05
-9.4596e-06
-9.90626e-06
-8.47587e-06
-5.95333e-08
2.78378e-07
6.42104e-06
-3.3548e-06
-1.7814e-08
-4.92509e-07
3.87229e-06
-6.30958e-06
-1.42315e-07
-2.5003e-07
6.14526e-06
-7.98827e-06
9.18387e-08
2.19239e-07
-5.31975e-10
7.0485e-06
-2.76264e-06
-1.56298e-07
3.85461e-08
2.89853e-06
-2.86329e-06
7.1237e-08
-4.54394e-07
3.25735e-06
-4.265e-06
-2.17437e-07
-2.36378e-08
4.49578e-06
1.34439e-07
3.11929e-07
-8.11522e-06
-2.38006e-07
8.79753e-08
7.81888e-06
1.6889e-07
-8.71438e-06
1.4631e-07
-3.51321e-08
1.9561e-07
8.2387e-06
-9.49345e-06
3.72455e-07
3.48894e-07
-2.49282e-07
9.28129e-06
-2.59905e-07
-1.22201e-08
1.04223e-07
-8.1449e-06
-1.93478e-08
9.17509e-08
7.9805e-06
1.4548e-07
1.46443e-06
5.78573e-05
-3.44558e-07
-5.10209e-07
-8.72186e-07
-8.62214e-07
1.45676e-07
-3.03175e-08
-1.87747e-07
-1.17417e-07
-1.04306e-06
1.50592e-06
5.21755e-05
-6.57072e-07
-6.99374e-07
-8.33163e-07
-7.4187e-07
-1.88495e-08
8.37781e-07
5.27977e-05
-2.9897e-07
1.56377e-08
-4.56089e-07
-2.47655e-07
-5.72723e-08
-1.90583e-07
-3.13897e-07
-1.08268e-05
1.79929e-07
1.65554e-08
1.06393e-05
-2.67524e-06
-4.00183e-08
-1.48428e-07
2.85834e-06
-7.7238e-09
-8.03312e-06
-8.37737e-08
9.48103e-08
9.95545e-08
7.93025e-06
5.61126e-07
-2.78852e-07
5.69927e-05
-1.46151e-07
-4.69985e-08
-2.732e-07
1.35982e-07
-1.54185e-06
-4.5954e-07
6.19954e-05
-6.03482e-08
2.76472e-07
4.55765e-05
3.95556e-08
-3.5556e-07
3.31365e-10
4.29071e-07
7.74455e-07
7.13049e-07
-8.28805e-06
-1.23034e-07
-9.04143e-07
3.15056e-07
8.93983e-06
-7.71166e-06
-8.9245e-08
1.01069e-07
2.18019e-07
7.63011e-06
-1.48292e-07
3.33508e-08
3.7466e-07
4.23015e-05
1.34906e-07
2.47602e-07
2.84872e-07
4.96385e-07
3.31522e-07
1.05405e-06
7.09109e-07
1.17369e-07
3.40066e-07
4.24785e-05
2.48653e-07
4.05662e-07
6.86854e-07
3.91332e-07
6.47822e-07
1.18824e-06
-6.12852e-06
-8.185e-08
8.12491e-08
6.52296e-06
-4.1301e-06
-2.97156e-07
9.96712e-08
4.33917e-06
-6.21244e-06
2.605e-08
-4.98255e-08
6.60999e-06
-6.58946e-06
2.34275e-08
-1.71224e-08
9.3552e-08
6.82967e-06
-3.2865e-06
-1.06591e-07
9.23291e-09
3.37037e-06
-4.15999e-06
-2.0474e-07
2.63727e-07
4.101e-06
-4.7702e-06
9.78191e-07
3.44278e-07
3.44773e-06
-8.99506e-07
-1.70738e-06
-7.31393e-06
1.21751e-06
1.89079e-06
6.81251e-06
-1.5543e-06
-7.9311e-06
-5.67853e-07
-1.53122e-07
2.0239e-06
8.18248e-06
-8.43505e-06
-1.17493e-06
-5.04268e-07
2.40471e-06
6.95464e-06
7.54902e-07
-6.85517e-07
-1.16729e-06
-7.74768e-06
2.25617e-06
3.36308e-07
7.00801e-06
9.67238e-06
2.45526e-06
8.11742e-05
-3.3743e-06
-3.28717e-06
-4.8532e-06
-5.01337e-06
-4.06038e-06
-4.47016e-06
-5.08128e-06
-5.30468e-06
-6.72189e-06
2.06277e-06
8.49851e-05
-3.59768e-06
-3.66746e-06
-5.63843e-06
-5.57447e-06
-1.99483e-06
3.56199e-07
7.97253e-05
-4.22309e-06
-3.93482e-06
-5.98074e-06
-5.566e-06
-2.67918e-06
-4.14322e-06
-5.48388e-06
-1.04489e-05
-1.47912e-06
3.18688e-07
9.61445e-06
-3.90467e-06
-5.75481e-08
3.92316e-07
3.5699e-06
-1.06809e-06
-7.81213e-06
-1.15657e-07
1.95159e-06
3.15703e-08
7.01272e-06
5.2568e-06
-6.3676e-06
7.20027e-05
-3.09359e-06
-2.64671e-06
-3.02279e-06
-2.68082e-06
-1.63869e-06
-7.31361e-06
7.82672e-05
-1.05093e-06
-3.15866e-06
6.42201e-05
-1.36157e-06
-2.79529e-06
-1.94918e-06
-2.71241e-06
-3.46619e-06
-3.43182e-06
-7.82028e-06
8.69616e-07
1.14141e-06
-1.11253e-06
5.87086e-06
-8.49614e-06
-8.96997e-07
1.45809e-06
3.07118e-08
7.74406e-06
1.60278e-07
1.22576e-06
-1.91234e-06
5.32075e-05
-2.5991e-06
-2.31125e-06
-2.6315e-06
-2.32828e-06
-2.17767e-06
-2.08079e-06
-2.45842e-06
-2.02281e-06
-2.32102e-06
5.21866e-05
-1.67778e-06
-1.47992e-06
-1.69497e-06
-1.7663e-06
-2.63438e-06
-2.19876e-06
-6.67122e-06
-8.43512e-07
-2.06574e-06
4.399e-06
-5.35704e-06
1.1026e-06
-4.13986e-07
4.66843e-06
-7.34412e-06
-4.45199e-07
2.91308e-07
5.58566e-06
-7.21117e-06
-9.2942e-08
1.51313e-07
-4.66987e-07
5.29877e-06
-3.04086e-06
1.13205e-06
5.57912e-08
1.85302e-06
-3.33532e-06
-2.69057e-07
8.72021e-07
2.73236e-06
-2.77478e-06
2.85593e-07
4.79032e-07
2.01016e-06
-4.48868e-07
-6.62892e-07
-5.02754e-06
6.92093e-07
1.34342e-06
4.10379e-06
-1.01264e-06
-6.30913e-06
-4.08172e-07
2.51597e-08
1.94198e-06
5.7628e-06
-4.72976e-06
-6.94893e-07
-1.98836e-07
2.02163e-06
3.33913e-06
2.62731e-07
-8.41406e-07
-4.90436e-07
-5.33629e-06
1.5546e-06
7.89861e-07
4.32367e-06
3.4625e-06
2.94508e-06
8.12701e-05
-1.47716e-06
-1.94192e-06
2.82437e-07
-2.54773e-07
-1.65229e-06
-1.76217e-06
9.93816e-08
2.02989e-07
-7.36207e-07
3.62719e-06
8.76269e-05
-1.84332e-06
-1.77854e-06
6.89327e-07
8.62241e-07
-7.06927e-07
2.25609e-06
7.66172e-05
-2.20184e-06
-6.46934e-07
2.77181e-07
4.53002e-07
-1.20431e-06
1.89328e-06
2.25233e-06
-6.96843e-06
-1.94296e-06
1.77169e-06
6.43278e-06
-2.73179e-06
-2.67523e-07
6.15975e-07
2.38333e-06
-5.63429e-07
-5.77961e-06
-7.4113e-07
9.97753e-07
9.80663e-07
5.10575e-06
9.15789e-07
1.20009e-06
7.25864e-05
-6.10526e-07
-6.27744e-07
9.69701e-07
5.14068e-07
2.02944e-06
3.22317e-06
7.75576e-05
-1.68128e-07
-6.99593e-07
6.26579e-05
1.85534e-07
2.91974e-06
1.6468e-06
-4.22065e-07
1.19961e-06
1.18582e-06
-3.6367e-06
7.78819e-08
3.80846e-07
-1.1739e-06
4.18375e-06
-6.17945e-06
-1.21307e-06
1.59574e-06
1.28727e-06
5.4944e-06
-9.84893e-07
1.44338e-06
1.97908e-07
5.56148e-05
-1.72907e-06
-9.34523e-07
-1.17742e-06
-3.58211e-07
-4.44857e-07
1.4318e-06
3.63838e-07
1.47483e-07
1.61088e-07
5.11802e-05
1.05868e-07
1.42132e-06
4.61805e-07
3.67328e-07
1.23179e-06
1.7763e-06
-3.11628e-06
-2.60006e-07
-1.10142e-06
3.92559e-06
-3.56229e-06
9.31899e-07
-3.59192e-07
2.98958e-06
-3.67082e-06
-3.25635e-07
3.30323e-07
3.86404e-06
-3.58219e-06
5.51387e-07
-1.09125e-06
2.41684e-07
4.04146e-06
-9.70486e-07
-3.15157e-08
5.26633e-07
4.75368e-07
-2.41125e-06
-9.37461e-08
1.58029e-07
2.34696e-06
-1.70057e-06
-3.06817e-07
6.20619e-07
1.38677e-06
-2.14337e-07
-5.58082e-08
-4.10042e-06
4.50411e-07
7.06762e-08
3.84948e-06
-4.93201e-07
-6.71967e-06
-6.68231e-08
-2.83395e-07
3.03289e-07
7.2598e-06
-2.92717e-06
-3.27368e-08
2.63414e-08
2.16674e-07
2.43195e-06
2.84942e-07
-7.87875e-07
1.29655e-07
-4.25386e-06
-2.2646e-07
1.08078e-06
4.05776e-06
5.24153e-07
2.46865e-06
7.70766e-05
1.09581e-07
-7.49507e-07
9.39457e-08
-6.74672e-07
4.47746e-07
4.54841e-07
6.56262e-07
8.62539e-07
6.9836e-07
3.36251e-06
8.35543e-05
7.37376e-09
1.60568e-07
2.09359e-07
1.58558e-07
1.40905e-06
2.60006e-06
7.10969e-05
8.81627e-08
7.01092e-08
4.54642e-08
-3.89685e-08
1.12712e-06
3.98597e-07
5.19129e-07
-6.62636e-06
-1.07717e-06
1.80252e-06
1.19046e-06
6.1196e-06
2.64636e-07
-4.44527e-07
6.36131e-07
-4.5624e-07
-2.20443e-06
-4.6469e-07
4.42842e-07
2.22628e-06
-3.00988e-07
-5.18795e-06
-1.35409e-06
-1.03958e-07
1.73944e-06
5.20754e-06
-8.26858e-07
2.91867e-06
6.98672e-05
7.63908e-07
4.88154e-07
9.47117e-07
8.96859e-07
2.08138e-06
5.47716e-06
7.25347e-05
1.58149e-06
1.03747e-06
5.95186e-05
1.0314e-06
6.51382e-07
6.92439e-08
1.19281e-06
1.33893e-06
9.17981e-07
-5.6678e-06
-2.81325e-07
3.25397e-06
1.16153e-07
4.16049e-06
-3.14927e-07
-2.22645e-06
-4.84283e-07
-5.92751e-07
3.61841e-06
-5.3079e-06
-1.00954e-06
7.47723e-07
1.51004e-06
5.82508e-06
-1.7654e-06
-6.0965e-08
1.48651e-06
5.49086e-05
-6.05024e-07
-1.77702e-07
2.54925e-07
-4.41676e-07
8.7232e-07
1.30763e-06
9.88834e-07
8.86714e-07
1.35644e-06
4.91847e-05
-2.1788e-07
9.46328e-07
-4.85318e-07
1.77669e-06
1.40706e-06
1.74163e-06
-5.61634e-06
5.7206e-08
6.7875e-07
6.80457e-06
-2.53277e-06
-4.06127e-07
1.1196e-06
1.8193e-06
-4.70105e-06
1.19013e-07
3.00274e-07
5.76827e-06
-5.56481e-06
3.34378e-07
-1.2748e-06
6.63544e-07
7.19813e-06
-8.66336e-07
-8.26156e-07
5.08322e-07
1.18417e-06
-2.47364e-06
-1.20649e-08
-1.79488e-07
2.66519e-06
-1.19832e-06
-8.86749e-07
1.00501e-06
1.08006e-06
-5.62213e-07
5.01225e-07
-3.50639e-06
-2.47938e-08
5.55721e-07
3.03645e-06
-4.8127e-07
-7.57977e-06
1.35663e-07
-4.09539e-07
8.33955e-07
7.50096e-06
-1.82654e-06
5.36708e-07
-8.14686e-07
-1.49063e-07
1.68596e-06
5.67622e-07
-8.78355e-07
5.23956e-07
-4.0058e-06
-7.255e-07
1.04848e-06
4.03723e-06
-1.28745e-06
2.12771e-06
7.58255e-05
-2.9126e-07
-1.14894e-06
-6.14267e-07
-9.73976e-07
8.28496e-07
7.31074e-07
8.78221e-07
1.0015e-06
7.98599e-07
2.86489e-06
8.06703e-05
-5.15845e-07
-6.78613e-07
-2.83646e-07
-5.88835e-07
2.78239e-07
2.10174e-06
6.75963e-05
-9.85243e-09
3.73358e-07
2.47142e-07
4.40957e-07
3.45697e-07
1.37836e-07
3.84035e-07
-5.61386e-06
5.0018e-07
9.08777e-07
7.97646e-07
3.68549e-06
1.30335e-07
-2.94909e-07
-4.35544e-08
-7.60402e-07
2.25783e-07
7.42747e-07
-2.35815e-06
-7.55553e-07
6.43157e-07
2.47054e-06
-2.99735e-07
-5.3428e-06
-1.29998e-06
4.55457e-09
1.58009e-06
5.35787e-06
-9.44556e-07
2.85199e-06
6.83544e-05
3.11495e-07
3.67782e-07
4.61166e-07
5.92651e-07
8.50507e-07
4.85664e-06
6.87479e-05
1.31813e-07
1.14665e-06
5.80294e-05
-4.73478e-07
1.16102e-07
-4.04368e-07
1.22221e-06
1.54016e-06
1.16239e-06
-4.10496e-06
-3.39646e-07
3.75865e-07
1.71025e-07
4.02953e-06
-4.18662e-06
-5.13836e-07
-7.80486e-07
4.31337e-07
4.75557e-07
4.57404e-06
-6.70228e-06
-7.46379e-07
-3.72244e-07
1.9011e-06
7.69171e-06
-1.77191e-06
-9.59699e-07
1.19994e-06
5.43865e-05
4.73833e-07
-5.50317e-07
8.36176e-07
-5.8301e-07
9.35531e-07
1.07513e-06
9.46494e-07
2.20027e-07
1.09696e-06
4.88599e-05
-6.66592e-07
1.74665e-07
-6.22713e-07
1.56917e-06
9.63414e-07
1.48688e-06
-8.18252e-06
-2.90987e-07
1.00395e-06
8.83623e-06
-1.14007e-06
-1.35528e-06
1.26827e-06
-3.80064e-07
1.60714e-06
-9.5249e-08
3.69839e-07
-2.68437e-07
-6.15321e-09
-6.68774e-06
-3.11504e-07
5.78718e-07
7.62047e-06
-8.8385e-06
-5.36994e-08
-7.24033e-07
3.09716e-07
1.04035e-05
-1.83454e-06
-1.01625e-06
2.9078e-07
2.56001e-06
-2.86114e-06
1.1969e-08
-2.06477e-07
3.05564e-06
-8.74245e-07
2.98646e-07
-5.03827e-09
5.80638e-07
-2.93668e-07
6.79954e-09
-2.46801e-06
-1.08887e-07
7.88836e-07
2.07493e-06
-4.40573e-07
-7.23964e-06
2.39322e-07
-3.73292e-07
8.65585e-07
6.9486e-06
-1.74275e-06
8.68112e-07
-1.24708e-06
-6.49889e-07
2.01827e-06
7.53334e-07
-3.60426e-07
2.72426e-07
-4.14873e-06
-6.77058e-07
6.70923e-07
4.24287e-06
-1.33533e-06
2.4337e-06
7.36507e-05
-4.63323e-07
-1.11127e-06
-2.17324e-07
-6.66767e-07
8.70756e-07
8.41797e-07
7.11466e-07
1.11112e-06
5.68683e-07
2.85224e-06
7.83052e-05
-6.76125e-07
-9.35669e-07
-2.50175e-07
-5.2919e-07
4.4116e-07
2.08589e-06
6.05825e-05
5.48154e-07
8.06903e-07
1.09709e-06
8.73015e-07
6.05011e-07
1.77915e-07
9.47389e-07
-3.33376e-06
3.14024e-07
-1.07251e-07
4.36502e-07
3.13164e-06
-8.82526e-07
7.18645e-07
4.706e-07
-2.56701e-07
-6.18814e-07
5.68796e-07
-2.51565e-06
-5.68476e-07
7.08035e-07
2.37609e-06
-1.04166e-06
-5.36411e-06
-1.07021e-06
3.78072e-07
1.61232e-06
5.48558e-06
-1.17287e-07
3.5103e-06
6.71492e-05
1.85471e-08
-1.15902e-07
2.43561e-07
9.97273e-08
-8.51747e-07
4.26552e-06
6.80691e-05
1.03318e-07
1.4961e-06
5.36672e-05
-4.14603e-07
1.9736e-07
-5.40398e-07
1.31773e-06
2.18328e-06
1.25354e-06
-4.20466e-06
-5.28978e-07
2.97193e-07
2.6624e-07
4.27352e-06
-4.81748e-06
2.23847e-07
-8.3628e-07
3.06541e-07
2.83219e-07
4.84016e-06
-8.70227e-06
-4.76361e-07
-2.40791e-07
1.70366e-06
9.50601e-06
-1.79025e-06
-2.34943e-06
1.16758e-06
5.51063e-05
4.87548e-07
-5.27084e-07
7.3897e-07
-1.45361e-07
1.02772e-06
1.24237e-06
1.14826e-06
-7.19148e-07
5.98536e-07
5.02218e-05
-8.18357e-07
-5.81429e-07
-6.9179e-07
1.25014e-06
5.29815e-07
9.8641e-07
-9.87418e-06
-6.65995e-07
1.20017e-06
1.01169e-05
-1.72317e-06
-3.48614e-07
1.36852e-06
-1.13102e-06
1.83429e-06
1.62284e-07
-4.20642e-07
6.2572e-07
-1.25978e-07
-2.41385e-07
-8.43803e-06
-4.26036e-07
8.5768e-07
9.17397e-06
-1.19471e-05
-3.47469e-07
2.69369e-08
-2.66802e-07
1.3133e-05
-3.31655e-06
-5.25361e-07
1.68084e-08
3.8251e-06
-3.15154e-06
-9.35999e-08
1.47404e-07
3.09774e-06
-3.62726e-07
1.11952e-06
-9.46145e-07
1.89354e-07
4.7563e-07
-7.68589e-07
-1.89185e-06
5.44015e-07
-2.03823e-07
1.84462e-06
-4.54649e-07
-6.85438e-06
-1.17563e-07
-2.21258e-07
7.33753e-07
6.9141e-06
-2.48476e-06
6.7714e-07
-7.73955e-07
-1.1689e-06
3.05191e-06
6.9857e-07
7.48615e-07
-7.50756e-07
-4.37917e-06
4.21684e-07
-4.92553e-07
4.45218e-06
-3.97867e-07
4.15645e-06
6.87584e-05
8.00871e-08
-7.56003e-07
4.9455e-07
-1.89191e-07
1.32714e-07
6.62788e-07
-1.14599e-07
8.23344e-07
-5.07684e-07
4.18547e-06
7.7055e-05
-1.02705e-06
-8.73154e-07
-8.05936e-07
-1.19332e-07
-1.08018e-07
4.26172e-06
5.1826e-05
1.14809e-06
9.91231e-07
1.35343e-06
8.36538e-07
7.61602e-07
-1.03796e-06
4.21649e-08
-3.77892e-06
1.08897e-06
-7.60605e-07
-9.52855e-08
3.43782e-06
6.43486e-07
5.76397e-07
2.7208e-07
-1.09449e-06
-3.97474e-07
-1.94293e-06
7.16073e-07
-1.38355e-07
1.36522e-06
-1.40153e-06
-5.6431e-06
-4.87161e-08
1.05671e-06
3.42128e-07
5.69451e-06
-6.92672e-08
5.3877e-06
6.659e-05
-2.39831e-07
-3.85989e-07
-6.48135e-08
8.77725e-08
-2.54474e-06
4.84178e-06
6.98883e-05
-2.14384e-07
2.41992e-06
5.00088e-05
-8.18628e-07
-8.72026e-07
-1.39421e-06
1.80395e-06
2.88387e-06
1.56692e-06
-4.41843e-06
-4.84053e-07
-1.66569e-07
3.90913e-07
4.46375e-06
-4.25988e-06
2.75357e-07
-2.98193e-07
8.65868e-07
7.66885e-07
2.64996e-06
-9.86753e-06
1.37198e-06
-6.2554e-07
-6.49409e-07
9.80887e-06
-3.83803e-08
-3.24332e-06
1.31726e-06
5.75665e-05
3.50003e-07
5.87716e-08
5.0379e-07
2.43045e-07
1.15853e-06
1.36883e-06
1.17059e-06
-1.25516e-06
3.20772e-07
5.397e-05
-8.28374e-07
-7.91759e-07
-6.95014e-07
5.86704e-07
2.65041e-07
2.48052e-07
-1.07456e-05
-7.31187e-07
1.85272e-06
1.07888e-05
-1.87591e-06
-1.15005e-06
9.32542e-07
2.09341e-06
-9.74131e-06
1.14145e-07
7.54362e-07
1.01901e-05
-1.41528e-05
-4.17787e-07
3.55664e-07
-4.59699e-07
1.49954e-05
-4.31479e-06
-4.23216e-07
1.70529e-07
4.56748e-06
-2.90495e-06
-3.19459e-07
5.69534e-07
2.65488e-06
-1.20154e-08
1.16256e-06
-9.49088e-07
-2.01454e-07
9.8217e-07
-1.0212e-06
-1.94757e-06
9.92734e-07
-1.1659e-06
2.15977e-06
-5.03031e-07
-7.09619e-06
-6.3263e-07
1.13416e-07
9.1448e-07
7.20395e-06
-3.72547e-06
1.65136e-07
-2.9559e-07
-8.74594e-07
4.32923e-06
4.01284e-07
8.68907e-07
-1.02141e-06
-4.42955e-06
1.18528e-06
-9.64792e-07
4.36156e-06
-1.24961e-06
7.11118e-06
6.2111e-05
5.83521e-07
-3.94419e-07
7.24717e-07
1.21918e-07
-3.47872e-07
2.77483e-07
-4.18989e-07
2.39503e-07
-3.04357e-06
6.86033e-06
7.53815e-05
-1.61538e-06
-4.65734e-07
-1.21575e-06
-9.59241e-08
-1.27e-06
4.95035e-06
4.43766e-05
1.00401e-06
6.64193e-07
9.86719e-07
6.65332e-07
-1.25381e-06
-7.49776e-07
-5.91208e-07
-3.57345e-06
4.42003e-07
-9.57114e-07
2.81856e-06
-9.84528e-07
7.71231e-07
-5.75054e-07
7.88351e-07
-1.06096e-06
-6.06889e-06
7.85026e-07
9.77494e-07
-1.4831e-06
6.85042e-06
-2.59356e-06
7.51508e-06
6.72639e-05
8.67235e-08
2.99719e-08
7.66135e-07
6.32977e-07
-3.8635e-06
6.38825e-06
7.16303e-05
-1.86797e-06
2.50709e-06
4.75699e-05
-1.3477e-06
-1.05378e-06
-5.24389e-07
1.47502e-06
2.94212e-06
1.39535e-06
-6.56984e-06
-3.31057e-08
-2.33631e-06
7.35748e-07
6.33554e-06
-8.87716e-06
1.76408e-06
-6.32516e-07
-1.97552e-06
7.43282e-06
2.28829e-06
-2.98395e-06
1.44537e-06
6.2362e-05
-1.50473e-07
3.08371e-07
7.48576e-08
4.97479e-07
1.09175e-06
1.42051e-06
1.01563e-06
-1.05397e-06
8.92352e-08
5.89905e-05
-5.17601e-07
-5.2593e-07
-3.39184e-07
2.58742e-07
1.22235e-07
3.5028e-07
-1.12664e-05
-5.8211e-07
2.16856e-06
1.1133e-05
-2.24021e-06
2.13585e-08
1.8635e-07
2.0325e-06
-1.06543e-05
2.3358e-07
7.02121e-07
1.1164e-05
-1.59349e-05
1.62847e-09
-3.81328e-07
-3.64923e-07
1.67687e-05
-4.98086e-06
-8.42343e-07
4.0079e-07
5.42242e-06
-2.4914e-06
-2.56106e-07
4.01408e-07
2.3461e-06
3.94675e-07
4.83303e-07
-3.82393e-07
-4.95584e-07
5.08982e-07
-6.76318e-07
-2.50433e-06
9.16937e-07
-1.1496e-06
2.90433e-06
-4.58205e-07
-7.26469e-06
-7.19888e-07
2.20894e-07
9.97302e-07
7.22458e-06
-4.80316e-06
-2.40809e-07
1.61832e-08
-1.0526e-07
5.03483e-06
9.82203e-08
5.56241e-07
-4.65733e-07
-4.15212e-06
1.35501e-06
-8.82629e-07
3.58923e-06
-2.63819e-06
9.76971e-06
5.52821e-05
5.15863e-07
-2.37011e-07
4.20994e-07
5.35042e-08
-4.23223e-07
-1.77498e-07
-3.95484e-07
-5.97687e-08
-3.68685e-06
8.62286e-06
7.20981e-05
-1.75533e-06
-6.32742e-07
-1.37312e-06
-5.29681e-07
-7.69897e-07
4.92648e-06
3.74316e-05
2.26933e-07
2.62933e-07
1.8022e-07
2.44519e-07
-5.65051e-07
-6.92768e-07
-5.55251e-07
-2.37025e-06
5.52935e-07
-9.12105e-07
1.95953e-06
-7.16357e-07
2.99612e-07
-3.17153e-07
7.33898e-07
-2.03824e-07
-7.74376e-06
1.15118e-06
1.80947e-08
-1.71099e-06
8.4893e-06
-4.13786e-06
9.68453e-06
6.79349e-05
8.09568e-07
5.41257e-07
1.138e-06
1.06319e-06
-3.24029e-06
8.66628e-06
7.06893e-05
-7.02045e-07
2.23067e-06
4.47079e-05
-1.68107e-07
-5.77531e-07
-3.2577e-09
7.29332e-07
2.5885e-06
4.50674e-07
-5.75671e-06
2.3401e-07
-4.07105e-07
-2.04208e-07
5.43197e-06
-6.34623e-06
7.87839e-07
-6.394e-07
-1.55977e-06
5.69846e-06
2.0591e-06
-2.08143e-06
1.38268e-06
6.80365e-05
-1.19132e-07
6.0079e-07
4.64171e-07
6.97916e-07
8.76649e-07
1.27203e-06
9.16307e-07
-4.66159e-07
2.75658e-07
6.29431e-05
9.93203e-08
1.6776e-07
3.55736e-07
6.59545e-07
5.38459e-07
1.00191e-06
-1.17266e-05
-1.55133e-07
1.88633e-06
1.17599e-05
-2.09872e-06
3.16893e-07
-3.67662e-07
2.14949e-06
-1.18007e-05
3.38895e-07
1.49159e-07
1.26953e-05
-1.74336e-05
6.63286e-07
-8.16097e-07
-3.95613e-08
1.79016e-05
-5.95204e-06
-3.73109e-07
1.31536e-08
6.31199e-06
-2.1459e-06
-9.68381e-08
3.01096e-07
1.94164e-06
5.20538e-07
-1.03199e-07
1.17649e-07
-5.34989e-07
-3.12216e-07
-1.95773e-07
-3.35925e-06
4.52148e-07
-3.18004e-07
3.73309e-06
-4.82661e-07
-7.11246e-06
-4.53764e-07
1.75359e-07
1.03199e-06
6.84154e-06
-5.2145e-06
-1.56752e-07
-1.33168e-07
5.71043e-08
5.32859e-06
1.18724e-07
2.16881e-07
-1.16141e-07
-2.9829e-06
1.05584e-06
-6.31034e-07
2.45736e-06
-1.90935e-06
9.99342e-06
4.94087e-05
1.68922e-07
-3.10603e-07
-1.13147e-07
-3.42038e-07
-6.16623e-07
-4.48433e-07
-5.05261e-07
-4.35379e-08
-2.46262e-06
1.03835e-05
6.7206e-05
-1.89641e-06
-1.10658e-06
-1.21558e-06
-7.19504e-07
-6.6108e-07
2.01272e-06
3.48983e-05
-1.46052e-07
2.00742e-07
1.63437e-08
2.80499e-07
-5.09197e-07
-6.58721e-07
-4.64563e-07
-1.75668e-06
4.97524e-07
-1.03415e-06
1.63223e-06
-8.28487e-07
1.0263e-07
-2.75842e-07
1.0017e-06
4.01025e-07
-8.86456e-06
1.37302e-06
-1.08618e-07
-1.76103e-06
8.96016e-06
-4.20674e-06
1.14932e-05
6.76517e-05
4.85324e-07
6.39978e-07
7.89446e-07
1.07547e-06
-1.50469e-06
1.06777e-05
6.7693e-05
-2.56614e-07
1.36053e-06
4.31431e-05
2.33228e-07
-2.07183e-07
1.86731e-07
-3.58657e-07
1.65719e-06
-5.4243e-07
-5.15736e-06
6.44839e-07
1.44281e-07
-9.99673e-07
5.1113e-06
-5.4814e-06
3.93833e-07
-8.92723e-07
-9.58916e-07
5.43217e-06
1.50704e-06
-1.74715e-07
1.29077e-06
7.26772e-05
9.70063e-08
5.99746e-07
5.93242e-07
6.45257e-07
1.07387e-06
1.40909e-06
1.3183e-06
3.66331e-07
7.06179e-07
6.56536e-05
7.91639e-07
9.94111e-07
1.006e-06
1.33691e-06
1.01891e-06
1.57241e-06
-1.26524e-05
5.3364e-07
1.18139e-06
1.26643e-05
-2.13284e-06
8.53916e-07
-7.94497e-07
2.07343e-06
-1.36177e-05
2.94832e-07
7.79078e-08
1.45357e-05
-1.83465e-05
6.17403e-07
-4.60173e-07
1.24123e-07
1.87713e-05
-6.69111e-06
2.85696e-07
-6.49908e-07
7.05532e-06
-1.81186e-06
1.90464e-07
-1.08671e-07
1.73007e-06
5.61962e-07
-3.11465e-07
3.3336e-07
-5.83857e-07
-5.07476e-07
9.19391e-09
-3.97268e-06
1.12608e-07
3.27041e-07
4.03131e-06
-4.96826e-07
-6.65779e-06
-3.37049e-08
1.30349e-10
6.22816e-07
6.56538e-06
-5.37826e-06
4.2016e-07
-3.99767e-07
-3.51557e-07
5.39078e-06
3.1864e-07
-8.07779e-10
8.85412e-08
-2.07926e-06
5.97448e-07
-2.81939e-07
1.67602e-06
1.28978e-06
8.97601e-06
4.4527e-05
-2.35684e-07
-8.05702e-07
-4.25816e-07
-7.96929e-07
-1.01206e-06
-7.03419e-07
-9.50799e-07
-4.5367e-07
-1.10673e-06
1.10036e-05
6.2503e-05
-1.28399e-06
-1.0278e-06
-9.60044e-07
-6.32324e-07
-4.79137e-07
-1.81046e-06
3.55668e-05
8.34351e-08
5.4416e-07
4.01066e-07
6.18823e-07
-3.45137e-07
-4.72598e-07
-3.15323e-07
-1.52798e-06
3.75378e-07
-8.9018e-07
1.56365e-06
-1.20692e-06
3.97971e-08
-2.23741e-07
1.39086e-06
4.8631e-07
-9.10132e-06
1.01465e-06
-1.53495e-07
-1.65138e-06
9.40524e-06
-2.93306e-06
1.19975e-05
6.53411e-05
2.28499e-07
4.72125e-07
5.49609e-07
9.7186e-07
-9.80048e-08
1.11822e-05
6.46794e-05
1.7798e-08
3.37131e-07
4.27776e-05
3.10779e-07
3.56629e-08
2.10594e-07
-1.4046e-06
5.78021e-07
-1.62839e-06
-5.09162e-06
7.92992e-07
3.65037e-07
-1.34146e-06
5.29285e-06
-5.5471e-06
1.05255e-07
-1.13346e-06
-2.4796e-07
5.85901e-06
9.64263e-07
2.89192e-06
1.6511e-06
7.45243e-05
2.87608e-07
2.7668e-07
5.99008e-07
2.46278e-07
1.17135e-06
1.88649e-06
1.14002e-06
9.96277e-07
1.25242e-06
6.79439e-05
1.29439e-06
1.52042e-06
1.36043e-06
1.69115e-06
1.77136e-06
1.89745e-06
-1.3554e-05
9.59365e-07
5.08658e-07
1.34194e-05
-2.02971e-06
1.17447e-06
-1.13676e-06
1.99201e-06
-1.53756e-05
2.54619e-07
3.47243e-07
1.64249e-05
-1.94128e-05
3.19676e-07
-4.84392e-09
3.34807e-07
2.00156e-05
-7.5508e-06
5.64744e-07
-1.02961e-06
8.01567e-06
-1.61106e-06
3.94438e-07
-2.29262e-07
1.44589e-06
5.89216e-07
-3.74286e-07
3.60422e-07
-5.75352e-07
-5.77199e-07
2.3119e-07
-4.00787e-06
-2.84097e-07
6.04889e-07
4.03309e-06
-7.37781e-07
-6.41253e-06
4.53042e-07
-5.18697e-07
1.00618e-06
6.20979e-06
-5.3338e-06
7.93153e-07
-4.8623e-07
-8.90021e-07
5.18812e-06
7.2877e-07
-2.21991e-07
1.36938e-07
-1.41723e-06
3.44417e-07
-1.50969e-07
1.30884e-06
3.14692e-06
6.84223e-06
4.27132e-05
-4.60495e-07
-1.19878e-06
-5.60851e-07
-1.04991e-06
-1.39791e-06
-1.17366e-06
-1.37207e-06
-9.61678e-07
-9.66843e-07
9.65117e-06
6.03629e-05
-1.29065e-06
-7.58389e-07
-1.01805e-06
-3.30203e-07
-3.13422e-07
-5.11374e-06
3.71127e-05
7.03278e-07
9.19506e-07
1.1713e-06
9.0476e-07
-2.3933e-07
-3.28479e-07
-2.16616e-07
-1.61052e-06
2.89909e-07
-7.52997e-07
1.76018e-06
-1.54498e-06
1.50133e-07
-3.04121e-07
1.69897e-06
3.86934e-07
-9.65456e-06
2.52506e-07
-1.0943e-08
-2.4879e-07
9.27485e-06
2.50491e-07
8.11873e-06
6.45552e-05
-4.90347e-07
1.0315e-07
-3.26575e-07
-2.72988e-08
9.40616e-07
9.56875e-06
6.40717e-05
1.4352e-07
-7.07286e-07
4.39243e-05
2.4225e-07
1.91136e-07
1.7866e-07
-2.26257e-06
-7.70669e-07
-2.33485e-06
-5.48176e-06
7.79137e-07
4.34103e-07
-1.31434e-06
5.72638e-06
-6.19474e-06
-2.14083e-07
-2.89127e-07
3.26395e-07
6.51987e-06
-1.48316e-07
6.03565e-06
1.2621e-06
7.50174e-05
-3.60912e-07
-2.87346e-07
-4.13817e-07
-2.95275e-07
4.93236e-07
5.641e-07
6.27877e-07
1.21988e-06
1.79709e-06
7.05312e-05
1.35381e-06
1.64571e-06
1.31487e-06
1.76858e-06
2.08732e-06
1.82975e-06
-1.41363e-05
1.09667e-06
-2.96207e-07
1.38484e-05
-1.99933e-06
1.25714e-06
-1.29775e-06
2.03994e-06
-1.76565e-05
3.45083e-07
3.19187e-07
1.82544e-05
-2.08057e-05
2.39515e-07
-1.10484e-07
1.13427e-06
2.13394e-05
-8.54248e-06
6.43282e-07
-1.03792e-06
8.93712e-06
-1.27889e-06
4.68698e-07
-3.3142e-07
1.14161e-06
5.58973e-07
-3.53187e-07
3.31233e-07
-5.37019e-07
-6.15696e-07
4.0466e-07
-4.06211e-06
-6.12271e-07
6.83208e-07
4.20221e-06
-5.84836e-07
-6.10655e-06
8.80449e-07
-1.19393e-06
8.49314e-07
6.15556e-06
-4.94522e-06
8.60278e-07
-3.68039e-07
-1.33003e-06
4.64102e-06
1.14198e-06
-4.26586e-07
6.40452e-08
-1.26231e-06
3.1266e-07
7.04e-08
1.24179e-06
2.76424e-06
3.60323e-06
4.49383e-05
-4.78855e-07
-1.22981e-06
-5.21994e-07
-9.78581e-07
-1.35607e-06
-1.43386e-06
-1.16199e-06
-1.43143e-06
-2.42521e-06
6.5277e-06
6.09408e-05
-1.02238e-06
-3.8706e-07
-5.63483e-07
5.67511e-08
-2.66812e-07
-7.08159e-06
3.76958e-05
1.40798e-06
1.01546e-06
1.77352e-06
9.08378e-07
-2.29098e-07
-2.99551e-07
-2.36605e-07
-1.91051e-06
1.90998e-07
-6.28836e-07
2.08153e-06
-1.83613e-06
1.18838e-08
-5.56129e-08
1.87986e-06
-1.423e-07
-8.40618e-06
-1.22083e-07
5.0738e-07
6.34735e-07
7.52845e-06
2.68299e-06
1.79881e-06
6.75279e-05
-1.05689e-06
-1.07489e-06
-8.49243e-07
-8.70254e-07
1.54403e-06
5.43698e-06
6.63013e-05
2.65515e-07
-2.33967e-06
4.67937e-05
2.35001e-07
3.09013e-07
2.16028e-07
-2.49303e-06
-2.41915e-06
-2.18059e-06
-5.91277e-06
7.29365e-07
5.10073e-07
-1.14555e-06
6.0844e-06
-6.74224e-06
-2.36734e-07
5.60921e-07
4.4516e-07
6.63351e-06
-6.60619e-07
7.09588e-06
-9.93987e-07
7.55533e-05
-1.1749e-06
-5.66555e-07
-9.52775e-07
-5.9897e-07
-2.53906e-08
-1.30555e-06
-2.14897e-07
9.56351e-07
1.52774e-06
7.32578e-05
1.01661e-06
1.28093e-06
9.46592e-07
1.49365e-06
1.23593e-06
1.34851e-06
-1.43596e-05
1.03811e-06
-1.63211e-06
1.35703e-05
-2.115e-06
1.04089e-06
-1.12149e-06
2.1956e-06
-1.78526e-05
2.23077e-07
8.11193e-07
1.58244e-05
-2.21265e-05
5.53638e-07
-6.22778e-07
1.05631e-06
2.26671e-05
-9.13184e-06
7.34855e-07
-3.55486e-07
8.75247e-06
-1.05783e-06
4.60836e-07
-4.31457e-07
1.02845e-06
5.21911e-07
-3.2701e-07
3.06941e-07
-5.01842e-07
-4.90297e-07
4.9535e-07
-4.33345e-06
-8.161e-07
5.64485e-07
4.58001e-06
-1.10196e-07
-6.31999e-06
1.17416e-06
-1.44996e-06
9.53857e-08
6.6106e-06
-4.30775e-06
6.74771e-07
-2.50935e-07
-1.31579e-06
4.00917e-06
1.19053e-06
-5.73947e-07
9.62599e-08
-1.25777e-06
4.31597e-08
3.28993e-07
1.3633e-06
9.396e-07
-6.4811e-07
5.06274e-05
-2.49043e-07
-8.67786e-07
-1.9582e-07
-4.10342e-07
-7.21196e-07
-1.64585e-06
-5.3301e-07
-1.3575e-06
-3.97238e-06
3.38337e-07
6.43272e-05
-1.62255e-07
2.18438e-07
3.94951e-07
7.36128e-07
-2.86111e-07
-7.23275e-06
3.69238e-05
1.64782e-06
8.65273e-07
1.85248e-06
8.0383e-07
-2.52231e-07
-3.09226e-07
-2.89433e-07
-2.22768e-06
3.3918e-08
-4.15844e-07
2.3235e-06
-1.80241e-06
-2.65467e-07
4.46875e-07
1.62101e-06
-7.8309e-07
-6.86777e-06
-1.64256e-07
8.35924e-07
4.27979e-07
6.55121e-06
3.17478e-06
-3.51473e-06
7.04946e-05
-1.02213e-06
-1.04807e-06
-5.98365e-07
-6.0625e-07
2.05127e-06
-2.00902e-06
6.97722e-05
3.43163e-07
-3.1406e-06
4.93176e-05
2.79639e-07
3.71872e-07
2.52775e-07
-1.73638e-06
-2.66944e-06
-1.40645e-06
-6.22667e-06
6.2161e-07
5.16452e-07
-9.16322e-07
6.34809e-06
-6.28502e-06
-1.15198e-07
6.10202e-07
2.36699e-07
5.80353e-06
-2.50215e-07
4.37135e-06
-1.30498e-06
7.34972e-05
-8.72412e-07
-3.23743e-07
-5.05266e-07
-3.00458e-07
-8.22816e-07
-1.13163e-06
-5.68639e-07
5.11963e-07
2.15624e-08
7.34309e-05
5.38326e-07
8.44259e-07
4.6821e-07