/*--------------------------------*- C++ -*----------------------------------*\
| =========                 |                                                 |
| \\      /  F ield         | OpenFOAM: The Open Source CFD Toolbox           |
|  \\    /   O peration     | Version:  5.x                                   |
|   \\  /    A nd           | Web:      www.OpenFOAM.org                      |
|    \\/     M anipulation  |                                                 |
\*---------------------------------------------------------------------------*/
FoamFile
{
    version     2.0;
    format      ascii;
    class       volScalarField;
    location    "1.55";
    object      p;
}
// * * * * * * * * * * * * * * * * * * * * * * * * * * * * * * * * * * * * * //

dimensions      [0 2 -2 0 0 0 0];

internalField   nonuniform List<scalar> 
10571
(
175.871
148.878
145.149
164.139
190.98
156.728
152.551
158.61
177.886
186.466
153.892
147.693
159.425
188.118
189.081
181.592
146.47
156.254
164.28
175.481
178.249
153.984
148.756
168.868
107.16
135.786
127.205
108.129
94.2783
136.087
133.868
136.957
120.299
102.657
126.377
128.191
117.552
118.676
144.008
165.416
116.294
122.107
107.591
132.911
167.393
123.535
115.8
109.571
95.4581
117.712
108.956
96.243
86.1989
126.633
116.753
104.01
79.155
83.9783
89.4806
97.7896
108.101
97.3223
88.006
84.0797
103.693
119.466
108.52
99.9334
106.401
112.013
113.312
102.031
85.108
93.9009
93.717
81.804
77.9669
100.016
75.8737
72.2649
66.3818
77.6654
76.9742
72.1489
66.4546
62.2627
62.5089
68.9113
83.0264
70.8082
84.3341
91.7089
86.6712
70.0487
83.2808
92.5039
71.7482
70.4084
66.523
67.6053
66.2544
59.6323
51.2713
52.9968
56.7637
70.3032
73.0362
68.0774
49.3035
50.9938
50.7866
57.9315
70.836
49.8318
52.0957
67.4336
52.5962
52.0372
51.4953
65.6273
54.0623
56.7439
54.7631
53.8267
53.6064
56.6079
50.7321
50.9692
50.923
51.4668
49.4706
63.9581
62.3168
51.1298
51.2548
49.9611
49.6609
49.6665
51.3939
50.3348
49.2778
49.1069
49.912
50.4943
50.7859
49.476
49.585
49.7125
53.4868
50.6828
50.9561
52.9922
49.369
49.6278
49.3657
49.0656
49.1349
50.4217
52.7173
49.9451
50.4079
49.7981
49.3061
49.0865
49.5754
49.8219
50.1074
49.6237
49.5766
49.322
49.8773
50.0263
49.9191
48.5978
48.1742
47.301
48.7762
49.5673
47.8781
48.5432
48.6719
48.8643
48.9949
49.1002
48.0299
47.7788
48.7747
49.2842
49.3949
49.1025
48.9887
48.6679
49.0009
49.405
49.233
49.3894
49.1469
49.1937
49.2991
49.2175
47.9747
47.9499
48.1305
47.5248
47.7111
47.7488
48.1651
48.3072
48.4229
48.6221
49.2288
47.9506
48.0034
48.2425
48.6163
48.9487
48.8118
49.0498
48.3353
48.4467
48.6997
48.8925
48.8571
48.6622
48.7824
48.9269
47.8149
47.8327
47.875
47.8363
47.7334
47.7298
47.9381
48.0899
48.1334
47.6468
47.832
47.8119
47.9532
48.2752
48.5745
48.3601
48.0345
48.1339
48.3266
48.5477
48.4973
48.1902
48.3844
48.5887
47.8017
47.7567
47.7503
47.7561
47.7441
47.6882
47.8218
47.931
47.9619
47.7197
47.755
47.7816
47.8104
48.0611
48.2728
47.935
47.7403
47.9182
48.146
48.2975
48.2892
47.9843
48.1412
48.3349
47.7704
47.7223
47.7078
47.6788
47.7209
47.701
47.7887
47.8655
47.8924
47.8418
47.6781
47.6603
47.7501
47.9449
48.0675
48.0077
47.6435
47.762
48.0336
48.1332
48.1666
47.8766
48.0154
48.1577
47.7333
47.7429
47.6651
47.706
47.7556
47.7283
47.7881
47.8341
47.8859
47.8601
47.6966
47.6841
47.7363
47.8931
47.9802
47.976
47.6788
47.7395
47.9646
48.0532
48.1073
47.8369
47.9308
48.0505
47.7787
47.8094
47.7896
47.8366
47.8098
47.7774
47.8066
47.8312
47.9047
47.9034
47.7708
47.7613
47.7807
47.887
47.965
47.9614
47.7365
47.7834
47.9421
48.023
48.0697
47.8489
47.9289
48.0025
47.8505
47.8779
47.9908
47.9061
47.8615
47.8233
47.8164
47.8474
47.9359
47.947
47.8149
47.8164
47.8301
47.9025
47.9726
47.9825
47.8232
47.8125
47.9509
48.024
48.0528
47.8746
47.9525
48.0129
47.8741
47.9009
47.9804
47.8961
47.9066
47.8523
47.8083
47.8907
47.956
47.9779
47.8317
47.8175
47.8483
47.9196
47.9859
47.9893
47.7634
47.7985
47.9671
48.0221
48.0357
47.885
47.9859
48.0379
47.8882
47.9055
47.9228
47.865
47.952
47.868
47.8115
47.9419
47.9541
48.0053
47.8724
47.8452
47.8551
47.9366
47.9904
47.995
47.7648
47.7935
47.9853
47.9909
48.0175
47.9074
48.0136
48.0426
47.9185
47.915
47.9057
47.8982
47.9733
47.8945
47.8349
47.9484
47.9635
48.0297
47.91
47.8932
47.8843
47.9391
47.9965
47.995
47.8439
47.8484
48.0049
47.9635
48.0091
47.9616
48.0213
48.0329
47.9477
47.9356
47.9212
47.9301
47.9926
47.9305
47.8678
47.94
47.9809
48.0285
47.9497
47.9537
47.9372
47.9336
48.0262
48.0089
47.9503
47.9477
48.0413
48.045
48.034
48.0251
48.0476
48.0424
47.9667
47.9611
47.9431
47.947
48.0051
47.962
47.9025
47.9191
48.0122
48.0381
47.9801
48.0043
47.9889
47.9578
48.0534
48.0268
48.0479
48.0401
48.0743
48.084
48.0647
48.078
48.0788
48.0614
48.0048
47.9847
47.9666
47.9666
48.0498
47.9906
47.9368
47.9117
48.0428
48.0535
48.0288
48.0251
48.0227
47.9998
48.0608
48.0374
48.1241
48.0868
48.1042
48.0443
48.0687
48.105
48.1001
48.0689
48.0362
47.9988
47.9893
48.0152
48.09
48.0076
47.9541
47.8962
48.0391
48.0511
48.0696
48.0298
48.0369
48.023
48.0334
48.0263
48.124
48.0934
48.1166
48.0238
48.0391
48.1036
48.0974
48.0627
48.034
48.0113
48.0054
48.0195
48.075
48.0219
47.9789
47.8462
47.9962
48.0114
48.0578
48.0125
48.0454
48.0036
47.9879
48.0017
48.1117
48.0819
48.0977
47.9806
48.0048
48.091
48.083
48.0466
47.9945
48.0288
48.0117
47.9734
47.9833
48.0473
48.0175
47.8083
47.9149
47.9516
48.0628
48.0091
48.0577
47.9877
47.9655
47.9825
48.149
48.0744
48.0549
47.9526
47.991
48.0844
48.0648
48.0362
47.954
48.053
48.0054
47.9335
47.9022
48.0824
48.0787
47.814
47.8402
47.8715
48.083
48.0662
48.0734
47.9938
47.9828
47.9817
48.1552
48.0766
48.0263
47.9867
48.0106
48.0823
48.0561
48.0405
47.9208
48.0506
47.9649
47.9028
47.8642
48.1093
48.1071
47.8682
47.8246
47.8467
48.103
48.1332
48.0893
48.0178
48.0802
48.0134
48.1444
48.07
48.0241
48.0807
48.0595
48.081
48.062
48.0657
47.9398
48.0309
47.9059
47.8941
47.8878
48.1165
48.097
47.931
47.9059
47.8806
48.142
48.1698
48.1104
48.0516
48.1823
48.0705
48.135
48.0737
48.0257
48.1734
48.1024
48.084
48.0688
48.0955
47.9896
47.9984
47.8739
47.911
47.9488
48.0862
48.0743
47.9744
47.9769
47.9694
48.133
48.1468
48.1174
48.0348
48.1709
48.117
48.1245
48.0766
48.0179
48.1475
48.1108
48.0863
48.0682
48.1003
48.0442
47.9895
47.8828
47.944
48.0054
48.0467
48.0473
48.0047
48.0065
48.0582
48.1086
48.1113
48.1182
48.0395
48.063
48.1201
48.1
48.0711
48.0137
48.0939
48.0914
48.0855
48.067
48.0863
48.1159
48.0115
47.9461
48.0184
48.0692
48.0248
48.0355
48.0333
48.0268
48.096
48.0941
48.0927
48.1004
48.1186
48.0169
48.0835
48.0588
48.0747
48.0495
48.0626
48.0578
48.0859
48.076
48.0771
48.1862
48.0534
48.0078
48.0922
48.1455
48.0435
48.0418
48.077
48.012
48.1152
48.1007
48.1002
48.1165
48.1514
47.9915
48.0182
48.0656
48.0969
48.0817
48.0366
47.9991
48.1006
48.0909
48.0695
48.2313
48.1025
48.0568
48.1483
48.1928
48.0899
48.0493
48.1261
48.0145
48.2898
48.1254
48.1182
48.1368
48.1301
47.9586
47.9599
48.0925
48.1104
48.1082
47.9968
47.9308
48.1258
48.1138
48.0722
48.2515
48.1508
48.1004
48.1791
48.2041
48.1374
48.0757
48.1367
48.0934
48.3681
48.1595
48.1485
48.1586
48.1501
47.9743
48.0156
48.1267
48.1472
48.1387
48.0017
47.962
48.1583
48.1483
48.0997
48.2649
48.1939
48.1408
48.1966
48.2244
48.179
48.1284
48.1385
48.1176
48.1462
48.1952
48.1828
48.199
48.1746
48.0354
48.0896
48.1674
48.1918
48.1928
48.0866
48.0884
48.1962
48.1956
48.1796
48.2686
48.2324
48.1949
48.2259
48.2616
48.2165
48.1823
48.1581
48.2281
48.1477
48.2276
48.2158
48.2363
48.2322
48.1537
48.3036
48.2108
48.2317
48.2578
48.2525
48.3715
48.233
48.2411
48.2719
48.3215
48.2673
48.2395
48.2719
48.3097
48.2529
48.2224
48.2167
48.3301
48.3435
48.255
48.2458
48.2795
48.2862
48.3336
48.5411
48.2462
48.2645
48.2834
48.3308
48.5553
48.2649
48.2762
48.32
48.3566
48.2972
48.2774
48.3152
48.3036
48.282
48.2631
48.2605
48.3172
48.3518
48.2771
48.2698
48.3064
48.2831
48.3302
48.5045
48.2745
48.2883
48.285
48.3407
48.4588
48.285
48.2893
48.3225
48.3698
48.324
48.3421
48.348
48.316
48.3026
48.3112
48.2485
48.2608
48.2925
48.2952
48.2896
48.3022
48.2413
48.2903
48.3996
48.2927
48.2997
48.2747
48.325
48.3696
48.2972
48.2896
48.311
48.3336
48.342
48.3782
48.3106
48.2867
48.3156
48.3332
48.234
48.2206
48.2554
48.31
48.3039
48.2898
48.2202
48.2497
48.3104
48.3044
48.3022
48.2621
48.3011
48.31
48.302
48.2841
48.2974
48.286
48.343
48.3495
48.2965
48.1661
48.3187
48.3109
48.2203
48.1583
48.1934
48.3223
48.3152
48.2845
48.2153
48.1918
48.2434
48.3138
48.2984
48.2597
48.2705
48.2641
48.3086
48.2819
48.2863
48.2617
48.3337
48.3062
48.2732
48.1441
48.3193
48.276
48.2265
48.1293
48.1533
48.3347
48.3261
48.2784
48.226
48.1468
48.1985
48.3255
48.3018
48.2662
48.2346
48.2319
48.32
48.2934
48.2823
48.2225
48.3318
48.2692
48.1182
48.1714
48.3278
48.2477
48.1881
48.1598
48.1575
48.3489
48.3396
48.278
48.2731
48.1525
48.1905
48.3407
48.3173
48.2867
48.2191
48.2302
48.3405
48.3199
48.296
48.2377
48.3458
48.2665
48.0222
48.2305
48.3495
48.231
48.2793
48.2526
48.2094
48.3663
48.3614
48.3157
48.314
48.2369
48.2305
48.3589
48.3455
48.3261
48.2769
48.2797
48.3662
48.3544
48.3505
48.3625
48.3732
48.3205
48.2671
48.2924
48.3803
48.3028
48.4687
48.5028
48.3456
48.3843
48.3858
48.3617
48.3593
48.3632
48.3167
48.3768
48.3749
48.362
48.3477
48.3582
48.3897
48.3855
48.4104
48.4875
48.3975
48.3768
48.4868
48.4741
48.4029
48.3922
48.5294
48.6605
48.4888
48.3988
48.4022
48.3915
48.4091
48.43
48.4048
48.3917
48.3942
48.3821
48.3826
48.4276
48.4043
48.4051
48.4263
48.502
48.3969
48.3917
48.5244
48.5293
48.4011
48.4166
48.501
48.6197
48.5214
48.4119
48.4085
48.4008
48.4411
48.4273
48.4409
48.4034
48.4034
48.3939
48.3869
48.447
48.4138
48.4179
48.4135
48.5046
48.3879
48.3662
48.4859
48.514
48.3864
48.4095
48.489
48.5449
48.4975
48.421
48.4111
48.3987
48.4562
48.4202
48.432
48.412
48.4079
48.4195
48.3638
48.4164
48.4208
48.4219
48.4025
48.4987
48.3956
48.3723
48.4742
48.4974
48.3917
48.4051
48.4793
48.4901
48.4703
48.4269
48.4149
48.4066
48.4574
48.3962
48.403
48.4205
48.4176
48.4172
48.352
48.3775
48.4265
48.419
48.401
48.4853
48.4159
48.395
48.4607
48.4844
48.4174
48.4142
48.4717
48.4567
48.4438
48.4363
48.4225
48.4199
48.4334
48.359
48.3816
48.4294
48.4238
48.3887
48.3551
48.371
48.4296
48.4129
48.3977
48.4721
48.4456
48.418
48.4531
48.4691
48.4374
48.4271
48.4568
48.4393
48.4297
48.4427
48.4287
48.426
48.3988
48.3518
48.3868
48.4373
48.4365
48.3921
48.3939
48.3925
48.4346
48.414
48.4008
48.4624
48.4516
48.427
48.443
48.4506
48.4435
48.4274
48.4297
48.4099
48.4169
48.4486
48.4343
48.4198
48.3856
48.3777
48.4193
48.4432
48.4554
48.4314
48.4506
48.4745
48.439
48.413
48.4099
48.4536
48.4522
48.4283
48.4333
48.4323
48.4424
48.4138
48.3903
48.3697
48.3616
48.4525
48.4361
48.4035
48.3838
48.3785
48.3828
48.4438
48.4473
48.4283
48.4483
48.4443
48.4371
48.4225
48.4468
48.4479
48.4505
48.4275
48.423
48.4162
48.4366
48.4019
48.3537
48.3364
48.3315
48.4541
48.4332
48.3859
48.3753
48.3402
48.3285
48.4363
48.4232
48.4093
48.4011
48.3876
48.4255
48.4219
48.4525
48.4506
48.4542
48.4342
48.4189
48.4099
48.4347
48.3994
48.3461
48.3354
48.3374
48.4568
48.4314
48.3779
48.3626
48.2927
48.2935
48.4282
48.3925
48.3718
48.3621
48.3438
48.4026
48.3977
48.4163
48.4606
48.4686
48.4506
48.4266
48.4073
48.4406
48.405
48.3501
48.3327
48.3512
48.465
48.4369
48.3801
48.3454
48.2655
48.2696
48.425
48.3701
48.3295
48.3177
48.3118
48.3828
48.3621
48.3298
48.463
48.4984
48.4754
48.4372
48.3999
48.4565
48.4193
48.3464
48.2969
48.3325
48.4835
48.4526
48.3932
48.3317
48.2425
48.2497
48.4309
48.3648
48.2984
48.2983
48.2879
48.3813
48.3398
48.3122
48.4553
48.5433
48.5072
48.4312
48.3902
48.4857
48.4496
48.3459
48.2459
48.2739
48.5154
48.4822
48.4124
48.3178
48.2109
48.2185
48.4549
48.3772
48.3118
48.2758
48.2575
48.3999
48.3458
48.3087
48.4891
48.6094
48.56
48.4533
48.3864
48.5376
48.4953
48.3556
48.1724
48.1762
48.5625
48.5243
48.4429
48.3036
48.1434
48.1205
48.5022
48.4162
48.3445
48.2497
48.1886
48.451
48.4091
48.3122
48.5832
48.6957
48.652
48.5372
48.3735
48.618
48.5598
48.361
48.0525
48.0115
48.6299
48.5842
48.4835
48.2741
48.0178
47.9117
48.5657
48.478
48.3475
48.2028
48.0638
48.5033
48.4127
48.2906
48.7345
48.8102
48.7845
48.657
48.3871
48.7279
48.6399
48.3553
47.8301
47.6629
48.7261
48.6687
48.5374
48.2447
47.793
47.4106
48.6469
48.5403
48.3559
48.1295
47.8279
48.5566
48.4184
48.2599
48.9326
48.9699
48.9365
48.8133
48.4689
48.8776
48.742
48.3501
47.435
46.867
48.862
48.7939
48.6004
48.1936
47.3907
46.1109
48.7654
48.6391
48.3778
47.9839
47.3287
48.647
48.4606
48.2406
49.1998
49.1791
49.113
49.0068
48.5865
49.0827
48.8826
48.3056
46.8608
44.7884
49.0489
48.9651
48.6963
48.1206
46.8424
43.0954
48.9251
48.7607
48.4618
47.8363
46.3348
48.7716
48.5671
48.2719
49.4988
49.4459
49.314
49.2057
48.7122
49.359
49.073
48.2855
46.2517
38.6085
49.3161
49.2113
48.8515
48.1133
46.3011
39.1624
-19.8288
49.1427
48.9253
48.6198
47.6967
44.0433
48.9472
48.7303
48.3953
49.7101
49.7483
49.5837
49.3922
48.8083
49.698
49.3192
48.4996
46.171
33.1596
1.81094
49.6803
49.5411
49.0715
48.3601
46.1477
37.5434
5.86867
49.4201
49.1504
48.8411
47.7804
40.7173
49.17
48.9983
48.6837
49.8408
50.0679
49.845
49.5393
48.8924
50.0728
49.6175
48.8113
46.7249
36.5044
10.0626
50.1181
49.9374
49.373
48.6744
46.9272
37.0307
12.4913
49.7471
49.426
49.1904
48.231
41.9968
13.7966
49.4527
49.3199
49.1003
50.0642
50.3736
50.1102
49.8098
49.2096
50.3904
49.9413
49.1646
47.87
37.4507
8.88241
50.5366
50.3126
49.731
49.0332
47.9688
39.1035
11.0804
50.1022
49.7524
49.5902
48.7419
43.9366
49.7328
49.6526
49.5242
50.2801
50.5909
50.4334
50.1475
49.6357
50.5946
50.2862
49.7458
48.7436
42.1886
50.8081
50.5982
50.0542
49.5001
48.8625
41.4391
-14.332
50.4209
50.0062
49.8914
49.4479
48.065
49.9799
49.9481
49.9673
50.3183
50.6993
50.5806
50.249
49.8527
50.6374
50.4293
49.9979
49.3244
48.2119
50.8209
50.6889
50.2979
49.9692
49.5607
47.4624
50.6215
50.2137
50.1751
49.9671
50.1128
50.2184
50.2246
50.2545
50.3202
50.672
50.4932
50.2419
50.0202
50.6022
50.3381
49.9947
49.6279
49.6628
50.688
50.574
50.2842
50.0395
49.9388
49.551
50.5065
50.24
50.3124
50.2593
50.575
50.3626
50.3577
50.5004
50.3418
50.5505
50.397
50.2257
50.1718
50.4691
50.2471
50.0379
49.9383
50.2675
50.5559
50.4045
50.1548
49.9951
50.0344
50.1933
50.244
50.1793
50.3313
50.3033
50.6115
50.4819
50.4832
50.6058
50.3971
50.4736
50.3565
50.2543
50.2849
50.3505
50.2442
50.1641
50.1582
50.5364
50.4348
50.3063
50.113
50.1488
50.2747
50.528
50.0007
50.2418
50.3852
50.3967
50.6159
50.5254
50.515
50.6269
50.4746
50.4613
50.3765
50.3208
50.384
50.2853
50.2669
50.2599
50.2708
50.6018
50.4173
50.2882
50.2245
50.2962
50.3512
50.571
50.2054
50.4523
50.4915
50.4863
50.6417
50.6084
50.6052
50.6589
50.5696
50.5161
50.4429
50.4043
50.4784
50.2545
50.295
50.3116
50.3675
50.6224
50.4202
50.2899
50.3215
50.3492
50.3948
50.6003
50.4416
50.5758
50.5573
50.5123
50.6497
50.7125
50.6626
50.6535
50.6519
50.618
50.5359
50.487
50.5616
50.2622
50.275
50.3639
50.4326
50.6374
50.41
50.2653
50.3075
50.3618
50.4078
50.6398
50.4666
50.5094
50.5194
50.4973
50.6737
50.6689
50.6315
50.6163
50.7359
50.667
50.5975
50.5281
50.6161
50.2846
50.318
50.3998
50.4772
50.741
50.4048
50.2418
50.3331
50.4245
50.471
50.7297
50.461
50.5034
50.5399
50.5359
50.75
50.6354
50.6239
50.6542
154.891
184.859
156.363
174.409
199.703
200.749
202.25
200.985
189.178
162.377
159.376
176.628
173.147
156.837
162.275
160.46
161.282
178.794
194.752
169.988
182.978
201.627
200.434
193.668
201.847
197.44
196.823
182.54
186.196
177.299
172.546
183.138
170.517
174.892
175.997
178.2
187.174
182.091
189.093
202.476
203.948
191.025
197.935
192.605
191.213
194.283
204.547
204.208
164.722
165.622
171.449
165.487
173.601
162.184
176.066
182.921
198.696
200.392
190.368
204.294
209.004
198.499
206.849
209.654
199.49
216.508
204.474
200.366
198.318
199.729
171.712
178.668
171.945
175.122
168.107
186.418
202.913
164.838
184.695
189.52
201.375
198.69
200.83
202.019
200.659
192.864
196.991
199.781
197.701
225.216
215.879
213.18
208.519
207.366
191.784
199.403
147.722
146.19
156.815
147.913
151.912
136.869
144.304
134.92
178.054
189.851
136.693
127.069
121.015
190.031
114.39
161.144
143.314
145.642
155.011
144.895
142.657
141.7
140.174
139.564
188.661
185.387
190.523
146.464
132.022
164.06
137.661
186.127
121.42
164.928
160.359
160.579
149.074
152.804
156.06
184.925
175.784
159.708
163.17
162.307
152.555
143.509
140.99
138.498
130.081
178.255
179.458
180.146
176.234
185.54
144.78
128.838
149.827
131.108
127.952
129.889
135.559
122.995
121.649
178.989
173.676
178.164
172.254
183.712
161.852
166.282
179.036
140.139
125.983
159.47
151.752
132.087
134.69
129.971
145.582
140.64
123.048
118.405
121.778
131.717
132.453
121.191
115.064
128.415
113.582
104.183
112.175
102.547
103.455
98.2046
99.114
97.9005
95.4106
94.3196
92.08
133.467
126.602
135.368
131.638
131.664
127.26
127.799
126.483
124.315
93.0925
110.857
96.3728
89.3787
90.9826
88.3775
89.5522
94.6313
90.3636
137.928
140.483
143.742
128.884
120.226
125.234
127.444
136.996
88.3815
89.0734
99.4163
125.367
124.113
108.009
112.219
109.79
160.01
176.06
118.124
113.527
152.66
119.042
110.226
117.95
119.704
120.241
109.545
108.299
118.437
118.808
158.279
113.248
127.695
103.959
115.505
101.276
103.655
150.326
121.108
117.492
122.981
120.609
117.245
114.915
114.016
113.97
116.53
114.547
111.305
114.379
104.367
110.196
101.373
100.535
103.492
99.172
96.6843
97.4683
95.8671
94.3011
92.5755
90.8977
89.9344
88.7011
88.7536
84.2352
119.992
111.043
115.764
121.818
119.298
105.821
103.594
114.747
115.796
88.1873
81.6933
85.606
82.2716
82.9859
79.505
79.3463
86.098
80.9829
120.162
97.7879
104.2
105.334
83.3599
85.9003
80.2272
80.0061
80.7477
79.6911
78.1208
89.6954
92.8922
80.1503
79.2847
86.4216
80.2424
110.479
74.1809
74.3732
84.2885
100.199
92.1774
105.088
116.787
117.255
94.8562
100.587
108.574
114.01
97.0989
100.229
97.6886
98.3411
96.2229
96.5807
95.8779
95.2628
113.91
109.435
109.168
110.065
100.694
98.1663
101.111
106.357
112.285
105.927
97.0428
106.347
97.5511
92.9322
83.2003
90.7361
89.4299
89.9075
83.5718
81.5108
83.5657
84.7537
83.8791
78.8199
79.3325
78.777
79.9348
75.3524
96.0914
77.191
92.4198
101.005
110.152
81.032
80.0033
78.4573
91.1363
76.8793
77.4005
73.5607
73.3112
71.5669
73.0627
69.0377
76.846
72.445
87.4016
75.6067
74.0655
70.9493
70.1029
66.3949
75.949
74.1195
74.4595
70.5358
68.6037
76.7515
81.6018
75.6043
75.1526
75.7706
69.9159
70.9493
63.6827
64.9094
58.7777
86.2809
77.3143
88.5217
87.1598
106.048
74.6662
74.4508
68.6789
89.382
92.6194
91.8052
93.8447
83.7011
72.6473
88.2072
86.0984
63.1656
98.159
74.599
66.2829
68.3658
56.0458
54.1149
53.3425
86.9205
88.269
63.761
83.4437
57.1653
87.5707
72.8248
64.0078
75.6543
75.4188
76.9887
66.8888
67.4794
68.3173
73.1629
70.9121
63.1474
64.9454
58.9901
68.6959
59.2064
64.1258
60.4978
70.3595
64.3337
64.9879
62.673
62.0188
60.003
56.6903
66.0956
61.9954
64.7681
58.2042
59.5982
53.4091
59.5446
66.9346
60.3355
63.3053
64.5067
63.5246
60.4694
61.9937
62.564
63.4215
61.5646
62.6807
54.3472
52.9296
72.934
72.1361
68.3459
69.873
67.7904
59.4919
52.6843
52.3536
53.0167
50.7309
68.666
61.4196
69.5927
60.9637
62.1436
62.983
60.4044
54.2347
51.1131
51.3606
71.664
56.2472
49.3454
49.5591
48.3887
48.3586
50.478
53.8971
50.8381
51.5142
51.5599
51.0233
51.5415
51.6113
65.3308
51.2304
50.2122
46.6087
51.1616
46.947
55.8714
50.9386
57.0942
56.8439
58.4661
51.6901
51.3825
52.5895
55.9866
52.3432
50.5689
51.1187
49.9774
52.3178
50.2301
58.7722
56.833
55.0848
58.8648
56.5778
51.7438
50.4107
56.8322
55.8487
54.3883
51.5989
53.4144
51.9448
51.4018
51.0978
49.7611
51.7413
48.6303
59.2467
60.8069
61.8873
56.4528
57.6841
59.1614
49.7063
49.0412
52.6595
48.4281
48.6915
48.625
48.4937
49.2315
49.6102
49.2645
49.0627
49.1473
49.0248
49.1382
65.5102
60.6584
58.3755
60.3507
54.8299
54.21
49.8322
49.6867
49.0165
48.4463
49.3535
48.9043
49.2812
49.451
49.3864
48.9878
49.105
49.2391
49.4047
54.6363
51.3895
50.0794
50.6585
50.0558
49.1297
49.3502
50.1727
49.9066
50.1028
49.023
50.0212
49.7122
49.846
49.9898
50.0683
49.6385
50.2933
49.9279
50.9254
50.978
50.1561
50.31
50.3334
49.5128
50.8595
50.4446
50.8945
50.412
50.5079
49.1805
48.5927
50.0574
49.7494
50.3593
49.0776
48.7558
48.9754
49.6489
49.1882
49.044
48.9694
48.7835
49.7166
49.2821
54.6191
51.8782
48.7072
52.5278
51.0711
48.7184
48.4576
48.8401
47.8688
49.8
50.6137
49.2824
50.0839
49.2702
49.8961
49.1897
49.1844
49.1501
49.0969
49.1844
49.1275
49.1668
49.117
49.1553
54.5694
51.7681
53.3351
52.4432
48.1002
48.5579
49.2453
49.1112
49.3489
49.0404
49.11
49.1316
49.3356
49.195
49.1218
49.2238
49.0813
49.1565
49.0538
49.1437
52.2191
50.6712
47.7574
47.7846
48.4236
49.3416
49.4493
49.3814
49.2433
49.3693
49.4163
49.2375
49.1859
49.2507
49.3781
49.0215
49.1024
49.1152
49.2432
49.8623
48.7706
49.2875
50.0803
49.6601
49.0821
49.0432
49.7961
49.3584
49.6196
49.7313
49.7581
49.4438
49.519
49.4641
49.5379
49.3917
49.4986
49.3918
49.4311
49.2027
49.3291
49.7078
49.4111
49.9483
49.8888
49.546
49.591
49.5759
50.2971
49.9985
49.6694
49.6027
49.6281
49.4532
48.3686
48.2187
48.2964
48.3241
48.0999
47.9834
48.2037
47.9467
48.4024
48.4447
48.1992
48.0711
48.1081
48.9563
48.3476
48.2673
47.7619
48.321
47.8554
48.0727
47.9951
48.1715
47.7692
48.0509
49.1034
48.959
48.9864
48.7067
48.5454
48.1362
48.6114
48.9973
49.2084
48.7774
49.2524
49.1009
49.1507
49.1561
49.1777
47.9966
47.6698
47.6275
47.7418
47.7955
47.781
49.2198
49.0655
49.2904
48.8337
49.2566
48.9318
49.2781
49.1757
49.0607
49.1896
49.1689
49.2032
49.1059
49.1954
47.9652
47.9146
48.0466
48.0555
47.9582
49.2483
49.3058
49.3798
48.9648
49.1761
49.0692
49.2352
49.1284
49.0441
49.2447
49.0005
49.1507
49.0231
49.2653
48.3613
48.3233
48.7342
49.3094
49.0271
48.4854
48.4974
48.8996
48.7636
49.3632
49.2623
49.3751
49.0631
49.183
49.1055
49.2051
49.4118
49.0954
49.2917
49.3202
49.1106
49.3146
49.0535
48.7992
49.1916
49.2148
48.8994
48.8866
48.9113
49.2172
49.2578
49.0074
49.032
48.9993
49.0786
48.0753
47.9611
47.9765
48.1105
47.9967
47.9443
48.0168
47.937
47.9611
47.9386
47.8771
47.8637
47.9065
47.8538
47.786
47.8205
47.787
48.0435
47.8153
47.9328
47.8848
47.9418
47.8026
47.862
47.8269
47.7438
48.0901
47.5907
47.6911
47.7266
47.7294
48.3455
47.8499
47.7983
47.7782
47.7584
47.7504
47.7435
47.728
49.3171
48.7634
49.2748
48.1737
49.1049
48.5331
49.0324
49.2402
49.1684
49.2391
49.2765
49.2692
49.2299
49.289
47.9567
47.9522
47.8717
47.8627
47.8656
49.1916
49.0345
49.4339
48.5698
48.9536
48.7659
49.0534
49.1663
48.9743
49.2913
49.1767
49.1803
49.0989
49.2927
48.2524
48.0682
48.3068
48.5544
48.5549
48.1889
48.1247
48.2814
48.2913
48.9359
48.9309
48.9766
48.7163
48.7369
48.7586
48.7918
48.6571
48.571
48.338
48.6469
48.663
48.4108
48.455
48.4823
48.8427
48.7962
48.5817
48.66
48.5888
48.7546
47.8768
47.8174
47.8782
47.9169
47.8548
47.8297
47.8393
47.8216
47.7918
47.8827
47.8066
47.7897
47.857
47.7844
47.7826
47.7779
47.7567
47.8489
47.7848
47.8155
47.7951
47.7745
47.7732
47.7899
47.7634
47.7709
47.6947
47.7739
47.7888
47.7702
47.7496
47.6855
47.7607
47.7386
47.7273
47.7169
47.7267
47.7161
47.709
48.2561
48.9952
47.5763
47.8836
47.073
47.8063
47.7989
47.7981
47.7824
47.7831
49.1007
48.3618
48.0172
47.4337
48.1945
47.9187
47.834
47.9734
48.1063
48.1038
47.865
47.8956
47.9418
47.9776
48.5779
48.5994
48.6321
48.4122
48.4539
48.4745
48.5024
48.3874
48.1283
48.0018
48.2952
48.324
48.064
48.1433
48.1649
48.4992
48.4089
48.238
48.3736
48.2552
48.4504
47.7721
47.7338
47.8226
47.7585
47.8011
47.7784
47.645
47.7433
47.7926
47.8348
47.7912
47.7888
47.797
47.7607
47.7452
47.7436
47.7375
47.7351
47.7562
47.7666
47.7327
47.7255
47.7468
47.7449
47.7981
47.7423
47.7833
47.7138
47.795
47.7316
47.7828
47.8006
47.803
47.7156
47.7012
47.6904
47.7153
47.6943
47.6826
47.8348
47.5901
47.8098
47.9242
47.9212
47.73
47.7337
47.6994
47.6685
47.6378
47.7749
48.1378
47.9853
47.975
48.1176
47.7542
47.6256
47.8438
47.7985
47.8831
47.6767
47.7809
47.7497
47.8124
48.3432
48.3651
48.3883
48.2076
48.2535
48.2706
48.2906
48.2145
47.9289
47.8748
48.0341
48.0493
47.9275
47.9689
47.9806
48.2562
48.1451
48.0694
48.1439
48.0694
48.2365
47.7039
47.7034
47.7033
47.5916
47.6759
47.6953
47.626
47.665
47.7639
47.7656
47.7388
47.7336
47.7582
47.742
47.7476
47.7428
47.7516
47.7169
47.7438
47.73
47.7258
47.7152
47.7487
47.7318
47.7969
47.7577
47.7869
47.7409
47.8124
47.7769
47.8137
47.8147
47.84
47.7223
47.6941
47.6907
47.7295
47.7021
47.7037
47.9557
47.9371
47.8496
47.9389
47.9259
47.6557
47.5927
47.6815
47.6619
47.608
47.9848
48.0935
47.9969
47.9687
48.0645
47.5807
47.6429
47.7254
47.7366
47.7611
47.6456
47.7082
47.7342
47.7429
48.1829
48.1862
48.2081
48.0853
48.1331
48.118
48.1421
48.1338
47.8253
47.796
47.9215
47.9299
47.8414
47.8817
47.8908
48.0706
48.014
47.9669
48.0269
47.9714
48.0947
47.7243
47.7634
47.7284
47.6847
47.7102
47.7756
47.7646
47.7675
47.7181
47.7617
47.7496
47.7265
47.7776
47.7587
47.7796
47.7663
47.7864
47.7268
47.7637
47.7447
47.7712
47.7501
47.7823
47.7638
47.8277
47.7964
47.8455
47.7786
47.8371
47.8187
47.8654
47.8647
47.8833
47.7438
47.7241
47.7244
47.7688
47.7518
47.7521
47.9255
47.9229
47.877
47.9233
47.9244
47.6837
47.6433
47.7331
47.7298
47.6861
47.9567
48.0347
47.9636
47.949
48.0135
47.6717
47.6907
47.7201
47.7387
47.7428
47.7141
47.7478
47.7441
47.7485
48.0995
48.0713
48.0954
48.0382
48.0746
48.0373
48.0621
48.0837
47.799
47.8063
47.8567
47.8648
47.8424
47.8449
47.8526
47.9958
47.9419
47.92
47.9762
47.9321
48.019
47.8123
47.8557
47.8175
47.8537
47.8156
47.8528
47.9166
47.8528
47.7635
47.8037
47.8189
47.8117
47.837
47.8091
47.8374
47.8091
47.8326
47.7947
47.8048
47.7869
47.8478
47.8365
47.8293
47.8127
47.8518
47.8317
47.8761
47.8364
47.8678
47.8499
47.8837
47.889
47.9033
47.7939
47.7769
47.7764
47.8168
47.7993
47.7977
47.9282
47.9288
47.9286
47.9313
47.9324
47.7689
47.7353
47.7986
47.7991
47.7949
47.9507
48.0024
47.9718
47.9605
48.0006
47.7436
47.8101
47.7718
47.7509
47.7622
47.7892
47.7957
47.7669
47.7745
48.0603
48.015
48.0424
48.0281
48.0538
48.0058
48.0319
48.0612
47.8098
47.82
47.8436
47.8535
47.8605
47.8518
47.861
47.9686
47.9422
47.9397
47.9683
47.9541
48.0017
47.8838
47.897
47.871
47.9434
47.8731
47.8763
47.9406
47.8786
47.8436
47.8664
47.8667
47.8571
47.8779
47.8631
47.8813
47.8532
47.8684
47.8644
47.8516
47.8361
47.8945
47.8811
47.8679
47.8543
47.8887
47.8793
47.8935
47.887
47.9056
47.899
47.9053
47.9185
47.9342
47.8378
47.8201
47.8178
47.8532
47.8383
47.8342
47.9355
47.9355
47.9613
47.9452
47.9368
47.8161
47.8262
47.8214
47.8185
47.8328
47.9698
47.9999
47.9881
47.9761
48.0007
47.8502
47.837
47.8065
47.7894
47.7748
47.8034
47.7955
47.7797
47.7601
48.0411
48.0099
48.0256
48.0288
48.0283
48.0183
48.0186
48.0443
47.8261
47.8189
47.8619
47.8715
47.8812
47.8698
47.8817
47.9823
47.9657
47.9677
48.003
47.9777
48.0274
47.9017
47.9036
47.8779
47.9275
47.8793
47.8792
47.9163
47.8795
47.8644
47.8736
47.8795
47.8734
47.8673
47.8945
47.9124
47.8791
47.8874
47.8915
47.8783
47.8674
47.9035
47.8987
47.8855
47.8761
47.921
47.9092
47.9269
47.9273
47.9419
47.9383
47.9504
47.9537
47.9773
47.8638
47.8508
47.8455
47.8735
47.86
47.8545
47.9524
47.9444
47.9884
47.9645
47.9546
47.8276
47.8256
47.8515
47.8507
47.8162
47.982
47.9997
47.9923
47.9867
47.9969
47.8022
47.7837
47.7682
47.7568
47.7482
47.7496
47.7472
47.7537
47.7518
48.0168
48.0239
48.0145
48.011
48.0043
48.0228
48.0098
48.0273
47.8166
47.8257
47.876
47.8927
47.8926
47.8914
47.9067
48.021
47.9955
48.0052
48.0353
48.0136
48.0429
47.906
47.9099
47.8846
47.9114
47.8828
47.896
47.9105
47.8927
47.884
47.8713
47.9027
47.898
47.8977
47.9362
47.9555
47.8951
47.9039
47.9042
47.8921
47.8836
47.9089
47.9085
47.9002
47.8922
47.966
47.957
47.9649
47.968
47.9828
47.9402
47.9746
47.9975
48.0153
47.8838
47.8713
47.8656
47.8959
47.8848
47.8799
47.9754
47.9616
48.0218
47.9889
47.9711
47.8697
47.8215
47.8897
47.8832
47.8388
47.991
47.9923
47.9977
47.9927
47.9877
47.7942
47.8265
47.7518
47.7798
47.7729
47.7983
47.7782
47.8206
47.8106
47.9962
48.0169
48.0022
47.9646
47.9948
48.011
48.0029
48.0104
47.8479
47.8778
47.9113
47.9276
47.9308
47.9389
47.9556
48.0394
48.0229
48.0154
48.0386
48.0282
48.0378
47.9153
47.923
47.9102
47.9141
47.9069
47.9245
47.9215
47.9221
47.9121
47.9305
47.9344
47.9238
47.9502
47.9668
47.9796
47.916
47.9303
47.9143
47.9107
47.902
47.9242
47.9222
47.9238
47.9135
47.9944
47.9386
47.9944
47.9805
48.0041
47.9751
48.0218
48.0397
48.0643
47.9111
47.9036
47.899
47.9275
47.9237
47.9191
48.0065
47.9855
48.0282
48.0232
48.0007
47.8985
47.8657
47.932
47.9151
47.8989
47.9957
47.986
47.9974
48.0019
47.995
47.8732
47.9234
47.8129
47.8718
47.8528
47.8965
47.8558
47.9251
47.901
47.9958
48.0102
48.0094
47.9999
48.0113
48.0178
48.022
48.0152
47.9138
47.9528
47.974
47.9841
47.9927
48.0039
48.0089
48.0342
48.0384
48.0326
48.0323
48.0497
48.0342
47.9322
47.9428
47.9366
47.9311
47.9338
47.9479
47.9419
47.9446
47.9351
47.9598
47.9579
47.9469
47.9637
47.9934
48.0033
47.9453
47.9602
47.9316
47.939
47.9265
47.9483
47.942
47.9547
47.9397
48.0075
48.0086
48.0314
47.9985
48.0121
48.023
48.0327
48.0764
48.0798
47.9432
47.941
47.9366
47.9581
47.9576
47.9526
48.0372
48.016
48.0323
48.0479
48.0292
47.9339
47.9349
47.9627
47.9536
47.9704
48.0139
48.0082
48.0185
48.0253
48.0216
47.9727
48.0173
47.9043
47.9747
47.9502
47.999
47.9502
48.0202
47.9944
48.0356
48.0317
48.0383
48.0856
48.054
48.0406
48.0507
48.0538
47.9913
48.0272
48.0288
48.0324
48.0534
48.0503
48.053
48.0369
48.0623
48.0616
48.044
48.0755
48.0518
47.9543
47.9663
47.96
47.9539
47.9569
47.9741
47.9668
47.9713
47.956
47.9856
47.9818
47.9778
48.0161
48.0207
48.0321
47.9743
47.9856
47.9538
47.9694
47.9528
47.9732
47.9657
47.9846
47.9648
48.0237
48.0248
48.0382
48.0283
48.0391
48.0236
48.0444
48.0777
48.0759
47.9717
47.9725
47.9704
47.9836
47.9896
47.9892
48.0557
48.0408
48.0454
48.0603
48.0501
47.9765
48.0044
48.0021
48.0013
48.0332
48.0365
48.033
48.0349
48.0469
48.0403
48.0591
48.0942
47.9985
48.0646
48.0347
48.0925
48.0429
48.0977
48.0624
48.057
48.0453
48.062
48.0676
48.0667
48.0582
48.0793
48.0707
48.0572
48.0792
48.0723
48.0738
48.095
48.0891
48.0891
48.0579
48.0906
48.0913
48.0681
48.1031
48.0674
47.978
47.9886
47.9888
47.9799
47.9867