/*--------------------------------*- C++ -*----------------------------------*\
| =========                 |                                                 |
| \\      /  F ield         | OpenFOAM: The Open Source CFD Toolbox           |
|  \\    /   O peration     | Version:  5.x                                   |
|   \\  /    A nd           | Web:      www.OpenFOAM.org                      |
|    \\/     M anipulation  |                                                 |
\*---------------------------------------------------------------------------*/
FoamFile
{
    version     2.0;
    format      ascii;
    class       volVectorField;
    location    "7.4";
    object      U;
}
// * * * * * * * * * * * * * * * * * * * * * * * * * * * * * * * * * * * * * //

dimensions      [0 1 -1 0 0 0 0];

internalField   nonuniform List<vector> 
10571
(
(0.0458111 0.285541 1.39888)
(-0.0550692 0.118605 0.968679)
(-0.285039 0.230116 1.04465)
(-0.168524 0.423992 1.4547)
(-0.103677 0.429654 1.49402)
(-0.484066 -0.204187 1.92992)
(-0.401016 -0.0206718 1.30281)
(-1.13187 -0.0866455 1.30543)
(-0.23962 0.161412 1.39885)
(-0.245517 0.136213 1.59083)
(0.153091 -0.239609 2.33187)
(0.11272 -0.0398155 1.77797)
(-0.391849 0.225118 1.44643)
(-0.918632 0.545362 1.25022)
(-0.386432 0.805569 1.06477)
(-0.176367 0.164594 1.39204)
(0.130316 -0.0107967 1.13016)
(-0.0457065 0.463938 2.02214)
(-0.183854 0.44273 1.32041)
(-0.417166 0.591461 1.02629)
(-0.0556514 -0.0524791 0.455316)
(0.0976487 0.0884042 1.76713)
(0.17535 0.171584 1.56144)
(-0.0749023 0.0525008 1.40897)
(-0.141841 -0.00107365 0.550775)
(0.143838 -0.233738 0.689149)
(-0.230063 0.284091 1.54556)
(-0.346372 -0.0736385 0.608069)
(0.0596167 -0.0162606 0.355081)
(-0.488113 -0.1696 1.22728)
(-0.319832 -0.131703 0.608092)
(0.00476647 -0.0615484 0.387779)
(0.00761947 -0.0449104 0.604457)
(-0.0439994 -0.10195 0.71118)
(-0.000893069 -0.0692553 0.639147)
(-0.17132 0.00136566 0.775238)
(-0.119762 0.133009 0.635681)
(0.0270349 -0.00938869 0.24975)
(0.0578428 0.0820936 0.383285)
(-0.00717058 0.116925 0.42242)
(-0.0349263 0.267665 0.475455)
(0.190141 0.578152 1.17943)
(0.275154 0.981833 1.58511)
(-0.12444 1.02989 0.619187)
(-0.0635718 0.0983486 0.256074)
(0.120464 0.444649 1.20758)
(0.42648 0.478459 1.46542)
(0.103467 -0.199229 1.67439)
(0.0576622 -0.00131998 0.343902)
(0.141872 -0.250155 1.22263)
(1.07788 -0.350634 2.35668)
(0.0188805 0.0211729 0.440222)
(0.0693828 -0.0364928 0.494914)
(0.254163 -0.0121182 1.52278)
(0.403121 -0.129772 0.4455)
(0.13422 -0.0558393 0.394563)
(-0.0394897 -0.0218702 0.584919)
(-0.0731038 -0.0656411 0.827418)
(0.0808111 0.0833254 0.673062)
(0.124524 -0.0178627 0.791964)
(0.504551 -0.28197 0.88491)
(0.230213 -0.251235 0.173621)
(0.0497388 -0.133136 0.399537)
(-0.100215 -0.0230114 0.542964)
(0.040484 0.0155676 0.605357)
(0.373986 -0.203397 1.44676)
(0.365734 -0.596557 1.38348)
(0.170847 -0.478574 0.591803)
(0.120719 -0.0751198 0.463938)
(0.615857 0.0746782 1.29585)
(0.784758 -0.0359237 2.23326)
(0.218007 -0.225185 3.42697)
(0.168122 0.00298954 0.446326)
(-0.12816 -0.06854 0.72284)
(-0.00960831 0.499444 2.3071)
(0.305628 0.0559754 0.632226)
(0.142889 0.0176089 0.558624)
(0.150637 -0.362875 0.789809)
(0.40048 -0.0241763 1.03877)
(0.163731 0.221396 0.98365)
(0.0174838 -0.0133843 0.622602)
(-0.0405761 -0.000567002 0.728863)
(0.0221025 -0.043658 0.40047)
(0.0761395 -0.200418 0.832048)
(0.382551 -0.184187 0.419533)
(0.23833 -0.336011 0.842372)
(-0.0420194 -0.148815 0.780678)
(-0.028249 -0.129682 0.45069)
(0.0643858 -0.0944499 0.581573)
(0.277356 -0.208451 0.27171)
(0.165945 -0.589886 0.762527)
(0.215051 -0.90619 1.18897)
(0.0688587 -0.0563484 0.523661)
(0.235245 -0.413197 0.910866)
(0.379264 -1.32978 2.99508)
(0.109024 -0.683425 3.21579)
(0.219988 -0.00731498 0.453085)
(-0.0418209 -0.170335 0.890368)
(0.0725466 0.087498 1.21598)
(0.115975 0.0158067 0.665147)
(0.172753 -0.0464219 0.477374)
(-0.0218495 -0.391713 1.26376)
(0.405694 0.341473 1.51592)
(0.0830555 0.182798 0.805103)
(-0.113396 0.0104431 0.886368)
(0.0291003 -0.133049 0.719303)
(0.0320332 0.0254993 0.545026)
(0.1062 -0.112254 0.954762)
(0.375231 0.254802 1.49006)
(-0.0507753 0.412794 0.852544)
(-0.0444887 -0.375624 0.801745)
(-0.123774 -0.11331 0.301952)
(0.0697871 -0.014018 0.511595)
(0.53742 -0.263485 1.97399)
(-0.283099 -0.196234 2.34011)
(0.737369 -0.113685 1.53555)
(0.126514 -0.191052 0.381833)
(0.154129 -0.0310187 0.924719)
(0.185026 -0.179385 2.31859)
(0.431153 0.049294 3.00469)
(0.182965 -0.00666766 0.344083)
(0.22471 -0.461117 1.35408)
(-0.185865 -0.175398 0.300069)
(0.047791 0.0594663 0.156146)
(0.223438 0.163983 0.259311)
(0.403127 -0.132246 1.01945)
(0.318601 0.0853652 1.06875)
(0.172154 -0.0082153 0.685831)
(-0.0854633 -0.0866104 0.665906)
(-0.210762 -0.204627 0.565797)
(-0.0211918 -0.00767203 -0.000472125)
(-0.0192445 -0.0512462 0.217392)
(0.11474 -0.0888274 0.286359)
(0.226228 0.24861 0.691697)
(0.125215 -0.00657788 0.692798)
(0.078995 -0.245355 0.523989)
(0.06272 -0.18075 0.182793)
(-0.00168317 -0.000504551 -0.000468082)
(0.174678 0.0426259 -0.151469)
(0.28754 -0.0649058 1.08762)
(-0.214833 -0.166757 1.31197)
(0.025426 -0.233721 1.13627)
(-0.0212014 -0.147415 0.213521)
(0.296284 0.0412742 -0.123587)
(0.0511756 -0.0274233 0.705334)
(-0.0553996 0.0845797 1.82407)
(0.0661873 0.00248864 0.123857)
(0.382792 -0.469783 1.42129)
(0.246599 -0.283964 0.584076)
(-0.0501468 -0.109469 0.168027)
(0.141995 0.135058 0.392506)
(0.229532 0.207634 0.379499)
(0.318525 -0.0114948 1.15094)
(0.157384 -0.0282635 0.854723)
(-0.0793776 -0.106804 0.831931)
(-0.0673229 -0.200743 0.543536)
(-0.0576924 0.0270817 0.00879159)
(-0.00156193 0.0442508 0.338012)
(0.178477 -0.146075 0.371703)
(0.180225 0.18045 0.84771)
(0.165575 -0.20316 0.931742)
(0.119432 -0.254993 0.628355)
(0.104648 -0.158686 0.282952)
(-0.0265202 -0.0229029 -0.0686212)
(0.136918 0.0246053 -0.0398479)
(0.249493 -0.0524286 1.14495)
(-0.134579 -0.200228 1.41444)
(0.310724 -0.26182 1.06464)
(0.184425 -0.148276 0.14893)
(-0.0715549 -0.0203204 -0.041439)
(0.157019 0.252436 0.220261)
(-0.282915 0.0712556 0.90431)
(0.191436 0.0285353 2.07857)
(0.1527 0.00338857 0.159954)
(0.369823 -0.393077 1.12463)
(0.417406 -0.3346 0.77597)
(-0.0109623 -0.18555 0.422755)
(0.0166868 0.0577587 0.623692)
(0.0949941 0.047967 0.228026)
(0.321735 -0.0171669 1.1163)
(0.0614565 -0.0462924 1.00467)
(-0.0356982 -0.036697 0.914498)
(0.00634054 0.0438496 0.619907)
(0.0756682 0.048712 0.0118959)
(0.0066059 -0.0591032 0.337399)
(0.195848 -0.0817277 0.26235)
(0.159124 0.0827123 0.784396)
(0.152482 -0.269366 1.01391)
(0.15621 -0.306958 0.738069)
(-0.0110327 -0.165716 0.286267)
(0.00401206 0.0571429 -0.0501986)
(0.0698626 -0.0295426 0.0391494)
(0.237299 -0.0836974 1.14116)
(-0.0957646 -0.252872 1.32781)
(0.233914 -0.359469 0.875091)
(0.191163 -0.187217 0.306836)
(0.0793063 0.0478826 0.0105289)
(-0.0680656 0.136013 0.401227)
(-0.367033 0.064337 0.790168)
(0.373764 -0.0133983 2.02518)
(0.183134 -0.004751 0.341715)
(0.190836 -0.17084 0.716513)
(0.328827 -0.212878 0.707983)
(-0.0956932 -0.193724 0.691505)
(-0.100087 -0.000772756 0.777393)
(0.075334 -0.025794 0.314279)
(0.28997 -0.0364651 1.05748)
(0.0331571 -0.0866675 1.07478)
(-0.0494375 -0.00584478 1.03898)
(0.0332396 0.232354 0.647707)
(0.0358631 0.0632088 0.0292801)
(0.0032416 -0.0464155 0.0978885)
(0.111646 -0.0504718 0.217675)
(0.0861605 -0.117906 0.746371)
(0.140123 -0.308944 1.05636)
(0.0821415 -0.343424 0.899216)
(-0.0490437 -0.0354553 0.34237)
(-0.0240823 0.0137799 0.0102698)
(-0.0209964 -0.0950064 0.0741562)
(0.143883 -0.126392 1.09377)
(-0.0819448 -0.253988 1.10003)
(0.171839 -0.414157 0.766688)
(0.0379061 -0.0557144 0.474161)
(-0.24264 -0.0151205 0.447261)
(-0.282833 0.00366289 0.648523)
(0.256547 0.0112652 1.99544)
(0.150353 -0.0206206 0.483292)
(0.112193 -0.0615052 0.484593)
(-0.130928 0.144004 0.706006)
(-0.229204 -0.175788 0.851346)
(-0.167463 -0.0487263 0.887159)
(0.103876 0.0333421 0.328546)
(0.237081 -0.113316 1.06469)
(0.0113892 -0.108239 1.22487)
(-0.0824332 0.0597477 1.08525)
(-0.030637 0.0559648 0.431801)
(-0.00595739 -0.0586421 0.0587363)
(0.0584097 -0.0337915 0.257722)
(0.0229127 -0.237355 0.733698)
(0.152346 -0.295117 1.10178)
(0.0400068 -0.274757 1.03196)
(-0.0716742 0.131606 0.438694)
(-0.088905 -0.118039 0.0967562)
(0.00220682 -0.224896 0.944201)
(-0.0310397 -0.204441 0.919493)
(0.114526 -0.283447 0.782283)
(-0.0362538 0.124344 0.638237)
(-0.187343 0.0241319 0.413799)
(-0.0262478 -0.0629732 0.558858)
(0.0103667 -0.182799 1.10853)
(0.117064 -0.00877744 0.537629)
(0.0391371 0.0224921 0.452739)
(-0.384238 0.156787 0.769891)
(-0.293301 -0.185846 0.94909)
(-0.170008 -0.00614787 0.810089)
(0.140538 0.100594 0.317987)
(0.128747 -0.168955 1.12269)
(-0.0512752 -0.0697363 1.30035)
(-0.0592191 0.118082 1.12723)
(0.00692997 0.10454 0.250123)
(-0.00582935 -0.0475519 0.0496924)
(0.0472473 0.01761 0.307838)
(-0.000456855 -0.26195 0.725633)
(0.162781 -0.222289 1.14309)
(-0.0198939 -0.14431 1.13138)
(-0.0178208 0.118501 0.439149)
(-0.0898195 -0.104777 0.102153)
(-0.0175139 -0.269506 0.762316)
(-0.0448156 -0.0979669 0.851161)
(-0.0341907 -0.0456189 0.916324)
(-0.108299 0.227654 0.614476)
(-0.093416 0.0561289 0.321424)
(0.0571776 -0.0679309 0.479314)
(0.107732 -0.102722 0.606355)
(-0.00675031 -0.0332485 0.595938)
(-0.0694504 0.0990592 0.547296)
(-0.473694 0.0786787 0.863821)
(-0.298121 -0.141108 0.94303)
(0.046224 0.122395 0.463467)
(0.0878565 0.159633 0.353731)
(0.0337296 -0.0923707 1.21451)
(-0.0875093 -0.00882872 1.38832)
(-0.0679766 0.127797 1.18115)
(0.0489555 0.147338 0.218946)
(-0.00472148 -0.0217245 0.0379494)
(0.03831 0.0577444 0.346794)
(-0.0192127 -0.241465 0.739723)
(0.0855814 -0.153362 1.17674)
(-0.138385 -0.0721094 1.17415)
(-0.019179 0.113384 0.37441)
(-0.0521738 -0.079499 0.0960012)
(-0.0255464 -0.224832 0.618559)
(-0.133354 0.0292368 0.847485)
(-0.15008 0.101728 1.02255)
(-0.150985 0.210865 0.442231)
(-0.0697061 0.0331037 0.221035)
(-0.01703 0.00180912 0.432312)
(0.0353759 -0.00378546 0.541443)
(-0.216564 -0.0478179 0.645006)
(-0.105971 0.11518 0.662025)
(-0.444024 0.0988478 0.927859)
(-0.275998 0.0511554 0.76683)
(0.0426145 0.0964549 0.324917)
(-0.0229731 0.226855 0.467438)
(-0.0513683 0.012941 1.27345)
(-0.083255 0.0217939 1.49479)
(-0.103054 0.125897 1.18811)
(0.127953 0.124072 0.214726)
(-0.0057962 0.0103582 0.0401208)
(0.0129528 0.0852196 0.396024)
(-0.0894321 -0.149499 0.830885)
(-0.0949698 -0.0766868 1.2051)
(-0.255138 -0.0193849 1.11435)
(0.0358215 0.144641 0.298568)
(-0.0218419 -0.0502553 0.0921671)
(-0.0663805 -0.14946 0.560282)
(-0.215564 0.0833012 0.856074)
(-0.222233 0.161835 1.0212)
(-0.094698 0.15994 0.249256)
(-0.0851065 0.0178527 0.177606)
(-0.08623 0.0617724 0.443437)
(-0.117234 0.100591 0.68694)
(-0.125718 -0.0244029 0.534298)
(-0.0697762 0.0846053 0.755161)
(-0.324454 0.113494 0.948439)
(-0.151065 0.086617 0.558189)
(0.0409578 0.0945302 0.188466)
(-0.0851063 0.255494 0.578223)
(-0.107072 0.0479617 1.29774)
(-0.104323 0.017798 1.54041)
(-0.167104 0.144757 1.11467)
(0.19188 0.0798222 0.18695)
(-0.00654407 0.0373192 0.0771283)
(-0.0249268 0.11417 0.478218)
(-0.160532 -0.0506369 0.949673)
(-0.208924 0.0006355 1.2267)
(-0.277118 0.133376 0.978927)
(0.0572171 0.203552 0.229373)
(-0.00626633 -0.0185147 0.11689)
(-0.0982708 -0.0828618 0.572608)
(-0.239018 0.0775599 0.853048)
(-0.251054 0.171354 0.923806)
(-0.0850453 0.169471 0.219519)
(-0.0992204 0.00671779 0.190817)
(-0.130163 0.0863286 0.500734)
(-0.205732 0.14699 0.821761)
(0.0704907 -0.0091809 0.218016)
(-0.0723456 -0.00112835 0.828055)
(-0.172914 0.0896915 0.936338)
(0.0967631 -0.0351923 0.455006)
(0.0526169 0.0959239 0.106859)
(-0.0638687 0.269296 0.636234)
(-0.113673 0.0479647 1.30471)
(-0.146322 0.0153702 1.55985)
(-0.129901 0.158264 0.893106)
(0.221045 0.0601895 0.161978)
(-0.00829491 0.0457557 0.142106)
(-0.0709496 0.118015 0.596109)
(-0.181223 0.00651077 1.04565)
(-0.229514 0.0304715 1.23193)
(-0.166497 0.326578 0.833335)
(0.0390752 0.254873 0.172963)
(0.00333927 0.00941184 0.170577)
(-0.0996 -0.0267394 0.635884)
(-0.227844 0.0516621 0.849313)
(-0.206217 0.242555 0.849603)
(-0.0889904 0.193539 0.257118)
(-0.101714 -0.00584084 0.241217)
(-0.146977 0.0841844 0.580233)
(-0.234316 0.142844 0.87221)
(0.108326 -0.0245319 0.130012)
(0.0949265 -0.120826 0.962854)
(-0.0404069 0.036177 0.925991)
(0.227107 -0.065708 0.341792)
(0.0668546 0.113753 0.0850152)
(-0.0465218 0.249823 0.641199)
(-0.101003 0.044471 1.29308)
(-0.157553 0.0143848 1.55215)
(0.0982879 0.161263 0.564817)
(0.217785 0.057348 0.156918)
(-0.0115419 0.0402346 0.219701)
(-0.120067 0.0769687 0.718806)
(-0.189704 0.0573386 1.10696)
(-0.223209 0.0186801 1.22042)
(-0.0214955 0.356362 0.7372)
(0.0132073 0.29048 0.161905)
(0.00948256 0.0311823 0.237907)
(-0.0656619 0.0314385 0.715409)
(-0.138225 -0.0344906 0.84306)
(-0.137827 0.278268 0.854983)
(-0.0831999 0.192758 0.367653)
(-0.0892336 -0.0120335 0.302441)
(-0.129675 0.0572228 0.653086)
(-0.218402 0.157292 0.936869)
(0.113421 -0.0378477 0.20325)
(0.10942 -0.0774998 0.864476)
(0.123764 -0.104171 0.850479)
(0.190136 -0.0601742 0.317594)
(0.0681872 0.135325 0.0674944)
(-0.0633654 0.166051 0.610385)
(-0.0983254 0.058535 1.2552)
(-0.165611 0.037409 1.49447)
(0.241537 0.152919 0.373316)
(0.198862 0.0499138 0.190336)
(-0.0144021 0.0340304 0.303379)
(-0.147575 0.0274804 0.806636)
(-0.169945 0.0898484 1.1375)
(-0.172642 -0.00823033 1.1711)
(0.0422551 0.211773 0.701222)
(0.0101945 0.291446 0.208326)
(0.0115179 0.0409281 0.309938)
(0.00955369 0.0792721 0.773962)
(0.0245179 -0.120767 0.840599)
(-0.0601401 0.179543 0.89155)
(-0.077265 0.147226 0.516613)
(-0.0710336 -0.00485537 0.358048)
(-0.0892081 0.0242401 0.694679)
(-0.203397 0.0665087 1.00666)
(0.113551 -0.0384985 0.443445)
(-0.0361792 -0.00435904 0.631564)
(0.0325149 -0.0842618 0.721411)
(0.0151527 -0.215585 0.337027)
(0.019552 0.137411 0.036859)
(-0.0218031 0.0673795 0.630127)
(-0.147657 0.0874169 1.25334)
(-0.125509 0.0733912 1.32397)
(0.312095 0.0916384 0.266559)
(0.214093 0.0372822 0.233331)
(-0.0108542 0.0429801 0.379295)
(-0.126352 0.0158915 0.858808)
(-0.130016 0.113862 1.15504)
(-0.115235 0.0263149 1.17333)
(0.083238 0.0352558 0.728478)
(0.0393048 0.23534 0.325383)
(0.00664988 0.0245688 0.375836)
(0.0792033 0.142774 0.797493)
(0.115955 -0.0899062 0.858147)
(0.0361812 -0.0436601 0.957725)
(-0.070114 0.0996262 0.566428)
(-0.0571607 0.0219794 0.398379)
(-0.0255847 0.0069233 0.686505)
(-0.0331835 -0.0824397 0.795198)
(0.141686 -0.0078202 0.808639)
(-0.0686895 0.0245256 0.622115)
(-0.0852724 -0.0312745 0.651602)
(-0.0758274 -0.340964 0.350544)
(-0.0395703 0.139965 -0.0176695)
(-0.0299812 0.0368024 0.685257)
(-0.309086 0.0714668 1.18279)
(0.0723767 -0.0822002 0.959555)
(0.327657 0.0355673 0.213234)
(0.206666 0.0100895 0.320715)
(-0.0040164 0.0793258 0.43521)
(-0.0903958 0.0457826 0.882766)
(-0.111535 0.176239 1.14857)
(-0.00057766 0.192131 1.16329)
(0.129468 0.0198603 0.778494)
(0.0857551 0.139275 0.505888)
(-0.00925487 -0.00652337 0.427477)
(0.0561132 0.230416 0.821489)
(0.149233 0.0639945 0.902151)
(0.11862 -0.163374 0.990364)
(-0.00654952 0.0355485 0.627863)
(-0.0575819 0.0619162 0.448089)
(0.0201656 0.0343916 0.669458)
(0.103745 -0.0610843 0.614278)
(0.243259 0.0223161 1.03668)
(-0.0378727 0.0453541 0.674975)
(-0.0782587 -0.183375 0.654403)
(-0.034349 -0.253035 0.492604)
(-0.0422383 0.166383 -0.0867971)
(-0.224537 0.00824706 0.824377)
(-0.358077 -0.0524328 0.879107)
(0.103047 -0.118454 0.477099)
(0.219709 0.0158539 0.224488)
(0.147327 -0.00787356 0.454465)
(-0.00811444 0.153468 0.516291)
(-0.107917 0.127749 0.900851)
(-0.107517 0.289788 1.05009)
(0.0900997 0.374471 0.968248)
(0.199137 0.0717927 0.84185)
(0.136828 0.0235423 0.694865)
(-0.0387459 -0.0134833 0.486591)
(-0.00862244 0.278521 0.843111)
(0.169491 0.228628 0.920312)
(0.16765 -0.11868 0.997746)
(0.0555025 -0.0475971 0.791267)
(-0.0665521 0.102099 0.540437)
(0.0513296 0.115369 0.728298)
(0.152148 -0.0255391 0.626002)
(0.334665 0.0114261 1.18962)
(0.018022 -0.0405425 0.790123)
(0.0856803 -0.296691 0.711267)
(0.0461807 -0.0354636 0.682309)
(0.00511995 0.170737 -0.115051)
(-0.298125 -0.076223 0.83255)
(-0.234331 -0.0880126 0.515782)
(-0.0143348 0.0422207 0.258984)
(0.0689577 0.00548037 0.229097)
(0.0428212 -0.0481522 0.588309)
(-0.0126239 0.193246 0.672413)
(-0.119596 0.176326 0.887584)
(-0.116853 0.279209 0.878625)
(0.0872585 0.37125 0.748404)
(0.221599 0.0915183 0.890071)
(0.145142 -0.0680734 0.837041)
(-0.0703056 0.00722435 0.596315)
(-0.0164437 0.268454 0.845629)
(0.153075 0.267631 0.962657)
(0.196497 -0.0180549 1.03768)
(0.0827135 -0.0894677 0.989422)
(-0.0673693 0.113026 0.672411)
(0.0560527 0.163392 0.846331)
(0.183312 -0.00517801 0.783142)
(0.304235 0.0150562 1.1955)
(0.067108 -0.122371 0.939659)
(0.247319 -0.239887 0.734973)
(-0.0733463 0.223528 0.73132)
(0.0161043 0.137052 -0.0663912)
(-0.214283 -0.107808 0.806588)
(-0.202229 -0.000472856 0.403302)
(-0.0691912 0.167583 0.174496)
(-0.0227263 -0.00620531 0.226496)
(-0.0745412 -0.095461 0.644908)
(-0.00762765 0.102103 0.816901)
(-0.0798198 0.131892 0.876166)
(-0.0877265 0.185229 0.736656)
(0.0818147 0.282033 0.61096)
(0.192991 0.0960076 0.916295)
(0.125302 -0.104287 0.930591)
(-0.0860072 0.00311719 0.725711)
(-0.0111504 0.214586 0.858716)
(0.106767 0.259922 0.97887)
(0.179444 0.0186563 1.0857)
(0.0909183 -0.102658 1.14809)
(-0.0701128 0.0858905 0.799809)
(0.0509744 0.172771 0.964992)
(0.18966 -0.0141388 0.957242)
(0.131763 0.0627199 1.04997)
(0.129469 -0.15911 0.990461)
(0.358718 -0.0981881 0.757309)
(-0.172969 0.425169 0.643393)
(-0.0439347 0.056957 0.0204289)
(-0.0816759 -0.130077 0.755398)
(-0.196154 0.0933415 0.391441)
(-0.078399 0.185379 0.163693)
(-0.0587416 -0.0208446 0.233647)
(-0.170494 -0.112766 0.601272)
(-0.0112097 -0.0207355 0.878431)
(-0.0469959 0.0329125 0.876365)
(-0.0562198 0.1275 0.642089)
(0.0753379 0.18306 0.538089)
(0.0984297 0.0732344 0.954067)
(0.0738273 -0.0908492 0.981235)
(-0.0926881 -0.0207013 0.82612)
(0.020675 0.15217 0.851964)
(0.0794005 0.222603 0.97057)
(0.150741 0.0245486 1.12085)
(0.0936118 -0.109341 1.28634)
(-0.0789878 0.0417579 0.897503)
(0.0320047 0.147042 1.06187)
(0.179984 -0.0136227 1.08012)
(-0.253638 -0.0715781 0.633098)
(0.154626 -0.163188 0.967075)
(0.341598 0.0505002 0.811105)
(-0.0476898 0.404316 0.439377)
(-0.0970667 -0.0328095 0.0720229)
(-0.0158261 -0.131432 0.727605)
(-0.193166 0.16836 0.428001)
(-0.0709599 0.114138 0.180268)
(-0.061436 -0.0465271 0.240708)
(-0.135541 -0.0903914 0.491921)
(-0.0180117 -0.0804922 0.921528)
(-0.0432829 0.0193422 0.871033)
(-0.0464257 0.109146 0.599032)
(0.0544596 0.0690916 0.51837)
(0.00729183 -0.0142452 0.974927)
(0.0454184 -0.0583572 1.00154)
(-0.0972512 -0.0390483 0.8914)
(0.0478698 0.0890783 0.844675)
(0.0732439 0.125786 0.966526)
(0.130335 0.0331634 1.14349)
(0.0785361 -0.116139 1.38355)
(-0.0849267 -0.00950327 0.954575)
(0.00688306 0.114414 1.12818)
(0.158621 -0.0176265 1.17194)
(0.0439541 -0.0663561 0.570083)
(0.187373 -0.188071 0.940729)
(0.292836 0.0827965 0.9077)
(0.00903744 0.217997 0.260047)
(-0.136452 -0.0960441 0.0879231)
(0.0102493 -0.121413 0.729412)
(-0.197642 0.188558 0.476675)
(-0.0524213 0.0121511 0.209011)
(-0.0568746 -0.0876179 0.240472)
(-0.0548062 -0.0883772 0.374033)
(-0.0180406 -0.104873 0.96139)
(-0.0293947 0.0231236 0.870702)
(-0.044663 0.0930378 0.598147)
(0.00834489 -0.0462457 0.519583)
(0.0195455 -0.115767 0.967928)
(0.0248596 -0.0629936 1.06166)
(-0.0967697 -0.0523618 0.929436)
(0.0339252 0.0125351 0.847181)
(0.0447739 -0.0550992 0.935194)
(0.101531 0.02551 1.15027)
(0.0479153 -0.113649 1.42488)
(-0.0939508 -0.030562 0.960465)
(0.0376713 0.0362203 1.13661)
(0.128329 -0.0329123 1.16856)
(0.137109 -0.00780935 0.436501)
(0.19114 -0.219656 0.904216)
(0.109547 0.0843918 1.02157)
(-0.0133821 0.172147 0.186339)
(-0.166192 -0.131335 0.105002)
(0.00758121 -0.115726 0.756301)
(-0.177657 0.121057 0.535829)
(-0.0373294 -0.0702716 0.246751)
(-0.0599996 -0.125751 0.236511)
(-0.0236991 -0.13619 0.288927)
(-0.0149321 -0.124018 0.976243)
(0.0265708 -0.0188156 0.902729)
(-0.0378798 0.0211627 0.645601)
(-0.0530631 -0.129486 0.52288)
(0.0496096 -0.195112 0.930986)
(0.0222129 -0.0815611 1.10501)
(-0.0964258 -0.0766449 0.945062)
(-0.0148775 -0.0684871 0.847258)
(-0.0269871 -0.160051 0.84957)
(0.089093 0.0140448 1.13692)
(0.0102904 -0.0515438 1.4108)
(-0.120354 -0.0322463 0.939285)
(0.000993098 -0.035164 1.05246)
(0.104652 -0.00626937 1.17404)
(0.0107891 0.0258499 0.312183)
(0.17902 -0.227918 0.902857)
(0.00858748 0.155981 1.1838)
(-0.098827 0.12851 0.172547)
(-0.18268 -0.149776 0.132671)
(-0.0315562 -0.0936337 0.807941)
(-0.0936648 -0.0590957 0.657264)
(-0.0236999 -0.114515 0.297645)
(-0.0676956 -0.147546 0.240861)
(-0.033354 -0.200417 0.228498)
(-0.00860769 -0.147138 0.961432)
(0.0560028 -0.0676365 0.924394)
(-0.0554409 -0.0837572 0.712109)
(-0.111797 -0.163912 0.519834)
(0.0166351 -0.228785 0.854631)
(0.0352468 -0.0824971 1.10293)
(-0.10992 -0.114994 0.950922)
(-0.0669989 -0.124524 0.821169)
(-0.11241 -0.167245 0.736266)
(0.104059 0.00939107 1.08868)
(0.000124296 0.00674037 1.38529)
(-0.150396 -0.0289202 0.921915)
(-0.093673 -0.103266 0.844527)
(0.131385 -0.0353175 1.19686)
(-0.0103091 0.000190781 0.272253)
(0.156967 -0.199815 0.875348)
(-0.0943641 0.237384 1.35536)
(-0.135311 0.0627954 0.21567)
(-0.181922 -0.157089 0.160555)
(-0.0476009 -0.0905604 0.857094)
(-0.0282532 -0.140364 0.742777)
(-0.00211397 -0.119714 0.360456)
(-0.0650519 -0.151253 0.261321)
(-0.0584998 -0.240945 0.185742)
(-0.00538531 -0.122172 0.941114)
(0.0699294 -0.083313 0.939422)
(-0.0725544 -0.128202 0.770007)
(-0.148608 -0.163898 0.516885)
(-0.0786833 -0.223329 0.749014)
(0.0561572 -0.0303712 1.04874)
(-0.125006 -0.139464 0.963978)
(-0.112621 -0.139291 0.786009)
(-0.165485 -0.120205 0.636331)
(0.118155 -0.164182 1.05314)
(-0.0218061 0.0453231 1.36265)
(-0.124704 -0.0433147 0.861538)
(-0.0813712 -0.0871912 0.702675)
(0.0517038 -0.0594967 1.02828)
(0.022773 -0.0384214 0.32266)
(0.0509067 -0.119835 0.880867)
(-0.161337 0.239752 1.37738)
(-0.107883 0.00562336 0.318657)
(-0.176243 -0.158856 0.183285)
(-0.0845124 -0.0748382 0.8866)
(0.0104863 -0.162214 0.810459)
(0.0256146 -0.0945885 0.425748)
(-0.0399666 -0.131406 0.310069)
(-0.070099 -0.249298 0.172936)
(-0.00739475 -0.0564496 0.930057)
(0.0882026 -0.0781967 0.962528)
(-0.053834 -0.133635 0.842244)
(-0.154249 -0.15939 0.522247)
(-0.164018 -0.207767 0.629008)
(0.00172989 -0.06266 0.951272)
(-0.126361 -0.142911 0.996706)
(-0.134719 -0.129145 0.765636)
(-0.187014 -0.0626196 0.569666)
(-0.00136142 -0.180413 1.05074)
(-0.0079116 0.0782002 1.3487)
(-0.138387 -0.0922948 0.734241)
(-0.0890624 -0.0394695 0.583786)
(-0.0341357 -0.0684241 0.5307)
(0.0852606 -0.0436344 0.433899)
(-0.0107661 -0.0596164 0.951423)
(-0.158376 0.110147 1.32688)
(-0.050186 -0.0204801 0.441136)
(-0.170717 -0.151865 0.20299)
(-0.0554947 0.0506651 0.898612)
(0.0156465 -0.176056 0.863969)
(0.0584856 -0.0496576 0.487831)
(0.00694031 -0.0950587 0.374687)
(-0.0583365 -0.2389 0.194442)
(-0.00712619 0.018929 0.93341)
(0.0979265 -0.0408552 0.976433)
(-0.0126548 -0.142321 0.914093)
(-0.131854 -0.152069 0.548462)
(-0.190976 -0.193253 0.527182)
(-0.0756127 -0.254492 0.692426)
(-0.127911 -0.141206 1.03387)
(-0.124219 -0.124184 0.760127)
(-0.183413 -0.0312101 0.531571)
(-0.204051 -0.064674 0.840693)
(-0.0292126 0.0504904 1.39067)
(-0.154788 -0.0592926 0.654991)
(-0.104511 0.00329492 0.482975)
(-0.0880373 0.00624426 0.368881)
(0.153879 -0.0362034 0.574416)
(0.0138974 -0.119169 1.03728)
(0.00343942 -0.0680765 1.30755)
(0.0317895 -0.0147731 0.544915)
(-0.164981 -0.139693 0.222722)
(0.0280752 0.183723 0.832977)
(-0.0126637 -0.211525 0.891741)
(0.0928755 0.00186221 0.540694)
(0.0638982 -0.0601929 0.436804)
(-0.030309 -0.20878 0.242352)
(-0.00668229 0.0909666 0.993681)
(0.0740416 0.0134111 1.02473)
(0.00394833 -0.166122 0.956025)
(-0.0602006 -0.104753 0.610023)
(-0.144328 -0.144777 0.482585)
(-0.0437787 -0.270665 0.48825)
(-0.084433 -0.119186 1.07984)
(-0.0948101 -0.123734 0.733947)
(-0.118146 -0.0236178 0.520989)
(-0.303073 -0.0267395 0.568902)
(0.0200595 -0.084662 1.25936)
(-0.00863101 -0.0542232 0.628709)
(-0.0861847 0.0261144 0.430142)
(-0.113362 0.0608224 0.365593)
(0.194942 -0.0349656 0.725762)
(-0.0296556 -0.0947008 1.06988)
(0.141112 -0.133218 1.24998)
(0.0869043 0.0377017 0.600263)
(-0.159801 -0.128817 0.248826)
(0.00788112 0.159911 0.787743)
(-0.0481488 -0.249431 0.8921)
(0.11524 0.0455247 0.577062)
(0.107746 -0.0331063 0.481929)
(-0.00896483 -0.178519 0.291182)
(-0.00796705 0.085408 1.06788)
(0.0482011 0.0132174 1.10802)
(-0.0104675 -0.184784 0.960252)
(0.00831773 -0.0268426 0.650268)
(-0.0169408 -0.0512844 0.481396)
(0.0150272 -0.146864 0.435729)
(-0.0728822 -0.133496 1.08819)
(-0.11375 -0.0980018 0.687863)
(-0.0323969 -0.0155272 0.505105)
(-0.141455 0.00396814 0.518753)
(0.0117466 -0.103711 0.693102)
(0.0210089 -0.0536246 0.588381)
(-0.0562522 0.0289397 0.432059)
(-0.095329 0.0559192 0.379869)
(0.218693 -0.0243447 0.834868)
(-0.0228077 0.062422 0.938178)
(0.24914 -0.187732 1.1248)
(0.0694726 0.164153 0.585836)
(-0.15938 -0.125599 0.281007)
(-0.046949 0.0337361 0.834523)
(-0.0683893 -0.256281 0.865378)
(0.134454 0.0737674 0.607491)
(0.127613 -0.029559 0.506807)
(0.00167155 -0.164854 0.335772)
(-0.0110373 0.0617873 1.09691)
(0.0439632 -0.0725481 1.18604)
(-0.0622294 -0.186471 0.929142)
(0.0596944 0.0404619 0.649468)
(0.067271 -0.0175091 0.47568)
(0.0449034 -0.0888114 0.423098)
(-0.0735078 -0.136611 1.09089)
(-0.103375 -0.040797 0.615996)
(0.0100264 -0.00578471 0.479675)
(-0.0122146 0.0209292 0.489501)
(0.0238067 -0.0303349 0.501583)
(-0.0840681 -0.0359294 0.455717)
(-0.0210463 0.0300377 0.453006)
(-0.0664258 0.0444532 0.383285)
(0.218273 -0.00258934 0.815348)
(0.00944383 -0.0215147 0.797564)
(0.290247 -0.166186 1.1019)
(0.0295659 0.291903 0.542649)
(-0.1576 -0.134257 0.320232)
(-0.0573089 -0.0832147 0.894019)
(-0.0635303 -0.207846 0.838804)
(0.167097 0.0732161 0.638572)
(0.126042 -0.0463202 0.522494)
(0.0100403 -0.163466 0.390818)
(-0.00532379 0.0475984 1.08025)
(0.0526789 -0.109202 1.2107)
(-0.114358 -0.0975186 0.858478)
(0.108994 0.0592765 0.617721)
(0.0878392 -0.0243469 0.465286)
(0.0642942 -0.0860871 0.437168)
(-0.04418 -0.111276 1.11036)
(-0.00792364 -0.00387078 0.552603)
(0.035614 -0.000927464 0.46266)
(0.0352457 0.0282682 0.459921)
(0.0256425 -0.0289541 0.467694)
(-0.0323446 0.00719915 0.371592)
(0.00952614 0.0315872 0.464065)
(-0.0346005 0.0353371 0.414026)
(0.19851 0.0364681 0.627677)
(0.0230264 -0.101758 0.829893)
(0.233802 -0.159289 1.17425)
(0.0598605 0.291494 0.506967)
(-0.141356 -0.157689 0.370217)
(-0.0688587 -0.157311 0.869773)
(-0.00836076 -0.0109508 0.825137)
(0.195013 0.0466365 0.678428)
(0.0975307 -0.0888909 0.54157)
(0.00837265 -0.143458 0.458553)
(0.0132944 0.065349 0.990225)
(0.0758246 -0.0937274 1.21022)
(-0.057672 0.0162472 0.798845)
(0.141796 0.0191685 0.58471)
(0.0707952 -0.0480223 0.457964)
(0.0678542 -0.0871941 0.463465)
(-0.00565669 -0.00542014 1.14368)
(0.102345 0.00192029 0.49797)
(0.0606881 -0.00412084 0.462994)
(0.0331809 0.0181575 0.448957)
(0.0267237 -0.0422239 0.433615)
(0.0869594 0.0316234 0.342508)
(0.0231787 0.043577 0.494816)
(-0.00148451 0.0195981 0.459221)
(0.0211756 0.0242365 0.517438)
(0.00129775 -0.101539 0.933093)
(-0.201851 0.106603 1.36148)
(0.0743648 0.157099 0.459117)
(-0.112484 -0.166408 0.432192)
(-0.116152 -0.0887393 0.796967)
(0.0514062 0.105366 0.830467)
(0.19033 -0.00661392 0.720292)
(0.0699905 -0.11938 0.561446)
(0.0165453 -0.123114 0.516838)
(0.0211445 0.165148 0.941276)
(0.0613079 -0.0631885 1.17456)
(0.0458878 0.00407838 0.757897)
(0.136545 -0.0435258 0.580883)
(0.0348392 -0.0678645 0.465605)
(0.0378378 -0.0953813 0.480937)
(0.0994837 0.0646496 1.17719)
(0.153137 -0.0276744 0.472204)
(0.0700441 -0.0169785 0.478516)
(0.0108402 -0.0335611 0.465314)
(0.00479725 0.00771708 0.376207)
(0.141338 0.00532753 0.344476)
(0.0282158 0.035757 0.538326)
(0.030125 -0.0103076 0.479136)
(-0.132973 -0.023211 0.497594)
(-0.187367 0.054635 1.13455)
(-0.368956 0.34694 1.26585)
(0.0250302 0.00836273 0.502489)
(-0.0796417 -0.151823 0.500265)
(-0.165312 0.131541 0.78722)
(0.0855978 0.126062 0.845378)
(0.169389 -0.0773076 0.73311)
(0.0651819 -0.113756 0.581251)
(0.0171489 -0.108466 0.58666)
(0.0175957 0.22328 0.973825)
(-0.0387856 0.0229021 1.17246)
(0.0962368 -0.0866333 0.736716)
(0.099767 -0.0709376 0.595049)
(0.00629471 -0.0605711 0.473993)
(0.0252458 -0.111016 0.448295)
(0.132645 0.083517 1.19536)
(0.137801 -0.0571041 0.478221)
(0.0470742 -0.0421736 0.500287)
(0.0144874 -0.0624201 0.48913)
(0.0102549 -0.00496587 0.34305)
(0.0506299 -0.0621041 0.393318)
(0.0204692 -0.0128323 0.522614)
(0.0308888 -0.0183351 0.469467)
(-0.147247 -0.0387137 0.517095)
(-0.224036 0.289895 1.13774)
(0.0415725 0.333711 0.955693)
(0.0118365 -0.0962092 0.564586)
(-0.043207 -0.12754 0.573717)
(-0.168684 0.270851 0.853935)
(0.0903745 0.0975906 0.854528)
(0.1347 -0.120682 0.719036)
(0.0433729 -0.07813 0.596767)
(0.0309981 -0.0833553 0.658433)
(0.00912617 0.224504 1.06343)
(-0.0714652 0.0478803 1.20791)
(0.0830743 -0.147559 0.765432)
(0.0421908 -0.0526982 0.613507)
(-0.0364392 -0.0418052 0.46956)
(0.0147059 -0.0335825 0.422623)
(0.0945056 0.059521 1.18909)
(0.0537827 -0.0859893 0.495915)
(0.00554674 -0.0750359 0.49833)
(0.0131953 -0.0674932 0.492237)
(0.0156274 -0.0154948 0.31117)
(-0.0474864 -0.0890053 0.415077)
(-0.0525724 -0.0125152 0.462424)
(-0.0169207 0.0122197 0.433375)
(-0.124484 -0.0496402 0.594991)
(-0.155452 0.19751 0.907528)
(0.126883 0.222079 0.749421)
(-0.00370199 -0.144731 0.603233)
(-0.0181292 -0.0845454 0.639157)
(-0.140672 0.181533 0.965709)
(0.0370872 0.0107659 0.879148)
(0.0729523 -0.114623 0.694947)
(-0.0694767 -0.0183349 0.592799)
(0.0286026 -0.0366225 0.68989)
(0.00240602 0.164484 1.15336)
(-0.0833724 0.0108602 1.21745)
(0.0232616 -0.143431 0.804704)
(-0.0144615 -0.0237225 0.637386)
(-0.0813521 -0.0290379 0.478813)
(-0.0542411 0.0646561 0.401349)
(0.0327125 -0.0321473 1.24095)
(0.00157177 -0.0871815 0.496247)
(-0.00215241 -0.092551 0.482996)
(-0.00255055 -0.056894 0.470874)
(0.00935612 -0.0154386 0.280748)