/*--------------------------------*- C++ -*----------------------------------*\
| =========                 |                                                 |
| \\      /  F ield         | OpenFOAM: The Open Source CFD Toolbox           |
|  \\    /   O peration     | Version:  5.x                                   |
|   \\  /    A nd           | Web:      www.OpenFOAM.org                      |
|    \\/     M anipulation  |                                                 |
\*---------------------------------------------------------------------------*/
FoamFile
{
    version     2.0;
    format      ascii;
    class       volVectorField;
    location    "5.05";
    object      U;
}
// * * * * * * * * * * * * * * * * * * * * * * * * * * * * * * * * * * * * * //

dimensions      [0 1 -1 0 0 0 0];

internalField   nonuniform List<vector> 
10571
(
(-0.475474 0.0607754 1.67233)
(0.0103841 0.171733 1.50497)
(-0.53384 0.808194 2.28881)
(-0.965185 0.789065 2.37184)
(-0.360748 0.0330652 1.24936)
(0.387164 0.466347 2.88245)
(-1.08104 3.71698 6.07614)
(-1.21166 1.14269 2.80729)
(-0.868975 0.803593 1.63387)
(-0.164409 0.294342 1.46693)
(0.273585 -0.00401714 0.939104)
(1.33414 0.380439 3.00038)
(0.142559 1.99455 4.62395)
(-1.16598 1.37239 3.21414)
(-1.78269 1.32627 3.4725)
(-0.528809 0.667563 1.76296)
(0.712011 0.222544 3.05751)
(-0.432091 -0.633068 2.72815)
(-1.05262 0.0635442 3.61803)
(-0.761072 0.627131 2.77761)
(-0.446089 0.450653 1.41917)
(-0.144456 -0.331633 1.85452)
(0.506773 -0.156337 1.71379)
(-0.6204 0.227795 1.2107)
(-0.141368 0.177608 1.027)
(0.270859 -0.175784 1.01667)
(-0.0148772 -0.342314 2.20956)
(-0.433341 0.622896 2.04181)
(-0.449358 0.118657 1.08518)
(0.359113 -0.355303 2.02642)
(0.335313 -0.500111 3.94002)
(0.832471 -1.01653 5.47124)
(-0.564001 0.388886 1.24289)
(-0.51718 0.168435 1.36131)
(0.0624902 0.157962 0.773083)
(0.173937 0.202374 2.21407)
(0.389129 0.33815 5.42971)
(1.26367 0.250373 5.01646)
(-0.355784 0.610421 4.56375)
(-0.511647 0.535399 0.952586)
(0.431179 0.256673 4.04507)
(0.679382 0.663912 2.4103)
(1.16658 0.928441 4.71235)
(-0.193491 0.108902 2.94674)
(-0.319725 0.686691 1.62743)
(0.29461 0.0175272 1.0702)
(1.79808 -0.278139 4.53867)
(0.424006 -0.270571 1.22617)
(0.1659 0.0625472 -0.134415)
(-0.0847064 0.215381 0.293255)
(0.623624 0.184007 2.61491)
(-0.025375 -0.473127 3.15456)
(0.118721 -0.0700292 0.455441)
(-0.376225 -0.291198 1.45922)
(0.294393 -0.381028 2.8537)
(0.3657 -0.362784 2.27086)
(-0.461101 -0.276852 2.01842)
(-0.168957 -0.047751 0.541153)
(0.0948934 0.0311956 0.243041)
(-0.72714 -0.431341 2.3778)
(0.206704 0.301474 2.68986)
(0.227102 0.256361 2.06083)
(-0.185836 0.111842 2.73464)
(-0.140265 0.149587 0.205729)
(-0.371346 0.119338 1.91967)
(0.623196 0.541541 2.25615)
(0.310164 0.527125 3.6836)
(-0.175621 -0.0865176 3.60138)
(-0.0606518 0.334278 0.87952)
(0.291118 -0.0252867 0.965567)
(0.00979535 0.110337 3.36874)
(0.27738 0.0231647 0.747067)
(0.245208 -0.0461092 -0.00488026)
(-0.113851 0.0316915 -0.306654)
(0.714058 0.767272 3.23206)
(0.265561 -0.573056 3.39008)
(1.01857 -0.244209 1.14332)
(0.821385 0.775256 2.32248)
(-0.0225282 0.216517 3.09222)
(-0.207251 0.105293 2.5835)
(0.174985 -0.426045 0.885805)
(0.190909 -0.114329 0.193119)
(0.0256748 0.161235 -0.0098174)
(0.32162 0.300777 2.54257)
(0.0723528 0.292237 4.34707)
(-0.815758 0.357971 4.0606)
(-0.513414 -0.0194485 2.48805)
(0.150903 -0.258291 0.144547)
(0.695374 -0.290983 2.94533)
(0.190235 0.0979781 3.6409)
(-0.558303 -0.179096 4.31448)
(-0.663353 0.0869451 4.43729)
(-0.17206 0.23574 0.732694)
(0.104431 -0.103521 1.07001)
(-0.820082 0.116555 3.79646)
(0.143592 0.0791723 0.990301)
(0.362335 -0.140882 0.903058)
(0.144205 -0.254998 -0.064717)
(0.228241 0.555472 3.23826)
(0.357851 -0.447768 2.55164)
(0.530497 -0.0402108 1.69382)
(0.55617 0.816405 2.07991)
(-0.0893673 0.349687 2.64894)
(-0.0963252 -0.168366 1.81065)
(0.256835 -0.148399 0.347834)
(0.700006 -0.00627367 0.980159)
(-0.00321092 0.0750508 -0.335567)
(0.660128 0.204157 1.93105)
(-0.107955 0.205868 3.59767)
(-0.948287 0.289705 3.05057)
(0.121165 -0.0869177 1.09609)
(0.147123 -0.160169 -0.0375537)
(0.308458 -0.0797388 1.57403)
(0.046728 0.069271 2.85886)
(-0.621497 -0.155114 4.1955)
(-0.751719 0.102562 4.35303)
(0.0200739 0.0216603 -0.192348)
(-1.3511 -0.378418 1.33911)
(-1.09639 0.123378 2.58883)
(0.18368 -0.105719 0.279161)
(0.350825 -0.0614426 1.81336)
(0.199579 -0.161894 0.292066)
(-0.0408262 -0.175397 1.97843)
(0.400733 -0.362439 2.26057)
(0.405301 0.0948113 1.89873)
(-0.227241 0.4247 2.05335)
(-0.0284175 -0.0149941 2.28573)
(0.327169 -0.486333 1.34582)
(0.31769 0.0548483 0.544837)
(0.516446 0.120389 1.31892)
(-0.00582379 0.00376604 -0.00145247)
(0.0276159 0.0265941 -0.297123)
(0.212411 -0.0719998 2.34553)
(-0.358083 0.0558827 3.37742)
(-0.38995 0.105977 2.40011)
(0.456079 -0.2971 1.36822)
(-0.0130461 0.0304716 0.246325)
(-0.00143271 -0.000918663 -0.00241471)
(-0.244477 -0.333373 1.83888)
(0.0109634 0.117094 3.00044)
(-0.526705 -0.100893 4.16475)
(-0.412816 0.0512289 3.78905)
(0.355415 -0.437577 0.573363)
(-1.04525 -0.16826 1.58158)
(-0.601306 0.0802877 2.07679)
(0.218502 -0.124424 0.011494)
(0.190858 -0.0729869 2.00753)
(0.0784399 -0.222638 0.310677)
(-0.146579 -0.412146 2.19308)
(0.361051 -0.329564 1.8544)
(0.327435 0.143625 2.04398)
(-0.556395 0.100891 1.90839)
(0.0327504 -0.231044 2.48225)
(0.458503 -0.592081 1.34772)
(0.347124 -0.0128642 0.69846)
(0.539688 0.0358906 1.31573)
(-0.0371405 0.00606521 0.118419)
(0.0378341 -0.00811158 -0.224806)
(-0.26604 -0.439396 2.62186)
(-0.421447 -0.133201 3.51408)
(0.149406 -0.362832 2.47409)
(0.715885 -0.691702 1.22683)
(0.364887 -0.258926 0.534722)
(-0.119137 0.131062 0.0265293)
(-0.269443 -0.545211 0.993522)
(0.0168603 -0.0820678 3.31965)
(-0.418209 -0.181697 4.06688)
(0.0128041 -0.023993 3.13276)
(0.357372 -0.272443 0.311134)
(0.00890257 0.0198421 0.133161)
(-0.57834 -0.0414494 1.63663)
(-0.120725 -0.0260697 1.41424)
(0.440765 -0.234676 0.0442283)
(0.253135 -0.0174983 2.2406)
(0.0883812 -0.12195 0.811203)
(-0.249839 -0.581269 2.21482)
(0.368848 -0.200336 1.92419)
(0.265194 0.103831 2.06041)
(-0.310219 -0.315068 1.78262)
(0.0622023 -0.445007 1.97288)
(0.363929 -0.571204 1.17017)
(0.36717 -0.238495 1.00973)
(0.267917 -0.0573423 1.19592)
(0.19851 0.162612 0.3052)
(0.0187458 -0.115484 0.0657463)
(-0.617661 -0.586612 3.04475)
(-0.367279 -0.471704 3.33876)
(0.418458 -0.589136 1.76278)
(0.752033 -0.675323 1.26801)
(0.112342 -0.285401 0.941873)
(-0.230401 0.261567 0.13131)
(-0.319525 -0.505798 0.636134)
(-0.0725608 -0.155958 3.31288)
(-0.0218642 -0.180558 3.97107)
(0.436805 -0.082604 2.21006)
(0.376416 -0.179601 0.432665)
(0.224393 -0.0557107 0.394987)
(0.0297574 -0.130287 0.615661)
(0.538184 0.151894 1.07722)
(0.564329 -0.161885 0.267214)
(0.284129 -0.0109846 2.25661)
(0.0971477 -0.127267 1.08847)
(-0.132155 -0.335428 2.30156)
(0.207204 -0.0398346 1.92393)
(0.191959 0.0528657 2.11583)
(-0.295742 -0.468353 1.82321)
(0.181665 -0.462215 1.99042)
(0.23151 -0.486908 1.32285)
(0.136898 -0.235592 1.29696)
(-0.00427213 -0.0626684 1.62)
(-0.0698899 0.318215 0.277237)
(-0.0222652 -0.100917 0.270982)
(-0.687192 -0.539468 3.29512)
(-0.0499736 -0.350098 2.12197)
(0.276851 -0.415163 1.14654)
(0.618164 -0.576362 1.45852)
(-0.352479 -0.0499922 1.35203)
(-0.329202 0.113404 0.212486)
(-0.51021 -0.527805 0.968419)
(-0.0864815 -0.140125 2.80828)
(0.185087 -0.125338 2.42774)
(0.72028 -0.295412 2.04619)
(0.126019 -0.191988 0.918625)
(0.229536 -0.00989295 0.384078)
(0.29338 0.205319 1.34476)
(0.342962 -0.0727538 0.624416)
(0.290254 -0.013395 2.19674)
(0.154652 -0.220628 1.42224)
(-0.050279 -0.199525 2.30609)
(0.156696 0.0828975 1.99341)
(0.136032 0.0309944 2.15542)
(-0.169421 -0.600285 2.15146)
(0.206365 -0.286112 2.0601)
(0.0153915 -0.1225 1.44098)
(0.0233889 -0.127534 1.63461)
(-0.359578 -0.0474524 1.97177)
(-0.11331 -0.123473 0.614188)
(-0.646482 -0.573693 3.50232)
(0.234269 -0.349946 2.40848)
(-0.0353606 -0.216542 1.43672)
(0.242278 -0.395127 1.8068)
(-0.642146 -0.0365575 1.77057)
(-0.191129 -0.135149 1.13947)
(-0.0214146 -0.155378 2.43656)
(0.15869 -0.151974 2.40107)
(0.805015 -0.38146 2.29686)
(0.113908 -0.156439 1.31725)
(0.0201201 0.0665692 0.370956)
(0.0893912 0.104353 1.12167)
(0.170952 -0.0391867 0.520303)
(0.25697 -0.0117931 2.07172)
(0.206439 -0.269416 1.67973)
(0.0500862 -0.144138 2.3066)
(0.125823 0.184161 2.03018)
(0.103956 0.0371914 2.17226)
(-0.0953027 -0.442931 2.32794)
(0.153457 -0.112449 1.98408)
(-0.0718953 0.0375674 1.48144)
(0.034509 -0.0263497 1.8287)
(-0.24973 0.000376378 1.96619)
(-0.20342 -0.183157 1.38168)
(-0.572326 -0.516217 3.05004)
(0.328397 -0.265352 2.21097)
(-0.161039 0.00377333 1.2018)
(0.243321 -0.240566 1.97574)
(-0.265175 -0.122758 1.88182)
(0.149647 0.203043 1.14408)
(0.135991 -0.159881 2.43866)
(0.0973283 -0.102134 2.32595)
(0.544698 -0.234577 2.2511)
(0.0882442 -0.227814 1.5353)
(0.184179 0.0397988 0.426389)
(-0.0639102 0.0257408 1.09349)
(0.0543875 0.016682 0.335058)
(0.249407 -0.00800058 1.99798)
(0.230621 -0.273019 1.80622)
(0.144561 -0.0977464 2.26591)
(0.11028 0.221888 2.03665)
(0.0938344 0.0639385 2.16015)
(-0.111656 -0.359755 2.47281)
(0.123677 -0.0101383 1.9685)
(-0.0741735 0.149754 1.53384)
(0.000278867 0.0676236 1.90706)
(-0.194847 0.00440758 1.85939)
(-0.00544834 -0.0333295 1.74618)
(-0.308244 -0.451158 2.95058)
(0.179056 -0.153267 2.04734)
(-0.199817 0.146473 1.2203)
(0.247051 -0.122538 2.0632)
(-0.190324 -0.105048 1.89331)
(-0.176349 0.113774 0.860089)
(0.146619 -0.126887 2.2741)
(0.0898387 -0.0325466 2.09176)
(0.385317 -0.0875096 2.18961)
(0.0641026 -0.155269 1.68987)
(0.116314 -0.125243 0.335265)
(-0.0168222 0.00672084 0.931747)
(-0.0676116 0.0939125 0.16642)
(0.266969 0.00289959 1.95965)
(0.213823 -0.232799 1.84489)
(0.191723 -0.0276985 2.17979)
(0.11923 0.221527 2.03598)
(0.0891636 0.09541 2.12739)
(-0.124944 -0.328315 2.59443)
(0.107539 0.0458769 2.00923)
(-0.0789818 0.241636 1.59829)
(-0.0434356 0.122669 1.92312)
(-0.174994 0.00940625 1.84879)
(0.0279573 0.106422 1.65699)
(-0.252144 -0.360497 2.76573)
(0.145834 -0.0911557 2.03733)
(-0.18257 0.205955 1.30751)
(0.214915 -0.0758307 2.0932)
(-0.0880189 -0.106346 1.96669)
(-0.0215219 0.0330003 0.585686)
(0.139995 -0.0612786 2.17284)
(0.101563 0.0350773 1.99527)
(0.339679 0.00695319 2.10658)
(0.046916 -0.121058 1.78796)
(-0.289242 -0.136757 0.464602)
(-0.0787835 0.193779 0.987404)
(-0.156568 0.162183 0.235403)
(0.291888 0.00908169 1.94025)
(0.189012 -0.199535 1.82829)
(0.233041 -0.0286279 2.07108)
(0.144751 0.204978 2.0306)
(0.101381 0.124086 2.08873)
(-0.12105 -0.294626 2.66753)
(0.130363 0.0849599 2.07816)
(-0.0683125 0.313607 1.66035)
(-0.0857004 0.151238 1.93332)
(-0.173224 0.0213695 1.83624)
(0.0364321 0.190438 1.54436)
(-0.230545 -0.32305 2.76046)
(0.142359 -0.0471841 2.05948)
(-0.138797 0.271711 1.38198)
(0.181166 -0.0241956 2.05989)
(0.000829927 -0.101639 2.04302)
(-0.0156001 0.152738 0.517017)
(0.102154 -0.0393348 2.15607)
(0.0684465 0.0815363 1.92599)
(0.306966 0.0685294 2.05175)
(0.0377058 -0.0874794 1.84926)
(-0.307564 -0.0198174 0.396001)
(-0.151902 0.306291 1.10525)
(-0.158842 0.172836 0.387343)
(0.345453 0.0103994 1.94993)
(0.1614 -0.121044 1.80077)
(0.265538 0.00532588 1.84439)
(0.209698 0.16843 2.00766)
(0.117899 0.144337 2.06084)
(-0.11018 -0.221008 2.71578)
(0.166035 0.199103 2.1073)
(-0.0264578 0.397721 1.71792)
(-0.128354 0.18028 1.94826)
(-0.192351 0.0418804 1.83589)
(0.0148842 0.289584 1.47358)
(-0.18637 -0.255588 2.77132)
(0.141452 0.0569377 2.06448)
(-0.102052 0.343465 1.4544)
(0.168262 0.0586826 2.03116)
(0.0336072 -0.114699 2.11492)
(0.0267018 0.14873 0.632988)
(0.0278939 -0.0172865 2.08616)
(-0.000539447 0.14215 1.83409)
(0.260302 0.109574 1.99625)
(0.0321156 -0.0690749 1.90175)
(-0.301151 0.0258229 0.422424)
(-0.195492 0.298213 1.18904)
(-0.154273 0.166532 0.60923)
(0.375537 0.0155432 1.98367)
(0.0585076 0.146396 1.4995)
(0.300101 -0.033002 1.51809)
(0.276212 0.128389 1.98073)
(0.132517 0.162691 2.05195)
(-0.13156 -0.125734 2.73149)
(0.167626 0.33456 2.09808)
(0.0207564 0.455238 1.76073)
(-0.13954 0.210087 1.95861)
(-0.204251 0.0383758 1.8446)
(-0.0109903 0.354307 1.47771)
(-0.166243 -0.17843 2.77256)
(0.138643 0.168451 2.05932)
(-0.0841127 0.370861 1.53881)
(0.144737 0.137335 2.01857)
(0.0500201 -0.108455 2.1705)
(0.0667988 0.212324 0.964435)
(0.0434256 7.23829e-05 2.01665)
(-0.0184112 0.171697 1.78686)
(0.207198 0.139563 1.94915)
(0.0496568 -0.0586116 1.94108)
(-0.296344 0.0609762 0.503594)
(-0.212464 0.261008 1.26446)
(-0.156194 0.156979 0.828476)
(0.42274 0.0123523 2.02592)
(0.0334835 0.034294 1.09907)
(0.218859 -0.04466 1.15572)
(0.286831 0.0399471 1.9235)
(0.126213 0.166457 2.0733)
(-0.115702 -0.0798877 2.77126)
(0.181813 0.37109 2.07701)
(0.0416822 0.439546 1.79636)
(-0.124117 0.220221 1.96457)
(-0.206473 0.00632011 1.88393)
(-0.0218804 0.406224 1.54594)
(-0.141747 -0.105917 2.80521)
(0.10024 0.188656 2.07314)
(-0.0551358 0.359987 1.62989)
(0.111906 0.190242 1.99205)
(0.0668063 -0.110602 2.2043)
(0.108859 0.309569 1.32966)
(0.0398395 -0.0352986 1.91234)
(-0.0119552 0.170882 1.7859)
(0.161971 0.148681 1.91926)
(0.0703164 -0.0583692 1.97211)
(-0.273764 0.105529 0.621292)
(-0.200451 0.220944 1.33905)
(-0.153285 0.146593 1.01659)
(0.372905 0.00697587 2.12072)
(0.111434 -0.138386 0.916172)
(0.208628 -0.0299659 1.04008)
(0.234723 0.0299828 1.90127)
(0.0776386 0.124682 2.09575)
(-0.0274717 -0.0822859 2.74489)
(0.240686 0.348669 2.00362)
(0.0974904 0.388484 1.81686)
(-0.109365 0.207412 1.96214)
(-0.175617 -0.0938368 1.96537)
(-0.0301738 0.475074 1.63539)
(-0.126559 -0.0231225 2.82718)
(0.0680803 0.205137 2.09908)
(0.0194002 0.357551 1.70975)
(0.103223 0.213689 1.96529)
(0.0857645 -0.133698 2.22045)
(0.196075 0.41195 1.624)
(-0.023065 -0.0415847 1.82936)
(0.00839987 0.16824 1.79676)
(0.12691 0.148708 1.91211)
(0.0799557 -0.0578156 2.00289)
(-0.21771 0.135618 0.750035)
(-0.167794 0.188124 1.41181)
(-0.13876 0.13038 1.17471)
(0.232592 0.0291062 2.06924)
(0.117528 -0.123548 0.929962)
(0.0831481 0.13634 1.1336)
(0.0187272 0.106364 1.89555)
(-0.0300022 0.0263626 2.12296)
(-0.0449034 -0.0202573 2.63641)
(0.394779 0.317531 1.75326)
(0.268594 0.351661 1.80865)
(-0.0657594 0.178958 1.96878)
(-0.111006 -0.216784 2.07476)
(-0.0260429 0.525381 1.71132)
(-0.115487 0.0596793 2.84588)
(0.080916 0.240634 2.10158)
(0.131449 0.383595 1.77443)
(0.119074 0.225618 1.95949)
(0.105171 -0.158795 2.21954)
(0.260838 0.445486 1.77539)
(-0.0391878 -0.0165316 1.80985)
(0.058561 0.175842 1.82305)
(0.113975 0.142933 1.92491)
(0.0861507 -0.0597495 2.03511)
(-0.171511 0.142155 0.884219)
(-0.121177 0.161936 1.47938)
(-0.116986 0.113084 1.31204)
(0.134102 0.0257186 1.91174)
(-0.0543212 0.0541405 1.07644)
(-0.127039 0.271439 1.18194)
(-0.068782 0.293759 1.86751)
(-0.0785673 0.0217214 2.05654)
(0.052018 0.177261 2.1103)
(0.422234 0.39277 1.61225)
(0.391095 0.3664 1.83712)
(-0.00842462 0.182927 2.01883)
(-0.0464733 -0.301502 2.19262)
(-0.0262381 0.595795 1.88641)
(-0.0980349 0.175942 2.82752)
(0.156674 0.339681 2.06777)
(0.224314 0.398942 1.84388)
(0.150394 0.23518 1.97904)
(0.131292 -0.168268 2.21872)
(0.318282 0.444224 1.86846)
(-0.0222169 0.0200839 1.83055)
(0.123594 0.173622 1.88189)
(0.118318 0.129961 1.95836)
(0.0919898 -0.0646526 2.077)
(-0.15515 0.110093 1.00708)
(-0.0662451 0.135387 1.55788)
(-0.0887943 0.0943677 1.45072)
(-0.0275213 0.0578529 1.35784)
(-0.137967 0.113573 1.09819)
(-0.172302 0.287911 1.03311)
(-0.0340128 0.373524 1.82598)
(-0.0729914 0.0371914 2.00752)
(0.172084 0.12397 1.5989)
(0.342804 0.44843 1.51896)
(0.411741 0.370817 1.8664)
(0.0329232 0.188432 2.06798)
(-0.0133484 -0.337655 2.29201)
(-0.00990263 0.553525 2.14382)
(-0.109961 0.390938 2.8137)
(0.18762 0.393207 2.07587)
(0.262109 0.385589 1.92071)
(0.171436 0.219761 2.03445)
(0.15443 -0.169606 2.23349)
(0.338033 0.467277 1.97047)
(-0.0265623 0.0358549 1.89092)
(0.157992 0.135865 1.96797)
(0.130152 0.109245 2.02158)
(0.0992948 -0.0658804 2.14172)
(-0.0808941 0.0590655 1.17128)
(-0.0216743 0.104239 1.65359)
(-0.0541685 0.0716667 1.5938)
(-0.0530765 0.0659184 0.918972)
(-0.101395 0.0579879 1.0897)
(-0.119892 0.254045 0.828054)
(-0.0911726 0.326472 1.71714)
(-0.0950469 0.0407602 1.98175)
(0.177248 0.18191 1.37323)
(0.300136 0.374156 1.4507)
(0.402999 0.358833 1.87218)
(0.0666407 0.158086 2.11281)
(-0.0223025 -0.356524 2.37838)
(0.0160994 0.473026 2.32419)
(-0.0710514 0.470787 2.76628)
(0.197604 0.395115 2.12542)
(0.271969 0.348194 1.99932)
(0.194766 0.182452 2.09177)
(0.166434 -0.179106 2.26017)
(0.337787 0.499312 2.11485)
(-0.0223838 -0.00520594 2.00774)
(0.168223 0.0706115 2.04842)
(0.14405 0.0739033 2.10097)
(0.106874 -0.0715658 2.22524)
(0.100226 0.0488669 1.39538)
(0.0332907 0.0622225 1.73261)
(-0.0247799 0.0517045 1.71947)
(-0.174001 0.0111127 0.737495)
(0.040571 -0.0754958 1.09523)
(-0.139344 0.177545 0.696273)
(-0.122259 0.313839 1.41259)
(-0.106896 0.0305223 1.88778)
(0.095766 0.213352 1.33942)
(0.281014 0.252562 1.39467)
(0.387069 0.294451 1.88801)
(0.112608 0.123321 2.17641)
(-0.0477059 -0.371987 2.45997)
(0.0199538 0.27933 2.31086)
(0.0591791 0.460454 2.54282)
(0.264016 0.366774 2.17804)
(0.309745 0.298619 2.08485)
(0.233905 0.134187 2.14486)
(0.173912 -0.192912 2.2982)
(0.320612 0.514317 2.24891)
(0.0560935 0.00221384 2.1339)
(0.183089 0.0172714 2.1122)
(0.160135 0.0291665 2.17872)
(0.111519 -0.0777851 2.31284)
(0.345052 0.122004 1.66876)
(0.0885214 0.0119071 1.76017)
(-0.00294002 0.028378 1.81239)
(-0.199131 -0.018411 0.692066)
(0.102947 -0.12896 1.12257)
(-0.109635 0.129088 0.657344)
(-0.22781 0.217177 1.11337)
(-0.0514931 0.119995 1.82582)
(-0.0773547 0.197402 1.3088)
(0.22507 0.21838 1.31908)
(0.366366 0.217035 1.90888)
(0.147092 0.110292 2.2649)
(-0.0715819 -0.383721 2.55098)
(0.0532668 0.229438 2.11841)
(0.13579 0.198076 2.06591)
(0.397623 0.320915 2.19964)
(0.387362 0.256042 2.17383)
(0.276377 0.0808698 2.21995)
(0.184258 -0.2137 2.35581)
(0.318056 0.501629 2.29196)
(0.171509 0.0856217 2.24449)
(0.210913 -0.0122638 2.19186)
(0.184838 -0.0103023 2.25987)
(0.116452 -0.0849932 2.40778)
(0.495374 0.228869 1.90966)
(0.164729 -0.0246644 1.80157)
(0.018379 0.00274438 1.89137)
(-0.155306 -0.016001 0.670546)
(0.0895345 -0.143357 1.11526)
(-0.0506116 0.0970733 0.633145)
(-0.13498 0.107928 0.93398)
(0.0653775 0.211268 1.75743)
(-0.158584 0.157478 1.19891)
(0.0871468 0.269514 1.2144)
(0.355983 0.189718 1.93159)
(0.121865 0.0968068 2.37478)
(-0.0925496 -0.401439 2.65985)
(0.0442904 0.149554 1.75678)
(0.170847 0.125576 1.69118)
(0.476772 0.279948 2.16579)
(0.457923 0.190065 2.27054)
(0.328892 0.019891 2.32352)
(0.201142 -0.246452 2.43121)
(0.269319 0.496516 2.22449)
(0.294393 0.158974 2.34693)
(0.245426 -0.0235479 2.29171)
(0.21032 -0.0430433 2.35205)
(0.121953 -0.0928298 2.50394)
(0.55495 0.291686 2.12059)
(0.256715 -0.0383207 1.89633)
(0.0603609 -0.0248431 1.96811)
(-0.125301 -0.00997041 0.605821)
(0.068529 -0.126695 1.08172)
(-0.052325 0.12577 0.595555)
(-0.0558308 0.0867042 0.8043)
(0.0420161 0.128949 1.77046)
(-0.146221 0.203524 1.1261)
(-0.0506921 0.351124 1.12139)
(0.34134 0.170704 1.95203)
(0.0821039 0.0393775 2.48133)
(-0.0997312 -0.434213 2.75343)
(0.027577 0.131455 1.54457)
(0.122433 0.243955 1.54546)
(0.470067 0.257074 2.09159)
(0.52083 0.117864 2.36428)
(0.394707 -0.0398518 2.44344)
(0.21659 -0.289956 2.52108)
(0.145694 0.401409 2.03062)
(0.397701 0.182016 2.4312)
(0.284065 -0.0340623 2.40181)
(0.233489 -0.0727979 2.44763)
(0.125745 -0.101249 2.59246)
(0.585149 0.311185 2.30044)
(0.359729 -0.0435741 2.04625)
(0.110761 -0.0544836 2.05722)
(-0.143999 -0.0139352 0.52974)
(0.0828604 -0.10091 1.07796)
(-0.0598921 0.176628 0.533596)
(-0.0854594 0.0884555 0.660257)
(-0.142423 -0.0591487 1.9423)
(-0.053263 0.198999 1.11821)
(-0.121408 0.416908 1.04898)
(0.297204 0.158986 1.95757)
(0.0780505 -0.0693775 2.57271)
(-0.11234 -0.479923 2.8299)
(0.0243115 0.136514 1.37171)
(0.150451 0.222053 1.44633)
(0.420185 0.288724 1.9668)
(0.564959 0.0806262 2.44039)
(0.440899 -0.0866921 2.56288)
(0.232316 -0.32708 2.61935)
(0.12887 0.319975 1.91488)
(0.427614 0.176335 2.46546)
(0.323269 -0.0560802 2.51204)
(0.257632 -0.101848 2.54497)
(0.127217 -0.109232 2.67834)
(0.578953 0.299104 2.43884)
(0.426973 -0.0487551 2.21033)
(0.153809 -0.0781627 2.16201)
(-0.180687 -0.0141018 0.467482)
(0.134367 -0.114172 1.09487)
(-0.0418813 0.205329 0.468805)
(-0.144793 0.107564 0.53718)
(-0.288117 -0.15219 2.14137)
(0.011456 0.134992 1.09531)
(-0.167107 0.438538 1.01785)
(0.193809 0.142246 1.97309)
(0.0652293 -0.168447 2.6588)
(-0.12662 -0.527444 2.89892)
(0.00760974 0.171224 1.21253)
(0.124218 0.213 1.37801)
(0.337396 0.292386 1.88614)
(0.540365 0.0502297 2.51067)
(0.445215 -0.141984 2.66321)
(0.242062 -0.354683 2.71508)
(0.154138 0.246051 1.81729)
(0.419697 0.163039 2.47035)
(0.3409 -0.0919842 2.62132)
(0.278358 -0.129891 2.64364)
(0.126638 -0.120658 2.76099)
(0.565267 0.281298 2.53983)
(0.458621 -0.0571019 2.36678)
(0.189745 -0.0979769 2.27601)
(-0.213508 -0.016715 0.413462)
(0.190085 -0.142179 1.07233)
(-0.0298884 0.227636 0.445647)
(-0.1847 0.106521 0.456291)
(-0.38642 -0.149187 2.24708)
(-0.0253648 0.131438 1.03683)
(-0.237735 0.39865 1.02865)
(0.0520022 0.129283 2.00472)
(0.0244743 -0.226178 2.72438)
(-0.144535 -0.562382 2.95131)
(0.00640972 0.253165 1.10016)
(0.0181131 0.285698 1.36407)
(0.193316 0.198885 1.84417)
(0.472854 -0.0243607 2.54524)
(0.425978 -0.218964 2.7297)
(0.239399 -0.376985 2.78728)
(0.199732 0.22398 1.70212)
(0.39907 0.116294 2.47518)
(0.340482 -0.136319 2.71211)
(0.28897 -0.15663 2.73245)
(0.124191 -0.132531 2.83101)
(0.53848 0.269929 2.59722)
(0.467552 -0.0600494 2.50101)
(0.21216 -0.111718 2.37856)
(-0.244551 -0.0264095 0.389248)
(0.181819 -0.165768 1.05881)
(-0.0396631 0.239539 0.462739)
(-0.220158 0.0650026 0.423057)
(-0.464204 -0.119889 2.2201)
(-0.218352 0.11754 0.970165)
(-0.352443 0.313558 1.03934)
(-0.0969538 0.142844 2.03377)
(-0.00819553 -0.283436 2.76005)
(-0.168336 -0.579678 2.96651)
(0.0136179 0.366609 1.03242)
(-0.123064 0.289776 1.37973)
(0.0576452 0.0711908 1.80751)
(0.416218 -0.130868 2.51762)
(0.403538 -0.292204 2.76118)
(0.236902 -0.390234 2.83316)
(0.268854 0.229862 1.60126)
(0.383965 0.0523029 2.42926)
(0.329964 -0.167135 2.75688)
(0.292058 -0.181858 2.79556)
(0.118195 -0.137154 2.88079)
(0.502824 0.260352 2.60975)
(0.460254 -0.0611541 2.59858)
(0.219352 -0.117606 2.4547)
(-0.259295 -0.0383493 0.412902)
(0.162642 -0.147621 1.08674)
(-0.0546295 0.221968 0.500722)
(-0.26922 -0.00208576 0.445439)
(-0.522274 -0.138144 2.04494)
(-0.382532 0.0468765 0.962443)
(-0.44408 0.259568 1.03584)
(-0.221429 0.155692 2.04144)
(-0.0440081 -0.35045 2.78108)
(-0.178996 -0.571008 2.97465)
(0.0172073 0.44544 1.06967)
(-0.265594 0.259326 1.37167)
(0.0230839 -0.0153277 1.73873)
(0.364764 -0.199195 2.47162)
(0.370039 -0.33681 2.76504)
(0.234812 -0.38962 2.85789)
(0.316838 0.240331 1.51398)
(0.357627 0.0257567 2.34861)
(0.319829 -0.17383 2.76406)
(0.288945 -0.198875 2.8342)
(0.112443 -0.140893 2.90996)
(0.460748 0.244635 2.58431)
(0.43784 -0.0629743 2.65809)
(0.218725 -0.119149 2.50652)
(-0.265707 -0.0473232 0.483415)
(0.113715 -0.144419 1.16919)
(-0.0597944 0.227098 0.550012)
(-0.312646 -0.0601322 0.519092)
(-0.521732 -0.206081 1.80067)
(-0.466127 0.0121133 0.986463)
(-0.516206 0.249239 1.03282)
(-0.337067 0.13797 2.02644)
(-0.112155 -0.376278 2.80053)
(-0.172083 -0.542166 2.97202)
(0.0195894 0.475308 1.19961)
(-0.354802 0.24195 1.31059)
(0.0282568 -0.0190313 1.65394)
(0.318235 -0.196761 2.45877)
(0.331418 -0.344714 2.74839)
(0.22041 -0.382156 2.86693)
(0.330043 0.303384 1.4679)
(0.318472 0.0192521 2.26595)
(0.31547 -0.171596 2.76015)
(0.283453 -0.210575 2.85401)
(0.107209 -0.150685 2.92122)
(0.415119 0.231358 2.55349)
(0.408573 -0.0621928 2.69549)
(0.211676 -0.11718 2.54562)
(-0.264277 -0.0513132 0.589384)
(0.144556 -0.10866 1.34378)
(-0.0171441 0.210335 0.582856)
(-0.329378 -0.0823533 0.635318)
(-0.449112 -0.309447 1.57966)
(-0.501715 0.0255434 1.0252)
(-0.560338 0.269779 1.02461)
(-0.4643 0.117764 1.95048)
(-0.189138 -0.323876 2.81183)
(-0.162633 -0.488451 2.96467)
(0.0187038 0.462813 1.38338)
(-0.407968 0.30758 1.23351)
(-0.00823345 0.0545394 1.59588)
(0.259605 -0.128101 2.4615)
(0.314601 -0.318279 2.7227)
(0.201141 -0.371288 2.85845)
(0.314361 0.391135 1.44618)
(0.274588 0.00809835 2.21335)
(0.302998 -0.160845 2.74697)
(0.27489 -0.207197 2.86059)
(0.106058 -0.153287 2.92763)
(0.371544 0.225104 2.53705)
(0.37437 -0.0605641 2.7208)
(0.202658 -0.10982 2.57994)
(-0.244727 -0.0472778 0.698487)
(0.112024 -0.0319632 1.41168)
(0.0526395 0.163515 0.617376)
(-0.316722 -0.0588929 0.758181)
(-0.363259 -0.392874 1.42537)
(-0.464698 0.130974 1.05557)
(-0.551835 0.284211 1.01726)
(-0.532475 0.118541 1.78383)
(-0.266732 -0.133516 2.77884)
(-0.147347 -0.423835 2.92715)
(0.0113771 0.409479 1.6044)
(-0.414255 0.345858 1.17769)
(-0.065866 0.166146 1.56475)
(0.117569 0.0622712 2.43471)
(0.306705 -0.239233 2.70116)
(0.179428 -0.340897 2.86557)
(0.270215 0.449524 1.46988)
(0.229713 0.00548988 2.20344)
(0.293364 -0.145203 2.74711)
(0.267978 -0.19176 2.86566)
(0.108658 -0.153138 2.93678)
(0.336014 0.220214 2.5378)
(0.337158 -0.0481204 2.74622)
(0.186517 -0.0954352 2.6182)
(-0.217105 -0.0385831 0.77876)
(0.0829025 0.248079 1.13104)
(-0.0231806 0.103413 0.705352)
(-0.293663 -0.017917 0.841432)
(-0.310751 -0.323665 1.38184)
(-0.166549 0.280512 1.12024)
(-0.43078 0.308969 1.01414)
(-0.466713 0.121315 1.58473)
(-0.28536 0.165845 2.59098)
(-0.0896717 -0.342641 2.89412)
(0.00278718 0.342276 1.80618)
(-0.347111 0.382487 1.18215)
(-0.0810484 0.250887 1.56548)
(-0.00454036 0.258589 2.40445)
(0.261495 -0.0731016 2.72589)
(0.162244 -0.286055 2.90556)
(0.219603 0.455062 1.52397)
(0.204759 0.0148252 2.22071)
(0.291319 -0.127041 2.77116)
(0.268324 -0.165731 2.88739)
(0.1194 -0.153969 2.96032)
(0.315621 0.21541 2.56208)
(0.30749 -0.02626 2.78612)
(0.167066 -0.0788406 2.67506)
(-0.1884 -0.0292562 0.812769)
(-0.0937255 0.0966639 0.609132)
(-0.163285 0.0636999 0.783806)
(-0.27303 0.0224752 0.860431)
(-0.273263 -0.144038 1.35123)
(-0.0888566 0.458891 1.20207)
(-0.286458 0.327652 0.996695)
(-0.303644 0.131192 1.42067)
(-0.219264 0.315284 2.32707)
(-0.0300849 -0.240363 2.97598)
(-0.00532007 0.279406 1.96733)
(-0.254302 0.43488 1.22567)
(-0.054586 0.296805 1.59253)
(-0.0345137 0.361591 2.40511)
(0.207741 0.0854804 2.8089)
(0.14365 -0.220813 2.99058)
(0.173637 0.440808 1.59027)
(0.203177 0.0128362 2.25941)
(0.286667 -0.110287 2.8458)
(0.267395 -0.136275 2.9524)
(0.134422 -0.158997 3.02763)
(0.308736 0.208184 2.60006)
(0.288167 -0.0103237 2.84789)
(0.151197 -0.0663147 2.76007)
(-0.162931 -0.0192341 0.799484)
(-0.174714 0.127681 0.517048)
(-0.208022 0.0735441 0.786957)
(-0.249847 0.0497505 0.822402)
(-0.23235 -0.0178912 1.20878)
(-0.127772 0.475723 1.23143)
(-0.215553 0.335825 0.93158)
(-0.143989 0.161581 1.28431)
(-0.114645 0.322256 2.10939)
(-0.0693562 -0.0636093 3.0643)
(-0.00259271 0.240863 2.09511)
(-0.204016 0.451621 1.28858)
(-0.0247556 0.324379 1.62923)
(-0.0169735 0.38164 2.42422)
(0.158513 0.182394 2.92376)
(0.117055 -0.155729 3.10927)
(0.139142 0.428105 1.66665)
(0.21944 0.014 2.29901)
(0.276489 -0.105059 2.92772)
(0.268578 -0.112739 3.05724)
(0.144771 -0.167342 3.12806)
(0.32218 0.194561 2.63921)
(0.283117 -0.00283409 2.92591)
(0.14187 -0.0615832 2.86426)
(-0.142566 -0.00969193 0.734795)
(-0.207148 0.200937 0.470909)
(-0.222684 0.0989152 0.751615)
(-0.220197 0.0750373 0.750038)
(-0.217211 0.0352093 0.95452)
(-0.163902 0.450418 1.20211)
(-0.179968 0.33826 0.828198)
(-0.038436 0.210004 1.14985)
(-0.0310311 0.272112 1.984)
(-0.0933921 0.0671024 2.99781)
(0.00524311 0.234066 2.17478)
(-0.186748 0.445301 1.35812)
(-0.0188818 0.348989 1.64791)
(0.0180259 0.373672 2.47376)
(0.105689 0.206027 3.06189)
(0.0786373 -0.0983845 3.22447)
(0.129475 0.426354 1.76451)
(0.25225 0.0185791 2.34972)
(0.283667 -0.107779 3.01173)
(0.277883 -0.117448 3.17572)
(0.150549 -0.181629 3.25255)
(0.344617 0.17589 2.66943)
(0.297087 -0.0013429 3.02074)
(0.141043 -0.0610626 2.97831)
(-0.131711 -0.00398315 0.621527)
(-0.233043 0.25747 0.350888)
(-0.222953 0.11961 0.676745)
(-0.181128 0.0806766 0.663958)
(-0.151339 0.0812833 0.704346)
(-0.183867 0.457404 1.22473)
(-0.141643 0.330994 0.709139)
(0.0106938 0.244334 1.03542)
(0.00275945 0.194694 1.96046)
(-0.0303364 0.0720966 2.83235)
(0.00385435 0.224747 2.23805)
(-0.166565 0.392413 1.43554)
(-0.0333177 0.369725 1.63724)
(0.0624689 0.346769 2.57548)
(0.0443456 0.166662 3.20885)
(0.0228178 -0.0375137 3.36809)
(0.153594 0.399621 1.86797)
(0.304129 0.0109574 2.39195)
(0.316396 -0.145152 3.11163)
(0.29381 -0.133768 3.29164)
(0.150681 -0.199483 3.38364)
(0.37073 0.155092 2.66422)
(0.325969 -0.00844278 3.12589)
(0.149076 -0.0653498 3.09653)
(-0.132425 -0.00332787 0.491497)
(-0.234398 0.285018 0.165034)
(-0.217077 0.125412 0.576303)
(-0.147559 0.0667143 0.576432)
(-0.0969548 0.0806664 0.487883)
(-0.152479 0.363566 1.33625)
(-0.104473 0.330718 0.591512)
(0.0140219 0.244476 0.959259)
(-0.00210854 0.0893128 2.01427)
(0.0116976 0.0530824 2.70732)
(-0.00368247 0.200267 2.27656)
(-0.148171 0.23474 1.52115)
(-0.0787006 0.423033 1.59477)
(0.0909225 0.280533 2.70956)
(-0.00981333 0.0786831 3.34869)
(-0.0272897 -0.0272923 3.53149)
(0.169374 0.339725 1.92002)
(0.343478 0.018949 2.42132)
(0.356523 -0.203523 3.20965)
(0.322178 -0.178484 3.40152)
(0.154372 -0.222973 3.50226)
(0.389219 0.132346 2.62163)
(0.368793 -0.0274317 3.22444)
(0.164275 -0.0764526 3.20679)
(-0.148667 -0.00760649 0.373948)
(-0.18635 0.232141 0.00589107)
(-0.198845 0.115919 0.473166)
(-0.134586 0.0319933 0.500262)
(-0.104798 0.0271456 0.309103)
(-0.00847762 0.134244 1.52964)
(-0.0794938 0.340545 0.495737)
(-0.0335973 0.217968 0.91737)
(-0.0290954 -0.0310089 2.08954)
(0.0259282 0.0418901 2.678)
(-0.0127757 0.12003 2.30561)
(-0.140515 0.109508 1.53753)
(-0.122487 0.488596 1.5639)
(0.100411 0.18377 2.83571)
(-0.0442752 -0.0404664 3.46635)
(-0.0341666 -0.0581917 3.67607)
(0.163765 0.298621 1.92457)
(0.350009 0.0526718 2.46942)
(0.382542 -0.233168 3.29045)
(0.34324 -0.235106 3.49051)
(0.175749 -0.271231 3.59891)
(0.430641 0.124894 2.55395)