/*--------------------------------*- C++ -*----------------------------------*\
| =========                 |                                                 |
| \\      /  F ield         | OpenFOAM: The Open Source CFD Toolbox           |
|  \\    /   O peration     | Version:  5.x                                   |
|   \\  /    A nd           | Web:      www.OpenFOAM.org                      |
|    \\/     M anipulation  |                                                 |
\*---------------------------------------------------------------------------*/
FoamFile
{
    version     2.0;
    format      ascii;
    class       volScalarField;
    location    "4.05";
    object      Ksl;
}
// * * * * * * * * * * * * * * * * * * * * * * * * * * * * * * * * * * * * * //

dimensions      [1 -3 -1 0 0 0 0];

internalField   nonuniform List<scalar> 
10571
(
2493.99
3314.64
1249.21
104.642
1616.74
6218.45
981.386
957.673
2960.81
4363.63
1656.32
1037.32
3351.14
879.127
3285.85
881.826
1655.5
1014.72
31.3379
201.52
6.50876
1789
417.25
895.417
10309.5
8730.67
3919.11
6236.1
4618.07
1077.45
3713.37
1264.15
808.261
2672.86
2635.7
222.288
1420.59
1051.09
1629.73
4009.05
5823.58
780.054
840.732
736.391
225.845
392.091
2664.02
441.549
6610.9
10144.3
2588.18
600.693
908.985
3214.35
2468.74
343.978
69.0294
507.572
7290.33
5479.25
579.738
585.355
1412.93
5339.08
8810.91
1012.67
983.903
3908.81
4584.36
305.519
3753.77
6333.81
1335.82
9902.07
294.706
16.1709
1127.56
4162.84
992.105
102.551
185.962
2933.21
7465.89
5688.76
209.219
387.048
410.476
2684.06
10384.5
1278.62
445.804
405.69
3710.54
1454.39
1262.78
1601.99
4388.08
997.512
49.909
1.64612e-13
322.93
1765.29
290.931
47.6631
1203
357.167
4242.16
5456.16
3207.81
1131.64
2549.14
3156.48
6728.62
8780.69
1202.12
291.998
2348.35
8023.39
2452.73
1187.52
472.52
425.145
27.7757
981.977
165.846
1058.45
333.478
1405.19
426.609
43.6368
18404.2
504.446
4738.01
2222.7
2109.08
548.555
219.308
10361
4912.58
2633.34
3286.88
3606.89
1489.21
10829.7
9469.16
6984.98
15.5291
332.781
197.43
277.543
51.5682
5699.93
1172.53
246.943
7.57527
6.70878
0
196.766
1747.45
540.659
95.3983
2.50214
1.37467e-13
0
64.6673
10.6778
60.6593
3.22527
1.94408e-13
0
58.4765
398.741
27.4456
0
230.274
755.61
291.506
5.81587
75.8702
38.8057
7.04891
3.40669
0
0
68.53
51.1078
8.03338
1.24853
0.763122
0
0
28.1383
4.65615
1.25074
11.314
0
0
4.26811
0.102521
0
21.295
56.2324
10.9508
16.3775
0
23.1303
4.8191
4.6671
0
0
0
49.7319
23.1136
5.4731
2.1786
0.804887
0
0
17.8024
3.55455
0.599645
0
0
4.29234
5.87499
0
24.274
1.53276
4.12617
1.07319e-12
7.21772
13.4
4.4673
0.678344
0
0
26.1966
7.17891
1.77428
1.80179
0.795589
0
24.8393
3.4574
0.00900743
1.55826e-12
0
8.58323
0
0
0.77468
0
9.92279
6.20196
0
7.47496
2.22197
0
0
0
14.8336
15.7753
3.13446
0.517551
0
0
6.89449
2.01046
0.616954
6.13999
0
13.1341
0
0
0
0
21.3884
0
0
5.07987
0.527725
0.193586
0.856793
0
3.71286
6.88686
2.0253
0
1.54772
0
33.3448
2.31914
0
0
0
16.4217
0
0
0
30.3112
0
6.29366
0
15.823
2.59026
2.42364
0
0
9.81776
17.3572
0.497652
0
0
0
16.9215
1.61042
0
0
0
9.82229
0
0
0
22.4065
5.03162
6.33912
0
5.95054
3.6133
0.593977
1.65561
0
10.8277
9.46245
2.6766
0.662497
0
0
22.7131
3.14106
1.19937
0
0
4.45796
0
0
0
23.5605
9.28405e-14
0
0
0
0
1.81841
1.6181
0
10.1208
9.62775
1.49088
1.29469
0
0
30.564
1.60446
0
0
0
4.96169
0
0
0
0
8.29449
5.75919
0
0
3.24464
0
0
0
0
5.34481
2.03722
0.634589
0.783454
0
19.6559
1.99711
0.625036
0
0
4.9698
0
1.76515e-12
0
0
14.2382
0
0
0
0.505598
0
0
0
0
8.79601
4.39227
0.650594
0
0
6.67455
1.31721
0
0
0
0
0
0
0
2.41207
0
0
0
3.53171
0.498747
0.616253
0.760292
0
0
8.42437
1.25959
0.0236312
0
0
0
1.60772
0.617718
0
0
0
0
0
0
5.11694
0
6.17973e-13
0
4.55958
0.986489
0
0
0
0
0.197774
1.70568
1.91464
0
0
2.81267
0
0
0
0
5.59071e-13
0
0
0
5.46873
0
0
0
5.00994
1.00568
0.617955
0
0
1.04905
3.78406
0.544458
0
0.812198
0
2.80603
3.22793e-13
1.36035
0
0
0
8.94064
0
0
0
0
0
0
6.3974
0.873415
1.1822
0
0
7.7866
0
0.526738
0.6027
0
0
0
0
0
0
0
4.82465
0
0
0
0
0
0
0
6.07899
0.469377
0
0
0
0
3.33299
1.01128
1.09501
0
0
1.75848
2.68801
0.601672
0
0
0
0
0
0
5.59951
0
0
0
0
2.7846
0
0
0
0
6.02198
0.47118
0.128198
0
0
1.9896
0.51761
0
0
0
4.7997
0
0
0
0
4.09382
0
0
0
0.463822
0
0
0
0
4.1708
1.00643
0
0
0
5.23634
0.0178351
0
0
0
0
0
0
0
0
0
0
0
3.03362
0.942331
0.576886
0
0
16.6269
1.63107
1.43909
0
0
0
0
0
0
0
0
0
0
0
0
0
0
0
0
0.0989679
0.1881
0
0
0
9.72744
0
0.965152
0
0
0
3.34682
0
0
0
0
0
0
0
0
0
0
0
0
0
0.335799
0
0
0
2.8726
0
0
0
0
0
0
0
0
0
0
0
0
0
0
0
0
0
0
0
0
0
0
0
0
4.32099
0
0
0
0
0.900142
1.08532
0
0
0
0
0
0
0
0
0
0
0
0
0
0
0
0
0
0
0
0
0
0
0
0.0154147
0
0
0
0
0
0
0
0
0
0
0
0
0
0
0
0
0
3.82873
0
0
0
0
6.11149
0
0
0
0
0
0
0
0
0
0
0
0
0
0
0
0
0
0
0
0.00869116
0
0
0
0
0
0
0
0
0
0
0
0
0
0
0
0
0
0
0
0
0
0
2.31777
0
0
0
0
0
0
0
0
0
0
0
0
0
0
0
0
0
0
0
0
0
0
0
0
0
0
0
0
0
0
0
0
0
0
0
0
0
0
0
0
0
0
0
0
0
0
0
0
0
0
0
0
0
0
0
0
0
0
0
0
0
0
0
0
0
0
0
0
0
0
0
0
0
0
0
0
0
0
0
0
0
0
0
0
0
0
0
0
0
0
0
0
0
0
0
0
0
0
0
0
0
0
0
0
0
0
0
0
0
0
0
0
0
0
0
0
0
0
0
0
0
0
0
0
0
0
0
0
0
0
0
0
0
0
0
0
0
0
0
0
0
0
0
0
0
0
0
0
0
0
0
0
0
0
0
0
0
0
0
0
0
0
0
0
0
0
0
0
0
0
0
0
0
0
0
0
0
0
0
0
0
0
0
0
0
0
0
0
0
0
0
0
0
0
0
0
0
0
0
0
0
0
0
0
0
0
0
0
0
0
0
0
0
0
0
0
0
0
0
0
0
0
0
0
0
0
0
0
0
0
0
0
0
0
0
0
0
0
0
0
0
0
0
0
0
0
0
0
0
0
0
0
0
0
0
0
0
0
0
0
0
0
0
0
0
0
0
0
0
0
0
0
0
0
0
0
0
0
0
0
0
0
0
0
0
0
0
0
0
0
0
0
0
0
0
0
0
0
0
0
0
0
0
0
0
0
0
0
0
0
0
0
0
0
0
0
0
0
0
0
0
0
0
0
0
0
0
0
0
0
0
0
0
0
0
0
0
0
0
0
0
0
0
0
0
0
0
0
0
0
0
0
0
0
0
0
0
0
0
0
0
0
0
0
0
0
0
0
0
0
0
0
0
0
0
0
0
0
0
0
0
0
0
0
0
0
0
0
0
0
0
0
0
0
0
0
0
0
0
0
0
0
0
0
0
0
0
0
0
0
0
0
0
0
0
0
0
0
0
0
0
0
0
0
0
0
0
0
0
0
0
0
0
0
0
0
0
0
0
0
0
0
0
0
0
0
0
0
0
0
0
0
0
0
0
0
0
0
0
0
0
0
0
0
0
0
0
0
0
0
0
0
0
0
0
0
0
0
0
0
0
0
0
0
0
0
0
0
0
0
0
0
0
0
0
0
0
0
0
0
0
0
0
0
0
0
0
0
0
0
0
0
0
0
0
0
0
0
0
0
0
0
0
0
0
0
0
0
0
0
0
0
0
0
0
0
0
0
0
0
0
0
0
0
0
0
0
0
0
0
0
0
0
0
0
0
0
0
0
0
0
0
0
0
0
0
0
0
0
0
0
0
0
0
0
0
0
0
0
0
0
0
0
0
0
0
0
0
0
0
0
0
0
0
0
0
0
0
0
0
0
0
0
0
0
0
0
0
0
0
0
0
0
0
0
0
0
0
0
0
0
0
0
0
0
0
0
0
0
0
0
0
0
0
0
0
0
0
0
0
0
0
0
0
0
0
0
0
0
0
0
0
0
0
0
0
0
0
0
0
0
0
0
0
0
0
0
0
0
0
0
0
0
0
0
0
0
0
0
0
0
0
0
0
0
0
0
0
0
0
0
0
0
0
0
0
0
0
0
0
0
0
0
0
0
0
0
0
0
0
0
0
0
0
0
0
0
0
0
0
0
0
0
0
0
0
0
0
0
0
0
0
0
0
0
0
0
0
0
0
0
0
0
0
0
0
0
0
0
0
0
0
0
0
0
0
0
0
0
0
0
0
0
0
0
0
0
0
0
0
0
0
0
0
0
0
0
0
0
0
0
0
0
0
0
0
0
0
0
0
0
0
0
0
0
0
0
0
0
0
0
0
0
0
0
0
0
0
0
0
0
0
0
0
0
0
0
0
0
0
0
0
0
0
0
0
0
0
0
0
0
0
0
0
0
0
0
0
0
0
0
0
0
0
0
0
0
0
0
0
0
0
0
0
0
0
0
0
0
0
0
0
0
0
0
0
0
0
0
0
0
0
0
0
0
0
0
0
0
0
0
0
0
0
0
0
0
0
0
0
0
0
0
0
0
0
0
0
0
0
0
0
0
0
0
0
0
0
0
0
0
0
0
0
0
0
0
0
0
0
0
0
0
0
0
0
0
0
0
0
0
0
0
0
0
0
0
0
0
0
0
0
0
0
0
0
0
0
0
0
0
0
0
0
0
0
0
0
0
0
0
0
0
0
0
0
0
0
0
0
0
0
0
0
0
0
0
0
0
0
0
0
0
0
0
0
0
0
0
0
0
0
0
0
0
0
0
0
0
0
0
0
0
0
0
0
0
0
0
0
0
0
0
0
0
0
0
0
0
0
0
0
0
0
0
0
0
0
0
0
0
0
0
0
0
0
0
0
0
0
0
0
0
0
0
0
0
0
0
0
0
0
0
3745.95
2949.76
1201.62
3042.94
2929.14
2600.4
1318.98
1190.37
7794.12
1482.15
2807.38
4330.59
1540.41
2827.31
3288.73
995.348
2801.59
293.788
196.88
138.561
119.746
493.156
1140.32
185.504
827.993
2031.47
8241.76
2286.24
4569.94
6579.7
1517.48
3472.44
1470.04
859.704
3110
3240.42
1706.41
370.202
428.43
235.555
290.616
793.896
1216.52
499.885
742.762
1294.22
766.795
280.783
3701.25
3589.53
5438.59
956.605
605.405
4743.98
5769.18
5912.4
2797.63
8827.87
3268.7
349.724
901.002
347.793
498.046
1114.22
1133.91
562.106
608.643
888.724
359.628
615.926
6273.11
7170.71
9366.52
8339.34
9391.9
8331.58
3118.4
6722.77
2790.98
177.264
132.365
292.871
258.58
206.722
236.586
495.123
731.666
504.841
8689.1
6605.16
5686.85
8199.52
3138.12
2713.19
5349.07
3140.58
2118.36
6373.07
2036.29
267.173
629.102
6739.82
4912.17
4387.11
398.382
670.306
6972.15
4689.02
6388.2
1471.45
8252.35
6583.82
2457.16
4127.38
3939.63
2710.89
6534.09
5298.06
2665.8
3036.98
2389.94
1477.55
1671.08
3547.16
1455.75
3120.14
722.865
3375.72
2664.8
8703.49
3640.87
3799.66
4079.82
2276.55
1596.53
3561.74
170.144
6463.35
7220.36
3305.67
2829.79
3985.52
2171.04
2966.03
4334.51
98.1044
128.893
2535.9
1758.21
165.412
3658.8
2097.29
1437.25
3000.3
1690.35
2484.5
5054.13
4084.65
4333.71
57.568
120.62
164.493
47.2021
88.8093
858.279
1094.71
30.7593
601.326
687.903
1442.89
6834.76
709.188
1465.49
2614.88
731.35
4162.63
1137.18
887.421
9629.83
948.699
10983.4
10758
10611.9
8482.53
9031.23
10744.7
9798.32
10390.1
9108.43
9280.18
10141.7
9974.46
10164.3
10702.6
11163.2
2319.94
3238.51
7024.33
2295.35
3708.47
8555.53
8505.54
2920.12
5044.65
4250.45
806.398
1679.63
2479.55
3719.26
292.666
980.532
3557.57
2041.42
2824.53
408.278
183.441
3766.89
1226.92
432.948
5989.51
4753.42
658.071
2442.2
4845.69
2193.56
5681.19
7875.62
4278.26
9364.61
4118.75
360.925
4812.53
4949.18
812.887
6104.77
9682.72
4832.89
7374.22
1689.65
7640.62
2404.83
6461.79
1175.54
812.328
1086
3460.05
4118
3586.2
1366.79
5293.46
979.945
293.915
195.261
1907.12
1039.94
406.253
1292.21
543.398
711.917
9689.54
4753.42
3059.19
7715.9
2555.06
9990.43
4544.43
9955.27
5933.03
3671.49
3528
1219.47
889.309
1936.27
3245.64
1137.75
348.666
415.824
4571.31
813.624
6370.21
9923.21
6159.22
6244.99
7774.97
10869.1
2842.1
9319.41
8316.95
3777.28
167.171
717.003
704.801
5143.45
22.4304
617.032
1304.74
2420.25
5952.14
2626.23
2521.32
7786.51
4399.63
4858.14
1209.93
5424.35
1070.99
1597.89
6379.65
7892.63
10707.1
3578
9849
10802.7
5957.57
4549.45
3986.93
5086.23
6965.7
11138
11925.2
2474.39
6702.41
1841.87
9244.75
2110.36
7461.93
1011.51
6583.82
1085.78
4338.63
1427.3
5316.77
428.212
1016.12
6437.75
661.3
2483.47
1290.54
1690.52
835.526
1958.67
3085.82
6738.04
5997.51
1918.76
5062.97
4673.1
3940.8
2255.94
1483.79
2115.82
601.655
445.084
5096.63
662.894
556.039
347.264
505.497
3912.48
530.439
930.507
1340.86
935.756
10499.7
6493.78
1094.57
9216.02
6273.5
2396.59
468.692
5363.34
3078.86
2938.73
87.0872
465.257
736.414
613.236
211.46
1282.1
4984.08
4101.21
6815.51
8185.91
6331.81
3717.57
7919.52
4476.87
2637.96
3887.49
2422.93
2351.65
500.063
9402.85
10785.5
10641.7
9387.42
10170.5
2728.48
3512.24
3257.44
553.909
1928.45
12605.1
12493.7
1986.36
8717.43
805.635
8537.57
3264.58
10597.3
2977.5
1233.07
200.55
360.369
203.359
335.395
77.5185
241.622
1163.87
2882.34
5305.7
881.544
3644.74
2632.38
860.729
4793.44
2908.87
4119.29
1637.9
2071.2
5230.25
1179.94
1588.64
2360.74
7106.2
856.493
965.753
4764.95
978.996
1457.39
1380.34
806.977
2599.7
2992.62
621.735
180.939
92.1008
4853.05
4856.54
357.954
1774.86
315.119
707.867
328.143
905.25
120.679
240.486
483.036
560.241
173.008
66.2757
713.21
215.238
428.947
29.4671
2704.13
5173.94
2400.16
3240.83
2576.9
2581.13
1345.72
275.058
141.806
627.113
693.882
3534.11
8141.97
439.655
1103.24
2560.44
354.515
2605.26
1254.46
673.546
885.677
11420.7
7004.57
4078.72
9770.02
7638.16
8981.58
8735.43
11300.1
9686.66
335.765
129.925
452.671
815.638
1326.78
442.791
1309.52
3962.58
8783.87
10604.9
5046.58
7674.55
9378.2
9323.25
8859.72
1992.26
7194.28
5335.61
3882.08
9222.11
3627.96
1187.53
326.212
997.506
823.396
1635.6
182.429
548.383
531.359
1253.96
345.288
37.4121
233.703
94.7651
131.735
80.4575
5339.84
5159.79
260.247
724.402
132.633
530.309
231.052
777.059
113.412
29.2483
395.061
63.0758
87.6058
6.24577
326.803
39.0333
0
9.16827
4262.51
2438.81
5600.28
3456.7
2590.74
5967.4
2401.03
74.8965
2795.24
8.15332
67.7668
0
12.4457
10300.6
10129.5
10226
1514.05
10328.9
1768.09
11156.6
1510.88
1024.19
644.77
805.912
265.235
2986.79
299.413
2397.54
6.9755e-14
46.3904
6.49221
127.036
11238
13227.1
8627.07
2045.38
11261.2
2335.86
16355.1
845.233
96.957
7792.61
7141.33
10312.6
191.056
478.085
278.652
948.105
3037.71
3785.65
4931.96
132.876
225.218
920.952
1704.86
112.089
10882.4
2026.85
10775
9951.09
3592.67
8331.73
8262
8706.18
9660.78
8429.02
2832.46
6576.44
2416.59
177.212
244.41
130.716
174.83
216.566
72.0882
173.9
301.076
143.662
74.2322
42.4375
89.3395
34.3314
18.1092
12.6309
3790.81
778.431
138.824
1021.88
409.689
659.649
382.375
901.131
381.691
0
63.2858
0
24.6621
0
1.4893e-13
6.61369
3.49999
0
0
0
0
2.47222
0
0
3674.31
720.369
5009.65
618.256
87.1982
771.749
0
0
0
0.520561
0
6.42858
0
195.992
0
151.192
0
0
0
0
557.556
48.7553
15.3878
125.219
17.2493
2.92061
5.17931
0
0
0
0
0
134.585
0
234.727
0
0
0
0
101.724
58.7134
17.7659
49.6076
11.8922
34.1194
9.23154
5.57857
2.5249
0
23.6648
75.812
0.218643
4.47796
0
0
0
0
0
5.63813
0
0
26.8281
7.95793
238.147
344.514
4.22727
0
0
30.4117
320.307
6.35482
0
8.78262
0
157.104
37.9044
26.1321
157.605
103.22
0
0.598498
14.2998
34.7825
0.308637
0
5.5972
8.50551
0
0
56.0414
6.79181
450.913
171.149
547.936
2.34789
39.4812
24.3902
77.5215
0
7.90617
0
0
0
0
0
10.1991
0
0
0
0
0
0
0
20.5541
62.5574
29.6241
10.7997
28.3922
14.3815
0
0
0
0
0
0
0
0
0
0
0
0
0
0
32.4409
23.8037
30.4684
31.2956
21.657
0
0
0
0
0
0
0
0
0
0
0
0
0
0
15.0161
62.7886
21.7314
28.9613
1.17902
28.292
20.7149
22.0053
6.25169
0
0
0
0
0
0
0
0
0
0
0
0
0
1.5713e-12
0
6.4711
21.3692
0
0
14.0456
0
10.7602
5.51727
0
2.81238
0
16.1517
31.9418
0
8.64847
13.5245
0
16.333
9.08638
0.982789
18.0258
8.07792e-12
8.41377e-13
0
0
0
10.6881
17.8024
12.4999
13.1242
16.5694
3.03891
21.8099
20.1328
8.33655
4.11524
0
11.6559
0
0
0
0
0
0
21.2327
12.3522
23.054
15.5391
57.7208
16.9901
0
0
0
0
0
0
0
0
0
0
0
0
0
0
37.7964
29.1372
40.376
34.5136
29.4205
0
0
0
0
0
0
0
0
0
0
0
0
0
0
15.8847
10.5934
1.16791
11.7057
13.3921
13.2332
0
9.69503
1.61003e-12
5.64027
0
0
6.02137
5.68604
0
0
0
6.47683
23.6522
0
21.4427
0
6.77135
0
0
0
0
4.71362
0
0
31.6676
31.4458
4.48579e-13
8.5722
18.1134
0
8.5885
17.123
6.51445
0
0
12.7316
8.81519
0
0
17.2105
9.45045
6.50082
10.8383
16.5046
0.564162
28.8825
15.8244
8.54077
0
0
0
0
0
0
0
0
0
7.81808
3.11333e-13
7.65251
13.0838
23.1151
14.8633
0
0
0
0
0
21.9672
36.0875
25.7529
32.2765
30.1505
0
0
0
0
0
16.5363
23.3683
4.43032
35.2168
0
35.2609
16.0182
19.8466
4.61893
0
0
0
0
0
0
0
0
9.22451
0
1.66021e-12
0
7.29254
0
20.5277
0
11.1549
3.37275
0
0
0
26.7547
15.8354
0
3.09928e-12
14.7889
0
16.9976
7.4253e-13
6.312
8.69955
0
0
8.35097
0
0
9.95572
32.3273
11.3671
1.57667
5.29511
11.1968
18.0343
4.33326
5.10665
0
0
0
0
0
0
7.10653
0
0
5.67193
14.8368
17.7586
9.73094
24.9037
9.55201
0
0
0
0
0
12.1904
9.01139
19.4759
5.61276
20.439
0
0
0
0
0
20.2487
13.9853
12.5785
19.4886
8.07109
10.322
2.09977
8.42463
18.5825
0
0
0
0
0
0
0
13.9349
7.24193
17.6807
2.48316
16.544
7.6998
7.09311
0
0
0
3.4716
5.30761
0
0
26.1946
34.4327
0
0
0
32.0661
9.46819
6.28944
0
8.55808
0
12.9677
9.77666
0
0
11.1386
11.2248
15.6029
16.4375
12.2965
0.275563
5.60225
21.8701
3.36954
0
0
0
6.97156
0
0
0
0
0
7.83605
27.5321
5.515
4.27419
20.2584
3.35375
0
0
0
0
0
8.49415
35.9408
20.481
7.26119
5.13156
0
0
0
0
0
0.761934
32.6756
19.8472
11.5497
13.9283
18.3227
25.7171
28.4492
3.46389
0
0
0
0
0
0
0
0
7.90127
0.663786
0
0
15.1183
0
0
0
0
0
0
0
0
14.9611
30.1678
15.5879
7.94374
6.06291
0
2.81558
3.55453
1.24448e-12
1.32388e-13
0
0
0
0
0
10.8869
0
18.1934
19.8954
14.403
22.7847
7.44262
9.58709
11.1938
0
0
0
0
0
0
0
0
0
4.09884
2.91855
5.83714
17.7399
6.17435
17.561
0
0
0
0
0
16.7684
15.0975
10.7142
13.2612
15.3044
0
0
0
0
0
21.2135
20.025
5.14108
24.7698
12.2225
21.8853
3.80482
7.88039
13.659
0
0
0
0
0
0
0
0
13.8246
15.8414
0
0
5.87187
3.76042
0
0
0
0
0
0
0
4.15669
14.4658
0
10.3065
11.7178
0
14.7654
5.72975
0
0
0
0
0
0
0
0
0.734218
2.07447
27.4171
9.60774
1.18618
12.1466
5.00344
16.4739
0
6.95233
0
0
0
6.89149
0
0
0
8.40363
10.1909
11.276
12.5304
0
12.6694
0
0
0
0
0
14.9936
3.29921
21.0146
10.9558
20.7151
0
0
0
0
0
30.4315
28.6816
11.1963
35.5904
47.8332
10.2681
24.3136
33.0032
31.555
0
0
0
0
0
0
0
0
2.95195
0
3.77743
0
9.13124
1.31192
0
0
0
0
0
0
12.3977
0
0
0
0
0
0
7.10622
0
0
0
0
0
0
0
0
5.78339
0
20.5043
29.8187
7.85307
0.381523
5.10441
6.66826
0.284855
0
0
0
0
0
0
0
0
0
4.18855
0
0
8.74565
10.8217
7.07643
0
0
0
6.56841
0
1.96995
0
0
6.60332
7.24842
0
0
0
0
0
12.6819
26.7274
10.0973
31.7218
14.2409
3.44222
9.84035
11.7639
13.226
0
0
0
0
0
0
0
0
24.321
24.9969
3.28119
14.4167
1.77674e-12
0.171283
0
0
0
0
0
0
0
13.6702
0
0
1.31531
0
0
6.83969
0
0
0
0
5.23638
0
0
0
0
0
10.1328
0
12.1683
17.1907
4.84176
6.08095
1.68993e-12
0
6.76013
0
0
0
0
0
0
0
4.55508
2.12608e-12
5.41004
0.267837
0
2.84039
0
0
0
0
0
2.39828
10.8154
10.5399
6.14471
3.0345
0
0
0
0
0
6.19343
3.53346
5.31443
1.13834e-12
9.74906
9.82456
8.77442
5.40128
0
0
5.27829
0
0
0
0
0
0
0
0
4.17632
0
5.0258
1.86894e-12
0
0
0
0
0
0
12.2847
0
13.7715
0
0.234094
0
0
0
0
0
0
0
0
0
0
0
7.84188
0
4.71466
4.78457
3.22052
9.04443
8.33754
6.11522
2.01734
0
0
0
0
0
6.44329
0
0
0
4.22379
0
6.14782
4.12827
0
2.72442
0
0
0
0
0
9.4665
11.3452
7.05649
9.81924
0.167126
0
0
0
0
0
6.82607
6.8832
4.64072
0
3.88205
0
4.25097
0
1.68742e-12
0
0
0
0
0
0
0
0
0
6.4555
8.65302
0
0
1.58639e-12
0
0
0
4.26314
0
0
0
4.83707e-12
0
0
0
0
0
0
0
0
6.38584
0
0
0
0
0
6.44219
7.03711
0
7.74788e-13
5.72638
10.1844
2.44051
12.3212
5.91041
0
9.86731e-13
0
0
0
0
0
0
0
19.7127
0
5.60094
9.72513
0
3.23693
0
0
0
0
0
12.0982
11.574
0
6.00416
5.70794
0
0
0
0
0
5.48547
5.05119
0.427499
5.18607
2.23908
11.8848
4.06443
2.91434
1.30813
0
0
0
0
0
0
0
0
17.7704
0
0
0
4.85442
0
0
0
0
0
0
0
0
0
0
0
6.87132
0
0
0
0
0
0
0
0
0
0
0
0
19.2725
0
9.57652
1.46372e-13
5.30819
0
9.83361
0.267542
0
0
0
0
0
0
0
0
0
5.6427
18.5289
2.34719
10.2145
27.2626
4.72239
0
0
0
0
0
14.6208
4.25254
4.44529
9.52245
3.07154
0
0
0
0
0
0
0
3.98558
6.82153
2.0381
2.7769
11.6024
0
4.64337
0
0
0
6.48535
0
0
0
0
7.64728
7.66418
4.318
0
0
0
0
0
0
0
0
0
0
0
0
0
0
0
0
0
0
0
0
0
0
0
0
0
0
8.18119
0
9.21344
0
5.91915e-13
0
2.16434
0
0
0
0
0
0
0
0
0
0
3.94999
8.62688
3.81612
1.9608
0
9.96739
0
0
0
0
0
3.27676
1.17588
4.16882
3.1274
2.11876
0
0
0
0
0
0
0
7.41237
0
0
2.22268
0
0
0
0
0
0
0
0
0
0
0
0
0
0
0
0
0
0
0
0
0
0
0
0
0
0
0
0
0
0
0
0
0
0
0
0
0
0
0
14.6577
7.68518
0
7.02594
3.13633
0
0
7.03448
0.498861
0
0
0
0
0
0
0
0
0
10.8917
0
3.22176
4.81295
0
4.90067
0
0
0
0
0
3.76703
3.21035
0
4.18393
5.32919
0
0
0
0
0
11.1426
11.0252
0
0
8.04933e-14
2.60404
3.49833
0
0
0
0
0
0
0
5.67623
0
0
14.8127
0
0
0
0
0
0
0
0
0
0
0
0
0
0
0
0
0
0
0
0
0
0
0
0
0
0
0
0
0
0
0.739282
0
5.60743
0
2.59672
0
0
0
0
0
0
0
0
0
0
2.21865
4.86033e-12
10.2173
13.0528
0
6.14876
0
0
0
0
0
5.96214
0
0
12.1454
0.248476
0
0
0
0
0
0
0
4.03428
4.82786
5.92907
0
6.34075e-14
0
0
0
0
0
0
6.11949
0
0
0.384197
0
7.21726
0
0
0
0
0
0
0
0
0
0
0
0
0
0
0
0
0
0
0
0
0
0
0
0
0
0
0
0
0
0
0
0
0
0
0.18295
0
0
0
0
0
0
0
0
0
3.87636
0
8.11403
0
0
6.09259
0
0
0
0
0
4.04861
0.150036
0
6.75486
0
0
0
0
0
0
5.61462
0
0
0
2.96221
2.74996
0
4.59176
0
0
0
0
0
0
0
0
0
0
0
0
0
0
0
0
0
0
0
0
0
0
0
0
0
0
0
0
0
0
0
0
0
0
0
0
0
0
0
0
0
0
0
0
0
0
0
0
0
0
0
0
0
0
0
0
0
2.85319
6.43014
0
0
0
0
0
0
0
0
0
0
0
0
0
0
0
0
0
0
5.87696
0
0
0
2.6201
3.54813
0
0
0
0
0
0
0
0
0
0
0
0
3.87041
0
0
0
0
0
0
4.32957
0
0
0
0
0
0
0
0
0
0
0
0
0
0
0
0
0
0
0
0
0
0
0
0
0
0
0
0
0
0
0
0
0
0
0
0
3.20075
14.7706
2.87324
3.16077
9.05858
0
0
0
0
0
0
3.57679
3.93625
0.34212
0
4.8205
0
0
0
0
0
0
4.09133
0
4.88201
0
2.27779
5.43761
0
0
0
0
0
0
0
0
0
0
0
0
0
0
0.211697
4.06148
0
0
0
0
0
0
0
0
0
0
0
0
0
0
0
0
0
0
0
0
0
0
0
0
0
0
0
0
0
0
0
0
0
0
0
0
0
0
0
0
3.012
0
0
0
0
0
0
0
0
0
0
0
0
0
0.666859
4.07221
0
0
0
0
0
0
6.34865
1.13111
0
0
3.00227
0
0
0
0
0
0
0
0
0
0
0
0
0
0
0
0
4.33549
0
6.02459
0
0
0
0
0
0
0
0
0
0
0
0
0
0
0
0
0
0
0
0
0
0
0
0
0
0
0
0
0
0
0
0
0
0
0
0
0
0
0
0
0
0
0
0
0
0
0
0
0
5.97738
0
8.82986
6.27317
4.13174
0
0
0
0
0
0
0
0
0
0
0
0
0
0
0
0
0
0
0
0
0
0
0
0
0
0
0
0
0
0
0
0
0
0
0
0
0
0
0
0
0
0
0
0
0
0
0
0
0
0
0
0
0
0
0
0
0
0
0
0
0
0
0
0
0
0
0
0
0
0
0
0
0
0
0
0
0
0
0
0
3.90988
0
3.44994
0
0
0
0
0
0
4.33759
0
0
0
0
0
0
0
0
0
0
0
0
0
0
0
0
0
0
0
0
0
0
0
0
0
0
0
0
0
0
0
0
0
0
0
0
0
0
0
0
0
0
0
0
0
0
0
0
0
0
0
0
0
0
0
0
0
0
0
0
0
0
0
0
0
0
0
0
0
0
0
0
0
0.0967569
0
9.45487
2.98469
0
0
0
0
0
0
0
0
3.385
0
0
0
0
0
2.92347
0
0
0
0
0
0
0
0
0
0
0
0
0
0
0
0
0
0
0
0
0
0
0
0
0
0
0
0
0
0
0
0
0
0
0
0
0
0
0
0
0
0
0
0
0
0
0
0
0
0
0
0
0
0
0
0
0
0
0
0
0
0
0
0
0
0
0
0
0
3.36866
0
0
0
0
0
0
0
0
0
0.0807027
0
0
0
3.21073
0
0
0
0
0
0
0
0
0
0
0
0
0
0
0
0
0
0
0
0
0
0
0
0
0
0
0
0
0
0
0
0
0
0
0
0
0
0
0
0
0
0
0
0
0
0
0
0
0
0
0
0
0
0
0
0
0
0
0
0
0
0
0
0
0
2.77376
0
0
0
3.46525
0
0
0
0
0
6.40269
0
0
0
0
0
0
0
0
0
0
0
0
0
0
0
0
0
0
0
0
0
0
0
0
0
0
0
0
0
0
0
0
0
0
0
0
0
0
0
0
0
0
0
0
0
0
0
0
0
0
0
0
0
0
0
0
0
0
0
0
0
0
0
0
0
0
0
0
0
0
0
0
0
5.70236
0
0
0
0
0
0
0
0
0
0
0
0
0
0
0
0
0
0
0
0
0
0
0
0
0
0
0
0
0
0
0
0
0
0
0
0
0
0
0
0
0
0
0
0
0
0
0
0
0
0
0
0
0
0
0
0
0
0
0
0
0
0
0
0
0
0
0
0
0
0
0
0
0
0
0
0
0
0
0
0
0
0
0
0
3.62793
0
0
0
0
0
0
0
0
0
0
0
0
0
0
0
0
0
0
0
0
0
0
0
0
0
0
0
0
0
0
0
0
0
0
0
0
0
0
0
0
0
0
0
0
0
0
0
0
0
0
0
0
0
0
0
0
0
0
0
0
0
0
0
0
0
0
0
0
0
0
0
0
0
0
0
0
0
0
0
0
0
0
0
0
0
0
0
0
0
0
0
0
0
6.77893
0
0
0
0
0
0
0
0
0
0
0
0
0
0
0
0
0
0
0
0
0
0
0
0
0
0
0
0
0
0
0
0
0
0
0
0
0
0
0
0
0
0
0
0
0
0
0
0
0
0
0
0
0
0
0
0
0
0
0
0
0
0
0
0
0
0
0
0
0
0
0
0
0
0
0
2.31578
0
0
0
0
0
0
0
0
0
0
0
0
0
0
0
0
0
0
0
0
0
0
0
0
0
0
0
0
0
0
0
0
0
0
0
0
0
0
0
0
0
0
0
0
0
0
0
0
0
0
0
0
0
0
0
0
0
0
0
0
0
0
0
0
0
0
0
0
0
0
0
0
0
0
0
0
0
0
0
0
0
0
0
0
0
0
0
0
0
0
0
0
0
0
0
0
0
0
0
0
0
0
0
0
0
0
0
0
0
0
0
0
0
0
0
0
0
0
0
0
0
0
0
0
0
0
0
0
0
0
0
0
0
0
0
0
0
0
0
0
0
0
0
0
0
0
0
0
0
0
0
0
0
0
0
0
0
0
0
0
0
0
0
0
0
0
0
0
0
0
0
0
0
0
0
0
0
0
0
0
0
0
0
0
0
0
0
0
0
0
0
0
0
0
0
0
0
0
0
0
0
0
0
0
0
0
0
0
0
0
0
0
0
0
0
0
0
0
0
0
0
0
0
0
0
0
0
0
0
0
0
0
0
0
0
0
0
0
0
0
0
0
0
0
0
0
0
0
0
0
0
0
0
0
0
0
0
0
0
0
0
0
0
0
0
0
0
0
0
0
0
0
0
0
0
0
0
0
0
0
0
0
0
0
0
0
0
0
0
0
0
0
0
0
0
0
0
0
0
0
0
0
0
0
0
0
0
0
0
0
0
0
0
0
0
0
0
0
0
0
0
0
0
0
0
0
0
0
0
0
0
0
0
0
0
0
0
0
0
0
0
0
0
0
0
0
0
0
0
0
0
0
0
0
0
0
0
0
0
0
0
0
0
0
0
0
0
0
0
0
0
0
0
0
0
0
0
0
0
0
0
0
0
0
0
0
0
0
0
0
0
0
0
0
0
0
0
0
0
0
0
0
0
0
0
0
0
0
0
0
0
0
0
0
0
0
0
0
0
0
0
0
0
0
0
0
0
0
0
0
0
0
0
0
0
0
0
0
0
0
0
0
0
0
0
0
0
0
0
0
0
0
0
0
0
0
0
0
0
0
0
0
0
0
0
0
0
0
0
0
0
0
0
0
0
0
0
0
0
0
0
0
0
0
0
0
0
0
0
0
0
0
0
0
0
0
0
0
0
0
0
0
0
0
0
0
0
0
0
0
0
0
0
0
0
0
0
0
0
0
0
0
0
0
0
0
0
0
0
0
0
0
0
0
0
0
0
0
0
0
0
0
0
0
0
0
0
0
0
0
0
0
0
0
0
0
0
0
0
0
0
0
0
0
0
0
0
0
0
0
0
0
0
0
0
0
0
0
0
0
0
0
0
0
0
0
0
0
0
0
0
0
0
0
0
0
0
0
0
0
0
0
0
0
0
0
0
0
0
0
0
0
0
0
0
0
0
0
0
0
0
0
0
0
0
0
0
0
0
0
0
0
0
0
0
0
0
0
0
0
0
0
0
0
0
0
0
0
0
0
0
0
0
0
0
0
0
0
0
0
0
0
0
0
0
0
0
0
0
0
0
0
0
0
0
0
0
0
0
0
0
0
0
0
0
0
0
0
0
0
0
0
0
0
0
0
0
0
0
0
0
0
0
0
0
0
0
0
0
0
0
0
0
0
0
0
0
0
0
0
0
0
0
0
0
0
0
0
0
0
0
0
0
0
0
0
0
0
0
0
0
0
0
0
0
0
0
0
0
0
0
0
0
0
0
0
0
0
0
0
0
0
0
0
0
0
0
0
0
0
0
0
0
0
0
0
0
0
0
0
0
0
0
0
0
0
0
0
0
0
0
0
0
0
0
0
0
0
0
0
0
0
0
0
0
0
0
0
0
0
0
0
0
0
0
0
0
0
0
0
0
0
0
0
0
0
0
0
0
0
0
0
0
0
0
0
0
0
0
0
0
0
0
0
0
0
0
0
0
0
0
0
0
0
0
0
0
0
0
0
0
0
0
0
0
0
0
0
0
0
0
0
0
0
0
0
0
0
0
0
0
0
0
0
0
0
0
0
0
0
0
0
0
0
0
0
0
0
0
0
0
0
0
0
0
0
0
0
0
0
0
0
0
0
0
0
0
0
0
0
0
0
0
0
0
0
0
0
0
0
0
0
0
0
0
0
0
0
0
0
0
0
0
0
0
0
0
0
0
0
0
0
0
0
0
0
0
0
0
0
0
0
0
0
0
0
0
0
0
0
0
0
0
0
0
0
0
0
0
0
0
0
0
0
0
0
0
0
0
0
0
0
0
0
0
0
0
0
0
0
0
0
0
0
0
0
0
0
0
0
0
0
0
0
0
0
0
0
0
0
0
0
0
0
0
0
0
0
0
0
0
0
0
0
0
0
0
0
0
0
0
0
0
0
0
0
0
0
0
0
0
0
0
0
0
0
0
0
0
0
0
0
0
0
0
0
0
0
0
0
0
0
0
0
0
0
0
0
0
0
0
0
0
0
0
0
0
0
0
0
0
0
0
0
0
0
0
0
0
0
0
0
0
0
0
0
0
0
0
0
0
0
0
0
0
0
0
0
0
0
0
0
0
0
0
0
0
0
0
0
0
0
0
0
0
0
0
0
0
0
0
0
0
0
0
0
0
0
0
0
0
0
0
0
0
0
0
0
0
0
0
0
0
0
0
0
0
0
0
0
0
0
0
0
0
0
0
0
0
0
0
0
0
0
0
0
0
0
0
0
0
0
0
0
0
0
0
0
0
0
0
0
0
0
0
0
0
0
0
0
0
0
0
0
0
0
0
0
0
0
0
0
0
0
0
0
0
0
0
0
0
0
0
0
0
0
0
0
0
0
0
0
0
0
0
0
0
0
0
0
0
0
0
0
0
0
0
0
0
0
0
0
0
0
0
0
0
0
0
0
0
0
0
0
0
0
0
0
0
0
0
0
0
0
0
0
0
0
0
0
0
0
0
0
0
0
0
0
0
0
0
0
0
0
0
0
0
0
0
0
0
0
0
0
0
0
0
0
0
0
0
0
0
0
0
0
0
0
0
0
0
0
0
0
0
0
0
0
0
0
0
0
0
0
0
0
0
0
0
0
0
0
0
0
0
0
0
0
0
0
0
0
0
0
0
0
0
0
0
0
0
0
0
0
0
0
0
0
0
0
0
0
0
0
0
0
0
0
0
0
0
0
0
0
0
0
0
0
0
0
0
0
0
0
0
0
0
0
0
0
0
0
0
0
0
0
0
0
0
0
0
0
0
0
0
0
0
0
0
0
0
0
0
0
0
0
0
0
0
0
0
0
0
0
0
0
0
0
0
0
0
0
0
0
0
0
0
0
0
0
0
0
0
0
0
0
0
0
0
0
0
0
0
0
0
0
0
0
0
0
0
0
0
0
0
0
0
0
0
0
0
0
0
0
0
0
0
0
0
0
0
0
0
0
0
0
0
0
0
0
0
0
0
0
0
0
0
0
0
0
0
0
0
0
0
0
0
0
0
0
0
0
0
0
0
0
0
0
0
0
0
0
0
0
0
0
0
0
0
0
0
0
0
0
0
0
0
0
0
0
0
0
0
0
0
0
0
0
0
0
0
0
0
0
0
0
0
0
0
0
0
0
0
0
0
0
0
0
0
0
0
0
0
0
0
0
0
0
0
0
0
0
0
0
0
0
0
0
0
0
0
0
0
0
0
0
0
0
0
0
0
0
0
0
0
0
0
0
0
0
0
0
0
0
0
0
0
0
0
0
0
0
0
0
0
0
0
0
0
0
0
0
0
0
0
0
0
0
0
0
0
0
0
0
0
0
0
0
0
0
0
0
0
0
0
0
0
0
0
0
0
0
0
0
0
0
0
0
0
0
0
0
0
0
0
0
0
0
0
0
0
0
0
0
0
0
0
0
0
0
0
0
0
0
0
0
0
0
0
0
0
0
0
0
0
0
0
0
0
0
0
0
0
0
0
0
0
0
0
0
0
0
0
0
0
0
0
0
0
0
0
0
0
0
0
0
0
0
0
0
0
0
0
0
0
0
0
0
0
0
0
0
0
0
0
0
0
0
0
0
0
0
0
0
0
0
0
0
0
0
0
0
0
0
0
0
0
0
0
0
0
0
0
0
0
0
0
0
0
0
0
0
0
0
0
0
0
0
0
0
0
0
0
0
0
0
0
0
0
0
0
0
0
0
0
0
0
0
0
0
0
0
0
0
0
0
0
0
0
0
0
0
0
0
0
0
0
0
0
0
0
0
0
0
0
0
0
0
0
0
0
0
0
0
0
0
0
0
0
0
0
0
0
0
0
0
0
0
0
0
0
0
0
0
0
0
0
0
0
0
0
0
0
0
0
0
0
0
0
0
0
0
0
0
0
0
0
0
0
0
0
0
0
0
0
0
0
0
0
0
0
0
0
0
0
0
0
0
0
0
0
0
0
0
0
0
0
0
0
0
0
0
0
0
0
0
0
0
0
0
0
0
0
0
0
0
0
0
0
0
0
0
0
0
0
0
0
0
0
0
0
0
0
0
0
0
0
0
0
0
0
0
0
0
0
0
0
0
0
0
0
0
0
0
0
0
0
0
0
0
0
0
0
0
0
0
0
0
0
0
0
0
0
0
0
0
0
0
0
0
0
0
0
0
0
0
0
0
0
0
0
0
0
0
0
0
0
0
0
0
0
0
0
0
0
0
0
0
0
0
0
0
0
0
0
0
0
0
0
0
0
0
0
0
0
0
0
0
0
0
0
0
0
0
0
0
0
0
0
0
0
0
0
0
0
0
0
0
0
0
0
0
0
0
0
0
0
0
0
0
0
0
0
0
0
0
0
0
0
0
0
0
0
0
0
0
0
0
0
0
0
0
0
0
0
0
0
0
0
0
0
0
0
0
0
0
0
0
0
0
0
0
0
0
0
0
0
0
0
0
0
0
0
0
0
0
0
0
0
0
0
0
0
0
0
0
0
0
0
0
0
0
0
0
0
0
0
0
0
0
0
0
0
0
0
0
0
0
0
0
0
0
0
0
0
0
0
0
0
0
0
0
0
0
0
0
0
0
0
0
0
0
0
0
0
0
0
0
0
0
0
0
0
0
0
0
0
0
0
0
0
0
0
0
0
0
0
0
0
0
0
0
0
0
0
0
0
0
0
0
0
0
0
0
0
0
0
0
0
0
0
0
0
0
0
0
0
0
0
0
0
0
0
0
0
0
0
0
0
0
0
0
0
0
0
0
0
0
0
0
0
0
0
0
0
0
0
0
0
0
0
0
0
0
0
0
0
0
0
0
0
0
0
0
0
0
0
0
0
0
0
0
0
0
0
0
0
0
0
0
0
0
0
0
0
0
0
0
0
0
0
0
0
0
0
0
0
0
0
0
0
0
0
0
0
0
0
0
0
0
0
0
0
0
0
0
0
0
0
0
0
0
0
0
0
0
0
0
0
0
0
0
0
0
0
0
0
0
0
0
0
0
0
0
0
0
0
0
0
0
0
0
0
0
0
0
0
0
0
0
0
0
0
0
0
0
0
0
0
0
0
0
0
0
0
0
0
0
0
0
0
0
0
0
0
0
0
0
0
0
0
0
0
0
0
0
0
0
0
0
0
0
0
0
0
0
0
0
0
0
0
0
0
0
0
0
0
0
0
0
0
0
0
0
0
0
0
0
0
0
0
0
0
0
0
0
0
0
0
0
0
0
0
0
0
0
0
0
0
0
0
0
0
0
0
0
0
0
0
0
0
0
0
0
0
0
0
0
0
0
0
0
0
0
0
0
0
0
0
0
0
0
0
0
0
0
0
0
0
0
0
0
0
0
0
0
0
0
0
0
0
0
0
0
0
0
0
0
0
0
0
0
0
0
0
0
0
0
0
0
0
0
0
0
0
0
0
0
0
0
0
0
0
0
0
0
0
0
0
0
0
0
0
0
0
0
0
0
0
0
0
0
0
0
0
0
0
0
0
0
0
0
0
0
0
0
0
0
0
0
0
0
0
0
0
0
0
0
0
0
0
0
0
0
0
0
0
0
0
0
0
0
0
0
0
0
0
0
0
0
0
0
0
0
0
0
0
0
0
0
0
0
0
0
0
0
0
0
0
0
0
0
0
0
0
0
0
0
0
0
0
0
0
0
0
0
0
0
0
0
0
0
0
0
0
0
0
0
0
0
0
0
0
0
0
0
0
0
0
0
0
0
0
0
0
0
0
0
0
0
0
0
0
0
0
0
0
0
0
0
0
0
0
0
0
0
0
0
0
0
0
0
0
0
0
0
0
0
0
0
0
0
0
0
0
0
0
0
0
0
0
0
0
0
0
0
0
0
0
0
0
0
0
0
0
0
0
0
0
0
0
0
0
0
0
0
0
0
0
0
0
0
0
0
0
0
0
0
0
0
0
0
0
0
0
0
0
0
0
0
0
0
0
0
0
0
0
0
0
0
0
0
0
0
0
0
0
0
0
0
0
0
0
0
0
0
0
0
0
0
0
0
0
0
0
0
0
0
0
0
0
0
0
0
0
0
0
0
0
0
0
0
0
0
0
0
0
0
0
0
0
0
0
0
0
0
0
0
0
0
0
0
0
0
0
0
0
0
0
0
0
0
0
0
0
0
0
0
0
0
0
0
0
0
0
0
0
0
0
0
0
0
0
0
0
0
0
0
0
0
0
0
0
0
0
0
0
0
0
0
0
0
0
0
0
0
0
0
0
0
0
0
0
0
0
0
0
0
0
0
0
0
0
0
0
0
0
0
0
0
0
0
0
0
0
0
0
0
0
0
0
0
0
0
0
0
0
0
0
0
0
0
0
0
0
0
0
0
0
0
0
0
0
0
0
0
0
0
0
0
0
0
0
0
0
0
0
0
0
0
0
0
0
0
0
0
0
0
0
0
0
0
0
0
0
0
0
0
0
0
0
0
0
0
0
0
0
0
0
0
0
0
0
0
0
0
0
0
0
0
0
0
0
0
0
0
0
0
0
0
0
0
0
0
0
0
0
0
0
0
0
0
0
0
0
0
0
0
0
0
0
0
0
0
0
0
0
0
0
0
0
0
0
0
0
0
0
0
0
0
0
0
0
0
0
0
0
0
0
0
0
0
0
0
0
0
0
0
0
0
0
0
0
0
0
0
0
0
0
0
0
0
0
0
0
0
0
0
0
0
0
0
0
0
0
0
0
0
0
0
0
0
0
0
0
0
0
0
0
0
0
0
0
0
0
0
0
0
0
0
0
0
0
0
0
0
0
0
0
0
0
0
0
0
0
0
0
0
0
0
0
0
0
0
0
0
0
0
0
0
0
0
0
0
0
0
0
0
0
0
0
0
0
0
0
0
0
0
0
0
0
0
0
0
0
0
0
0
0
0
0
0
0
0
0
0
0
0
0
0
0
0
0
0
0
0
0
0
0
0
0
0
0
0
0
0
0
0
0
0
0
0
0
0
0
0
0
0
0
0
0
0
0
0
0
0
0
0
0
0
0
0
0
0
0
0
0
0
0
0
0
0
0
0
0
0
0
0
0
0
0
0
0
0
0
0
0
0
0
0
0
0
0
0
0
0
0
0
0
0
0
0
0
0
0
0
0
0
0
0
0
0
0
0
0
0
0
0
0
0
0
0
0
0
0
0
0
0
0
0
0
0
0
0
0
0
0
0
0
0
0
0
0
0
0
0
0
0
0
0
0
0
0
0
0
0
0
0
0
0
0
0
0
0
0
0
0
0
0
0
0
0
0
0
0
0
0
0
0
0
0
0
0
0
0
0
0
0
0
0
0
0
0
0
0
0
0
0
0
0
0
0
0
0
0
0
0
0
0
0
0
0
0
0
0
0
0
0
0
0
0
0
0
0
0
0
0
0
0
0
0
0
0
0
0
0
0
0
0
0
0
0
0
0
433.973
829.544
1157.1
1347.68
391.509
2476.88
734.119
606.86
99.1822
354.547
1465.57
3654.84
767.694
1783.48
3261.26
2737.3
1776.88
1109.66
1217.33
279.657
775.554
979.704
2410.13
1061.59
1109.82
2927.72
3430.49
1744.42
1055.66
596.615
1307.13
1202.47
1526.28
1126.29
2918.23
4252.62
3542.81
4146.44
3230.07
3208.89
4746.85
5048.61
1278.6
2685.3
1665.45
375.421
1282.9
3312.61
4364.87
726.957
2112.34
731.132
5137.2
870.38
3831.2
276.369
1861.25
370.915
266.612
1183.91
1624.05
233.187
504.165
3013.36
248.921
313.038
2503.35
2844.3
559.264
560.692
107.912
1429.54
57.6108
690.503
60.3065
1501.44
82.9814
86.3422
0
36.2833
170.231
154.034
85.0922
211.098
3607.39
1162.37
1396.19
6412.14
6643.78
2855.17
3567.71
4858.99
3331.38
2270.13
5509.93
2606.59
3367.53
1211.19
1373.37
297.553
715.931
1538.4
2871.54
87.3534
689.571
3219.09
5621.26
8211.87
2131.92
5774.63
9291.71
6674.1
1569.78
4876.82
3392.8
537.417
317.238
4787.39
1172.92
396.746
1174.22
457.41
60.8598
216.919
94.5479
103.7
3999.24
293.058
1230.82
3986.05
5378.79
2833.17
3706.48
5746.21
9689.4
2993.52
6849.47
3076.71
7786.52
587.849
35.1448
1800.07
110.93
35.7757
5.71579
878.615
56.4412
68.7088
19.1954
183.688
0.781742
549.272
37.3226
77.1827
4505.08
7189
1917.28
3093.81
953.131
5133.05
264.833
525.234
8696.3
359.962
5328.57
323.984
9684.66
2368.08
0
304.577
52.8718
25.1254
1.50338e-12
322.258
167.682
830.824
29.8302
25.6905
311.619
273.554
26.1569
60.6836
252.014
2127.65
119.567
1182.4
102.344
670.377
131.942
1384.75
6489.95
6398.83
6322.68
3627.33
7252.1
7513.36
40.7689
527.725
145.768
101.534
65.1732
298.707
98.2338
205.991
34.7578
149.181
273.449
222.925
65.1494
350.023
65.8948
671.82
50.0154
1414.43
109.368
1391.55
58.037
2136.17
5465.57
1923.17
1154.35
1555.24
459.638
589.233
120.299
437.856
269.787
245.901
205.808
195.602
179.06
674.84
810.573
1178.21
267.409
169.453
1200.05
392.262
2215.99
6286.83
1128.29
3264.51
1752.26
5826.31
4105.22
3025.86
247.657
427.554
654.941
1350.09
34.7606
56.8659
989.116
693.39
488.048
234.253
359.774
231.046
299.296
16.9651
139.29
45.6095
84.1845
7.64247
57.5859
17.9553
117.143
279.255
333.166
17.3366
10.3183
23.3775
24.8626
55.7776
36.0934
26.991
44.6747
19.2857
26.7797
13.7248
8.29948
3.84643
12.2577
23.5321
12.7942
16.7468
6.05485
0
5.55923
1.3707
0
0
0
0
11.3728
27.5328
18.0547
4.53587
6.44482
10.4961
13.7144
7.42433
14.2047
2.42385
16.2861