/*--------------------------------*- C++ -*----------------------------------*\
| =========                 |                                                 |
| \\      /  F ield         | OpenFOAM: The Open Source CFD Toolbox           |
|  \\    /   O peration     | Version:  5.x                                   |
|   \\  /    A nd           | Web:      www.OpenFOAM.org                      |
|    \\/     M anipulation  |                                                 |
\*---------------------------------------------------------------------------*/
FoamFile
{
    version     2.0;
    format      ascii;
    class       volScalarField;
    location    "0.25";
    object      voidfraction;
}
// * * * * * * * * * * * * * * * * * * * * * * * * * * * * * * * * * * * * * //

dimensions      [0 0 0 0 0 0 0];

internalField   nonuniform List<scalar> 
10571
(
0.999361
0.945307
0.978955
0.97988
0.966286
0.970496
0.977965
0.977127
0.932372
0.958085
0.996912
0.991484
0.995336
0.928781
0.938331
0.953488
0.973979
0.982528
0.97925
0.942044
0.947659
0.955932
0.976434
0.960899
1
0.96565
0.999099
0.995261
0.993759
0.998166
0.999456
0.997923
0.984627
0.981432
1
0.997006
0.99902
0.997436
0.987747
0.970787
0.992133
0.993182
0.996614
0.976188
0.979898
0.982902
0.989453
0.986076
0.998906
0.93809
0.995009
0.993394
0.994167
0.99808
0.999564
0.997177
0.990734
0.981633
1
0.998084
0.997544
0.998221
0.99161
0.978897
0.99215
0.994592
0.995776
0.98539
0.980905
0.978914
0.989174
0.9782
0.993407
0.951438
0.99607
0.998823
0.988454
0.997679
0.991664
0.995594
0.992417
0.986458
0.996923
0.999024
0.998464
0.998876
0.99261
0.980097
0.99325
0.995569
0.996871
0.985895
0.989222
0.976865
0.997497
0.986911
0.987908
0.941424
0.993831
0.996688
0.994972
0.997502
0.99756
0.998174
0.992716
0.988319
0.9989
0.998885
0.996564
0.997627
0.993343
0.974
0.99519
0.995999
0.995839
0.989273
0.98271
0.965814
0.991697
0.989697
1
0.957097
0.997706
0.996038
0.992933
0.997703
0.999221
0.996176
0.993783
0.979987
0.67682
0.9989
0.998343
0.999586
0.99902
0.992938
0.980216
0.496739
0.996993
0.997847
0.99679
0.995504
0.985226
0.953652
0.994413
0.987939
0.996812
0.971993
0.998819
0.996376
0.992139
0.99804
0.999777
0.993302
0.996765
0.98183
1
0.996811
0.998173
0.99879
0.997021
0.992994
0.978544
1
0.990376
0.997928
0.995997
0.99398
0.989279
1
0.981375
0.998369
0.983285
0.993624
0.970033
0.997975
0.996648
0.995824
0.99902
0.99985
0.996971
0.996894
0.986581
1
1
0.994756
0.998778
0.998439
0.994059
0.978508
1
0.996692
0.99641
0.997343
0.99002
0.976982
1
0.962015
0.988465
0.994345
0.995603
0.972442
0.999021
0.996411
0.996654
0.998817
0.999221
0.998887
0.997193
0.993134
1
0.993622
0.993944
0.996044
0.998019
0.994754
0.987503
1
0.994887
0.995872
0.997883
0.995923
0.970103
0.974367
0.992238
0.986632
1
0.974852
0.998043
0.996109
0.990155
0.994966
0.998211
0.998788
0.996987
0.983936
0.996701
0.994791
0.998644
0.997703
0.995033
0.979062
0.994497
0.997941
0.996476
0.994185
0.969341
0.980331
0.99387
0.988511
1
0.976647
0.997875
0.998378
0.998438
0.994899
0.995842
0.996617
0.995577
0.99381
1
0.99743
0.998771
0.995802
0.994533
0.976227
0.99131
0.997967
0.996881
0.998029
0.982143
0.983119
0.996497
0.993839
0.997691
0.974016
0.998011
0.997398
0.995224
0.996555
0.999519
0.99512
0.994671
0.987411
0.992523
0.997059
0.999203
0.998873
0.993761
0.978395
0.990318
0.997884
0.998367
0.998398
0.98273
0.97224
0.995048
0.99363
0.997801
0.988072
0.999663
0.996115
0.99276
0.995306
0.996829
0.995836
0.995938
0.992791
0.980978
0.998141
0.998996
0.998192
0.991409
0.974002
0.991431
0.9975
0.997748
0.997763
0.98446
0.9813
0.993025
0.985998
0.987796
0.977936
0.995617
0.995439
0.991258
0.998683
0.999107
0.99607
0.9966
0.983679
0.990434
0.997397
0.99855
0.9988
0.992178
0.976358
0.992514
0.998571
0.997388
0.995793
0.978646
0.977622
0.991062
0.990548
1
0.980624
1
0.991993
0.995283
0.998041
0.999184
0.997931
0.995594
0.995852
0.994062
0.995166
0.9963
0.996724
0.993576
0.981618
0.995129
0.995672
0.995759
0.994525
0.983197
0.978203
0.992572
0.989218
0.998021
0.986168
0.997438
0.996081
0.995253
0.99615
0.998623
0.998423
0.997133
0.98271
0.993733
0.997093
0.998146
0.995989
0.992275
0.974755
0.990108
0.995587
0.994619
0.997129
0.978156
0.976074
0.999245
0.994679
1
0.989865
0.998045
1
0.994261
0.999966
0.998253
0.997275
0.996155
0.988562
0.993623
0.999054
0.996265
0.996097
0.992915
0.981738
0.993506
0.994218
0.995577
0.994191
0.981934
0.981843
0.997554
0.997199
1
0.979897
0.99282
0.997804
0.996725
1
0.997604
0.998043
0.996042
0.994727
1
0.99902
0.998577
0.996504
0.992417
0.978956
0.996483
0.994254
0.997667
0.993624
0.98607
0.977742
0.999698
0.99797
0.99978
0.986281
0.998888
0.99902
0.997657
0.999055
0.994884
0.997709
0.993486
0.981667
1
0.998682
0.997819
0.997383
0.993081
0.973853
0.991372
0.994747
0.99658
0.991888
0.9853
0.977471
0.999426
0.99601
0.999121
0.993672
0.997708
0.993481
0.99961
0.998075
0.99578
0.993875
0.994399
0.992985
1
0.996925
0.998254
0.997781
0.99163
0.973672
0.99516
0.997299
0.998015
0.990186
0.99188
0.991638
0.997947
0.99391
1
0.990482
0.991101
0.997399
0.996485
0.998751
0.995262
0.996542
0.994185
0.992014
1
0.995809
0.999
0.997537
0.99007
0.967324
0.99522
0.995825
0.997065
0.996695
0.98964
0.977197
0.997735
0.9965
1
0.997424
0.994843
0.999156
0.994533
0.997974
0.997787
0.997755
0.994112
0.992518
1
0.997702
0.992315
0.998467
0.989401
0.967626
0.996483
0.993402
0.997696
0.99536
0.98432
0.977584
0.999306
0.99286
1
0.991153
0.996933
0.998041
0.998828
0.997907
0.998485
0.996588
0.996999
0.99465
0.993733
0.99706
0.997423
0.998385
0.989466
0.954114
0.995641
0.994069
0.994983
0.993858
0.98502
0.9801
0.998521
0.99202
1
0.977882
0.99909
0.999358
0.997116
0.997434
0.993724
0.997517
0.995162
0.990658
1
0.99902
0.997008
0.999171
0.989296
0.953328
0.996723
0.994198
0.996835
0.993023
0.98873
0.982114
0.999306
0.99419
1
0.981076
0.999798
1
0.998919
1
0.995475
0.997156
0.993716
0.999535
1
0.997972
0.999077
0.999311
0.988757
0.940088
0.996994
0.99635
0.996612
0.99309
0.97585
0.977623
0.999426
0.99321
1
0.966966
0.999157
0.998446
0.999159
0.998008
0.993781
0.99683
0.997807
0.987828
1
0.999561
0.999442
0.999663
0.989904
0.933861
0.996182
0.996766
0.996814
0.99566
0.97977
0.980408
0.997404
0.98082
1
0.978612
0.992179
0.998683
0.996215
0.999966
0.994373
0.995951
0.997145
0.992867
1
1
0.995973
0.999125
0.988408
0.937459
0.994829
0.995437
0.996196
0.99546
0.99216
0.967327
0.999124
0.98096
0.996151
0.983875
0.997978
1
0.996966
0.999021
0.990054
0.997985
0.996612
0.992519
1
1
0.997108
0.999555
0.988116
0.919866
0.996061
0.996233
0.996572
0.995393
0.99671
0.970617
0.996467
0.9825
0.998131
0.986505
0.999798
0.998683
0.996305
0.996421
0.991091
0.996653
0.989879
0.992945
1
1
0.998454
0.999888
0.987974
0.93495
0.993386
0.997065
0.997821
0.996662
0.99349
0.976037
0.998188
0.98418
1
0.993505
0.998483
0.998041
0.994323
0.992099
0.997562
0.994524
0.99473
0.993913
1
1
0.988107
0.999888
0.986876
0.900127
0.992695
0.996156
0.997732
0.995994
0.98131
0.984593
0.996618
0.9818
1
0.99188
0.997674
0.988582
0.992218
0.996285
0.998176
0.99617
0.994528
0.992439
1
0.997465
0.993704
0.999655
0.985178
0.899393
0.997565
0.996629
0.997987
0.994559
0.99181
0.976811
0.997947
0.99412
1
0.996696
0.996427
0.991656
0.998798
0.995307
0.99765
0.99868
0.995178
0.995425
1
0.968398
0.997365
0.998788
0.98155
0.922405
0.998106
0.997307
0.999103
0.992923
0.99265
0.978089
0.999819
0.99601
1
0.995241
0.998315
0.998041
0.995793
0.997062
0.998638
0.999493
0.996075
0.996627
0.996812
0.994559
0.998454
0.998285
0.977294
0.919473
0.998256
0.997795
0.9977
0.994258
0.98712
0.992877
1
0.98691
0.996811
0.995239
0.997
0.998378
0.999069
0.998852
0.998527
0.995587
0.995974
0.994029
1
0.999324
0.996834
0.999028
0.976167
0.926153
0.997564
0.997416
0.998828
0.994358
0.98481
0.975222
0.998218
0.98516
0.996811
0.99804
0.996494
0.99902
0.998528
0.999291
0.998371
0.995736
0.995574
0.994921
1
0.99902
0.995073
0.99926
0.969232
0.918989
0.998286
0.995583
0.997578
0.994425
0.97704
0.974601
0.999155
0.991039
0.996922
0.997312
0.999225
1
0.999129
1
0.99459
0.995011
0.996313
0.996394
1
0.99875
0.996019
0.997913
0.966934
0.9188
0.998948
0.992692
0.997344
0.992389
0.9818
0.979018
0.99686
0.98488
1
0.996864
0.996528
0.997061
0.998978
0.999797
0.997455
0.995234
0.993445
0.998333
1
0.999256
0.9956
0.986115
0.954572
0.927374
0.997444
0.992114
0.996649
0.990753
0.9965
0.974717
0.995893
0.98068
1
0.995912
0.999865
0.999662
0.994772
1
0.988402
0.993852
0.993821
0.992517
1
1
0.989553
0.987567
0.955675
0.942703
0.999128
0.994787
0.993443
0.994158
0.977947
0.986451
0.998249
0.97788
1
0.995576
0.999595
0.999358
0.999279
0.999358
0.992671
0.995686
0.994984
0.995115
1
0.99902
0.998669
0.997154
0.947487
0.917591
1
0.993842
0.992234
0.984311
0.97613
0.970881
0.993629
0.98957
0.997471
0.99832
0.999022
1
0.999129
1
0.999084
0.996723
0.993692
0.996473
1
1
0.990319
0.991335
0.944156
0.931171
0.998737
0.99142
0.988729
0.975131
0.96234
0.978979
0.994565
0.977737
1
0.998152
0.999022
1
1
0.998041
0.998607
0.996865
0.995162
0.997093
1
0.998986
0.989884
0.988574
0.931911
0.922768
0.999699
0.994622
0.990087
0.962446
0.97389
0.98765
0.994083
0.97998
1
0.990929
1
1
0.997086
0.999358
0.998234
0.990701
0.994132
0.995504
1
0.998276
0.995838
0.995783
0.927412
0.934738
0.999128
0.997303
0.988879
0.947257
0.97837
0.989623
0.993358
0.98124
1
0.99552
0.997068
1
0.997867
1
0.994212
0.998626
0.996987
0.99876
1
1
0.999746
0.998548
0.914312
0.921921
0.999429
0.996402
0.986307
0.933737
0.942879
0.980721
0.984177
0.97494
1
0.991601
0.995686
1
0.998648
0.998784
0.99071
0.997874
0.997044
0.997016
1
1
0.998642
0.997805
0.913193
0.893658
1
0.994561
0.986542
0.942884
0.932239
0.978238
0.979644
0.972977
1
0.997368
0.999023
0.99902
0.99967
0.99686
0.997959
0.99863
0.995764
0.993836
1
1
0.998254
0.993755
0.9131
0.860655
0.999128
0.995231
0.983429
0.944386
0.873074
0.989313
0.978527
0.950084
0.997911
1
0.998315
0.998683
0.999159
0.995138
0.998016
0.998093
0.994269
0.994998
1
1
0.997661
0.998157
0.910656
0.811873
0.998256
0.993725
0.980114
0.9314
0.853472
0.999109
0.968536
0.91978
1
0.996639
0.997067
0.997703
0.999129
0.999966
0.995941
0.994831
0.991071
0.985228
1
1
0.99288
0.998207
0.899344
0.745052
1
0.997218
0.973565
0.865872
0.793895
0.990203
0.971374
0.884919
1
0.99944
0.999022
1
0.998257
1
0.995983
0.992033
0.995953
0.997325
1
1
0.997688
0.994583
0.86584
0.673756
0.999008
0.996083
0.958105
0.756446
0.753682
0.998877
0.966842
0.808759
1
1
1
1
0.999129
1
0.997665
0.988732
0.996814
0.995076
0.996591
1
0.996538
0.991513
0.826366
0.607751
0.999248
0.997069
0.940309
0.64532
0.737119
0.997754
0.969376
0.774713
1
0.998432
0.99764
0.999797
1
0.997468
0.998241
0.993453
0.996991
0.990539
1
0.999493
0.998261
0.992368
0.783196
0.52941
0.999699
0.995635
0.918123
0.550784
0.757099
0.99849
0.974027
0.739709
0.99956
1
1
0.998041
0.99997
0.995712
0.999557
0.996527
0.998498
0.9962
0.99813
1
0.999442
0.994351
0.770975
0.578379
0.99982
0.998555
0.907337
0.468398
0.675618
0.998916
0.985628
0.697528
1
0.997816
1
0.998041
1
0.998379
0.999447
0.997797
0.99811
0.996627
1
0.99804
0.999442
0.994808
0.759562
0.556857
0.999429
0.999851
0.904123
0.489495
0.678768
0.99849
0.985901
0.734418
1
0.998264
0.999663
0.99642
0.999129
0.996927
0.999668
0.999355
0.998482
0.995736
1
1
0.999777
0.995141
0.752501
0.598088
0.998377
0.99918
0.892387
0.50909
0.680168
0.99849
0.988466
0.782974
1
0.998376
0.999022
0.996082
0.99997
0.999021
0.999489
0.999816
0.998829
0.995504
1
1
0.999592
0.997112
0.762776
0.622573
0.99997
0.99941
0.893895
0.475875
0.732458
0.997484
0.995652
0.740759
1
1
0.998989
1
0.999129
0.998008
0.999592
0.999777
0.999136
0.995543
1
1
0.9996
0.99976
0.78795
0.678011
0.999128
0.999136
0.900117
0.498675
0.724478
0.99849
0.994475
0.758638
1
0.998376
0.999461
0.997906
0.998829
0.999156
0.999153
0.999777
0.999673
0.989535
1
0.99902
0.999662
0.999775
0.815021
0.756543
0.99997
0.999297
0.917889
0.525447
0.741768
0.997755
0.997434
0.786989
1
1
0.996124
0.999797
0.998528
0.995205
0.999107
0.999689
0.999156
0.998372
1
0.99804
0.999
0.999303
0.823801
0.874604
1
0.999766
0.931675
0.545144
0.695955
0.995819
0.997313
0.857269
1
0.998376
1
1
1
0.998548
0.998493
0.999397
0.999455
0.999961
0.993622
0.99706
0.999465
0.999218
0.843802
0.961637
1
0.99952
0.958615
0.496502
0.730508
1
0.999245
0.879768
1
1
0.998989
0.99902
0.997206
0.992808
0.998993
0.999666
0.999055
0.996163
0.99912
0.99706
0.999665
0.99921
0.87418
0.984133
0.999128
0.998615
0.981461
0.522391
0.616918
0.998916
0.990095
0.933548
0.996811
0.996191
0.998045
0.998784
0.999129
0.999797
0.998901
0.999409
0.99931
0.995509
1
1
0.999246
0.999872
0.900048
0.982073
0.998256
0.999233
0.989902
0.541035
0.648859
0.995624
0.993688
0.938319
0.997911
0.998432
0.998246
1
0.998559
0.996926
0.998468
0.999393
0.998825
0.995053
1
0.997126
0.999438
0.999325
0.928939
0.982541
0.998256
0.998263
0.993743
0.528506
0.646406
0.997909
0.988767
0.933853
0.997251
1
0.998044
0.998952
0.996481
0.998986
0.99824
0.999096
0.998113
0.987908
1
0.997599
0.99951
0.999774
0.951418
0.970166
0.997384
0.999122
0.997177
0.569246
0.661424
0.997367
0.988676
0.9218
0.99967
0.998712
0.995513
0.996072
0.996315
0.998986
0.99834
0.999047
0.99888
0.991396
0.993621
0.996178
0.999308
0.999659
0.969947
0.969831
1
0.998526
0.99849
0.998488
0.666044
0.609659
0.996863
0.989008
0.878386
1
1
0.994397
0.99712
0.99558
0.996249
0.998432
0.999128
0.998993
0.990018
1
1
0.997632
0.999104
0.999886
0.971827
0.992344
1
0.998256
0.99817
0.998252
0.741923
0.728371
0.992526
0.960652
0.829846
0.996812
0.991877
0.997064
0.997834
0.996094
0.997871
0.998743
0.999408
0.997407
0.987551
0.997634
1
0.995872
0.999552
0.999664
0.972239
0.999061
0.964996
0.995488
0.997899
0.998146
0.83186
0.798977
0.999043
0.983739
0.947575
0.805517
0.996812
0.997144
0.992509
0.998174
0.993312
0.995743
0.99967
0.999775
0.999387
0.985659
0.972593
0.993513
0.997294
0.999776
0.999659
0.979644
1
0.863579
0.998256
0.998716
0.998399
0.920159
0.924346
0.964343
0.914575
0.803356
0.993953
0.991376
0.990826
0.995976
0.978497
0.994865
0.999797
1
0.999692
0.914655
0.986367
0.998038
0.999776
0.999742
0.989749
0.996608
0.734229
0.976546
0.999097
0.997544
0.948923
0.9235
0.910378
0.888009
0.845146
0.96087
0.959629
0.982602
1
0.938625
0.944543
0.999981
0.999888
0.999359
0.834954
0.965695
0.929104
0.999904
0.999848
0.994134
0.974315
0.721626
0.954251
0.995456
0.966422
0.968227
0.613777
0.910677
0.939357
0.780585
0.794457
0.638527
0.940516
0.622875
0.822645
0.997817
1
0.998332
0.929334
0.880812
0.948758
0.99928
0.999992
0.995941
0.976158
0.973275
0.974067
0.998253
0.982572
0.950461
0.972942
0.961324
0.935856
1
1
0.997877
0.999932
1
1
0.973429
0.999973
0.997993
0.979653
1
0.996587
0.983007
1
0.992784
0.978796
1
0.974713
0.99227
0.996094
0.946737
1
0.939193
0.8823
1
1
1
0.999359
1
1
0.984001
0.976537
0.990483
0.971003
1
1
0.975901
0.987546
0.996715
0.985778
1
0.988918
0.976762
1
0.92568
1
0.999517
0.930949
1
1
1
1
1
1
1
0.987159
0.982184
0.996289
1
1
0.999491
0.954006
0.972259
0.979916
1
0.999812
0.983984
0.903685
0.869625
0.998879
0.999126
0.999301
1
1
1
1
1
1
1
1
0.999686
1
1
1
1
0.999397
0.986017
0.988377
1
1
0.999592
0.997358
0.974323
1
1
0.997178
1
1
1
1
1
1
1
1
1
1
1
1
1
1
1
1
1
1
1
0.998467
0.998147
1
0.999191
0.999936
1
1
1
1
1
1
1
1
1
1
1
1
1
1
1
0.998256
1
1
0.998787
0.998746
0.995625
1
0.999014
0.997411
0.548068
0.655345
0.538393
0.555993
0.666417
0.572484
0.580348
0.553815
0.544862
0.539327
0.53915
0.550965
0.573822
0.526108
0.528176
0.51975
0.51587
0.528986
0.511927
0.521061
0.502408
0.512989
0.507012
0.50514
0.491973
0.515478
0.546585
0.635537
0.578701
0.509052
0.530716
0.525656
0.533175
0.526381
0.503521
0.523424
0.490573
0.471993
0.48616
0.464235
0.480346
0.483207
0.471519
0.490453
0.491203
0.514534
0.49558
0.559975
0.653675
0.561598
0.591935
0.555094
0.551071
0.529908
0.553588
0.503968
0.456304
0.543573
0.486328
0.455699
0.481777
0.466147
0.486435
0.49249
0.483701
0.482386
0.478156
0.476029
0.515175
0.488184
0.573109
0.527566
0.518207
0.544234
0.53144
0.529064
0.506955
0.503492
0.488969
0.524228
0.493421
0.498722
0.497531
0.482037
0.493619
0.479285
0.489815
0.493266
0.552541
0.519339
0.504726
0.587321
0.532321
0.531769
0.609955
0.515214
0.967014
0.987682
0.986157
0.981744
0.991302
1
0.996248
0.993737
0.989703
0.990162
1
0.99732
0.998703
0.979714
0.986739
0.971257
0.997174
0.966596
0.970694
0.989413
0.949036
0.98377
0.985205
0.998973
0.949261
0.961696
0.950818
0.988442
0.982326
0.991569
0.990146
0.966757
0.97563
0.98488
0.997125
0.991402
0.997616
1
0.996691
0.951083
0.97699
0.981251
0.977045
0.984508
0.992576
0.991235
0.996924
0.998933
0.996282
0.986156
0.955561
0.975762
0.979844
0.985736
0.982149
1
0.960833
0.967754
0.970965
0.995292
0.977818
0.987714
0.983259
0.940059
0.949999
0.941395
0.982668
0.975678
0.983716
0.98346
0.984284
0.955957
0.964439
0.960762
0.965826
0.9816
0.985876
0.994593
0.98001
0.982649
0.990601
0.991974
0.995759
0.984102
0.986434
0.990267
1
0.996797
0.995193
1
0.996674
0.996543
0.994387
0.994955
0.993701
0.996601
0.995614
0.98921
0.994075
0.997289
0.992517
0.983766
0.991064
0.998869
0.962563
0.981432
0.987729
0.99482
0.994751
0.991767
0.992689
0.988902
0.981599
0.995193
0.990264
0.990198
0.978822
0.993299
0.996034
0.997352
0.996711
1
0.997429
0.972675
0.984126
0.989303
0.973669
0.97967
0.99833
0.997495
1
0.997133
0.996709
0.989385
0.980362
0.967839
0.976746
0.973936
0.995498
0.99346
0.983797
0.990771
0.983001
0.995175
0.988433
0.986083
0.984294
0.974629
0.989533
0.973517
0.985465
0.979118
0.982811
0.984858
0.984875
0.9456
0.966301
0.991374
0.991537
0.973183
0.983201
0.990774
0.992277
0.995394
0.997304
0.99556
0.994139
0.980706
0.992889
0.988467
0.996827
0.996667
0.994759
0.995719
0.993254
0.997348
0.998262
0.997777
0.992646
0.996472
0.998149
0.999931
0.99006
0.989994
0.99264
0.982379
0.991546
0.996184
0.949384
0.985647
0.991026
0.997907
0.983865
0.997232
0.982667
0.991425
0.986555
0.995006
0.98832
0.979482
0.98445
0.99318
1
0.990955
0.996144
1
0.995659
0.975324
0.983465
0.976802
0.973829
0.968443
0.997723
0.997777
1
0.999125
0.998881
0.991355
0.985515
0.979033
0.977696
0.987397
0.997305
0.988596
0.989469
0.987474
0.987972
0.993962
0.985892
0.981052
0.985515
0.977041
0.988364
0.994347
0.989039
0.972761
0.993523
0.982528
0.975902
0.952699
0.957575
0.987647
0.991588
0.979455
0.994306
0.996822
0.995043
0.992353
0.98762
0.99687
0.992986
0.992805
0.975141
0.964045
1
0.978475
0.992141
0.993734
0.965767
0.991073
0.996311
0.997796
0.996812
0.997548
0.998762
0.996308
0.993515
0.997147
0.985933
0.981589
0.987247
0.994234
0.940261
0.978868
0.982525
0.997889
0.989497
0.992878
0.989151
0.992847
0.991
0.993404
0.985901
0.98379
0.993288
0.99312
0.993626
0.994166
0.99528
0.999011
0.9862
0.971821
0.978748
0.979056
0.967436
0.962366
0.995887
0.998453
1
0.995852
0.995665
0.975245
0.992047
0.979257
0.970264
0.985466
0.991288
0.985913
0.989791
0.979151
0.990029
0.995553
0.991207
0.974187
0.987081
0.988265
0.994533
0.99288
0.992212
0.988227
0.983992
0.990721
0.981229
0.949099
0.946483
0.987243
0.993528
0.968992
0.991513
0.986282
0.990941
0.996819
0.990399
0.99411
0.997805
0.989213
0.975537
0.960619
0.991534
0.990558
0.996548
0.992193
0.985564
0.997547
0.994881
0.996205
0.997032
0.998939
0.994614
0.995116
0.99253
0.985443
0.985024
0.97568
0.983647
0.99099
0.954131
0.985769
0.976372
0.998405
0.996678
0.995398
0.989222
0.997286
0.991559
0.986219
0.983039
0.990367
0.980657
0.993537
0.997911
0.994126
0.996401
1
0.99679
0.978582
0.981587
0.969391
0.980329
0.951333
0.997425
0.997522
0.997911
0.992335
0.986795
0.974196
0.984723
0.988159
0.952964
0.993787
0.997977
0.997907
0.99265
0.976546
0.986501
0.99579
0.996173
0.985037
0.987285
0.985326
0.987928
0.993772
0.993903
0.989167
0.991537
0.989537
0.987315
0.94347
0.946475
0.985988
0.980904
0.966391
0.991238
0.996817
0.993952
0.997257
0.997221
0.994569
0.996817
0.986677
0.968214
0.968352
0.996811
0.972015
0.994003
0.993623
0.984555
0.979948
0.996969
0.996086
0.996702
0.996544
0.996938
0.997277
0.997977
0.979659
0.977568
0.984598
0.988586
0.998111
0.955918
0.980042
0.988555
0.997166
0.992959
0.994551
0.992268
0.996496
0.990203
0.998044
0.989568
0.981412
0.980175
0.99551
0.993732
0.983886
0.993845
0.991423
0.968921
0.946999
0.983537
0.820959
0.988896
0.993792
0.991168
0.990594
0.513722
0.502547
0.398303
0.997825
0.988236
0.995437
0.950339
0.995576
0.990977
0.993732
0.995939
0.995081
0.823013
0.989672
0.946214
0.973338
0.986164
0.982554
0.993135
0.402951
0.695745
0.493909
0.992938
0.937511
1
0.97469
0.997977
0.997977
0.999406
0.977218
0.983349
0.995338
1
0.973054
0.985558
0.986777
0.99201
0.973665
0.994754
0.980782
0.990725
0.990433
0.984485
0.95753
0.927792
0.985349
0.985184
0.966234
0.988215
0.984086
0.990258
0.986282
0.996768
0.997749
0.993745
0.992784
0.97365
0.97121
0.994173
0.9832
0.987097
0.99945
0.993458
0.990066
0.997909
0.997405
0.993624
0.99297
0.993186
0.981124
0.974818
0.974642
0.977289
0.974167
0.986796
0.999023
0.969304
0.981508
0.982832
0.999088
0.995131
0.996158
0.991482
0.994048
0.990409
1
0.988787
0.986627
1
0.984474
0.999951
1
1
1
1
0.990052
0.9989
0.993184
0.997368
0.996811
0.982491
0.99809
0.981754
0.991785
0.984174
0.99355
0.978927
0.98887
1
0.999232
1
1
1
1
1
0.994909
0.992448
1
0.987848
0.981913
0.9888
0.982702
0.998505
0.981147
0.992179
0.986736
0.989644
1
1
1
1
1
1
1
0.986675
0.995256
0.999076
0.985374
0.987435
0.98833
0.997095
0.968722
0.987768
0.989071
0.992557
0.98001
0.992971
0.98049
0.983965
0.985452
1
0.984081
0.999853
1
1
1
0.964246
0.972222
0.987493
0.99572
0.972934
0.992265
0.994732
0.997749
0.990453
0.991967
0.996625
0.982552
0.985543
0.978529
0.976508
0.993623
0.985909
0.982071
0.990984
0.985987
0.987098
0.991789
0.991716
1
0.995364
0.992062
0.988804
0.984619
0.983141
0.981817
0.978302
0.990313
0.997166
0.973618
0.982168
0.989359
0.999348
0.983684
1
0.991741
0.990736
0.978243
0.999663
0.994541
0.988583
0.999507
0.99092
1
1
1
1
1
0.995045
0.981965
0.982248
0.993264
0.993512
0.982309
0.994781
0.979493
0.988413
0.98731
0.995807
0.989102
0.993989
1
1
1
1
1
1
1
0.992454
0.991944
0.996811
0.993394
0.988459
0.991151
0.986988
0.997744
0.982068
0.988187
0.986033
0.997549
1
1
1
1
1
1
1
0.993233
0.986186
0.99901
0.990774
0.990675
0.995579
0.996238
0.978229
0.990826
0.992973
0.991059
0.988651
0.99606
0.978317
0.995096
0.987098
0.998674
0.972078
1
1
1
1
0.974881
0.974812
0.989396
0.982989
0.975064
0.986435
0.985404
0.993678
0.991002
0.991242
0.996547
0.99188
0.98749
0.984176
0.965286
0.993733
0.981962
0.974771
0.992963
0.987459
0.989248
0.998273
0.990859
0.99989
0.993606
0.993337
0.987386
0.982494
0.98126
0.98356
0.982229
0.985753
0.998274
0.968858
0.977136
0.987423
0.995441
0.980468
0.998419
0.999096
0.991289
0.984291
0.997798
0.990457
0.989757
0.986451
0.9976
0.988344
0.986702
0.996168
0.997911
0.990882
0.99508
0.990655
0.983901
0.987138
0.998114
0.985093
0.986335
1
1
1
1
1
1
1
0.995091
0.988885
1
0.996576
0.988382
0.988346
0.989977
0.997783
0.973998
0.981377
0.984363
1
1
1
1
1
1
1
1
0.995326
0.993652
0.997096
0.983799
0.991825
0.995308
0.998878
0.987737
0.988828
0.987452
0.991844
0.979712
0.999258
0.986819
0.990561
0.987518
0.965837
0.976561
0.980269
0.987219
0.992976
0.984667
0.991058
0.994293
0.996935
0.99989
0.9939
0.996664
0.993525
0.993765
0.976719
0.970587
0.996811
0.992569
0.997032
0.993623
0.989164
0.996003
0.997212
0.993222
1
0.99285
0.994347
0.977539
0.980754
0.979589
0.977709
0.980194
0.989838
0.9972
0.977934
0.986788
0.989749
0.998307
0.990407
0.993291
0.995175
0.99579
0.986182
0.997784
0.99302
0.984193
0.992
0.990671
0.993622
0.989247
0.990982
0.993732
0.991761
0.98966
0.981485
0.992427
0.987473
0.985618
0.989516
0.990086
0.996151
0.997667
0.995508
0.972291
0.987306
0.984439
0.972278
0.98894
0.995884
0.989536
0.997129
0.978681
0.99016
0.992212
0.99713
0.984588
0.990979
0.993548
0.995579
0.982691
0.997121
0.984734
0.993456
0.993449
0.96533
0.962429
0.966558
0.990725
0.98694
0.981299
0.994412
0.996049
0.995037
0.989685
0.997373
0.994729
0.998903
0.983332
0.978603
0.980624
0.988345
0.986881
0.985798
0.992523
0.979065
0.976472
0.994578
0.991948
1
0.996184
0.992839
0.995887
0.974208
0.985651
0.986905
0.987298
0.992551
0.998503
0.971215
0.985951
0.986145
0.997201
0.986183
0.995448
0.990105
0.997357
0.986072
0.994927
0.993773
0.987666
0.984788
0.991059
0.990324
0.9874
0.979525
0.996151
0.984705
0.983643
0.98343
0.989849
0.984875
0.979671
0.993546
0.99392
0.996811
0.998455
0.991442
0.956977
0.978688
0.973313
0.968383
0.979411
0.99135
0.980468
1
0.978907
0.992129
0.99137
0.999044
0.981158
0.990313
0.988346
0.995591
0.993449
0.998899
0.994423
0.994255
0.988648
0.980026
0.975653
0.960401
0.987827
0.984086
0.974718
0.989278
0.990013
0.994809
0.996818
0.994082
0.993221
0.996049
0.9895
0.980416
0.978046
0.993623
0.988778
0.9719
0.99989
0.983864
0.98159
0.994185
0.989898
1
0.996759
0.991794
0.982782
0.969676
0.985999
0.975133
0.989905
0.98987
0.999056
0.985272
0.9867
0.988917
0.998113
0.996517
0.996377
0.995677
0.997176
0.990842
0.996278
0.997792
0.98959
0.995665
0.979371
0.994282
0.973197
0.976817
0.984056
0.988461
0.99135
0.97129
0.988763
0.986145
0.982177
0.989578
0.991868
0.995162
0.990275
0.993843
0.962748
0.990909
0.978541
0.969006
0.988429
0.987095
0.98577
1
0.979808
0.991918
0.993085
0.99911
0.986895
0.995792
0.985186
0.992826
0.985878
0.997363
0.990242
0.995592
0.981298
0.992933
0.966138
0.951796
0.987768
0.999341
0.980371
0.985865
0.993744
0.993687
0.998793
0.996648
0.99574
0.99989
0.99517
0.98418
0.970032
0.988565
0.991642
0.990341
0.994612
0.982162
0.992249
0.997092
0.9892
0.997471
0.997123
0.985755
0.960819
0.966118
0.983283
0.978338
0.991343
0.995918
0.999056
0.967688
0.990475
0.994727
0.996258
0.986682
0.99888
0.994736
0.996665
0.991571
0.999176
0.990258
0.992726
0.988108
0.980494
0.996042
0.990763
0.987035
0.994392
0.991823
0.98826
0.973264
0.986859
0.992979
0.986137
0.987306
0.976921
0.993843
0.989639
0.982033
0.975929
0.987845
0.971521
0.966147
0.985869
0.979213
0.983887
0.999242
0.992351
0.9944
0.985448
0.993965
0.985939
0.993098
0.992009
0.993433
0.98412
0.998064
0.988713
0.996534
0.988471
0.994889
0.966978
0.965999
0.992993
0.996817
0.984243
0.997312
1
0.996824
1
0.995138
1
0.996817
0.991178
0.971705
0.979719
0.997361
0.98785
0.992339
0.993073
0.985683
0.995579
0.993397
0.981575
0.996702
0.991852
0.992104
0.979015
0.970022
0.979383
0.982169
0.988169
0.993088
0.997462
0.977096
0.98715
0.990377
0.997657
0.992526
0.999011
0.992376
0.992129
0.988704
0.996243
0.990409
0.995802
0.991255
0.990092
0.996811
0.992096
0.987809
0.990434
0.989824
0.988017
0.980637
0.993603
0.985505
0.970185
0.987821
0.988577
0.988125
0.993002
0.992565
0.969776
0.988462
0.984611
0.962962
0.991792
0.988909
0.992467
0.991262
0.993251
0.992977
0.989988
0.999044
0.983633
0.993613
0.987798
0.996868
0.988527
0.997429
0.990329
0.99474
0.992766
0.990058
0.970546
0.980761
0.996315
1
0.986488
0.997282
0.996817
0.994616
1
0.994927
0.998451
0.996817
0.99727
0.972192
0.987734
0.993623
0.98994
0.994731
0.996811
0.994892
0.994883
0.993549
0.995161
1
0.994215
0.995432
0.987869
0.980201
0.984189
0.988229
0.995926
0.989632
0.997169
0.969928
0.983316
0.991152
0.999675
0.989772
0.999011
0.996248
0.99288
0.992301
0.998715
0.995099
0.990626
0.986988
0.98866
0.996811
0.997335
0.989899
0.990434
0.990158
0.984325
0.971726
0.988525
0.981117
0.970186
0.992699
0.992798
1
0.996334
0.989274
0.951643
0.989779
0.976267
0.975822
0.98974
0.985352
0.990583
0.999044
0.987514
0.989557
0.996903
0.999934
0.984027
0.987105
0.992374
0.992825
0.992144
0.990919
0.988438
0.989206
0.988019
0.991319
0.962221
0.955505
0.995893
0.996817
0.984746
0.995017
0.994293
0.993377
0.993635
0.991273
0.993338
1
0.994329
0.985016
0.986967
0.996811
0.992068
0.990886
0.995712
0.995744
0.995307
0.996153
0.992955
0.994722
0.995608
0.995084
0.983129
0.982013
0.993592
0.989691
0.978044
0.994131
0.998666
0.979896
0.983646
0.988828
0.99808
0.991177
0.999044
0.993495
0.995794
0.994493
0.999868
0.994524
0.986428
0.985589
0.993653
1
0.995064
0.996207
0.996811
0.995033
0.982812
0.978767
0.990502
0.985475
0.962485
0.993911
0.989274
0.993733
0.996455
0.992488
0.956369
0.992876
0.983009
0.973843
0.985365
0.994908
0.984654
0.999967
0.990663
0.990828
0.994167
0.99967
0.979696
0.989254
0.986852
0.992612
0.98994
0.994758
0.987066
0.992977
0.986945
0.976056
0.960402
0.957674
0.994231
0.999341
0.980642
0.996557
0.996927
0.999613
1
0.999456
0.999342
0.99989
0.984527
0.995819
0.997003
0.99791
0.989708
0.996306
0.998901
0.996015
0.993127
1
0.990012
1
0.998122
0.994852
0.98968
0.991008
0.981752
0.989691
0.989428
0.994578
0.998438
0.973063
0.98562
0.988648
0.994891
0.991513
0.999868
0.992224
0.996515
0.992808
0.99822
0.99643
0.985656
0.989718
0.989745
0.996701
0.992218
0.997368
1
0.993609
0.986442
0.963363
0.995465
0.988532
0.969418
0.993972
0.991869
0.996811
0.993879
0.994772
0.972963
0.996089
0.980471
0.975493
0.990477
0.992676
0.997001
0.998088
0.990325
0.983777
0.99564
0.998846
0.99387
0.985712
0.990237
0.996898
0.992482
0.99823
0.990636
0.992521
0.972369
0.98607
0.953893
0.972157
0.996346
0.996817
0.981416
0.991725
1
0.998141
1
0.997434
1
1
0.99678
0.984947
0.976094
1
0.992417
0.995277
0.996811
0.993498
0.99573
0.996729
0.997446
1
0.995789
0.998877
0.99031
0.993934
0.981125
0.98384
0.982179
0.984511
0.975992
0.986839
0.98658
0.991746
0.989066
0.984375
0.998089
0.995976
0.998107
0.993258
1
0.994373
0.983557
0.979995
0.997639
0.996812
0.995731
0.998413
1
0.998819
0.985019
0.978106
0.985388
0.984538
0.988779
0.996547
0.993146
0.998131
0.996728
0.996631
0.960983
0.985791
0.974697
0.983626
0.984591
0.986608
0.993024
0.998417
0.997638
0.988377
0.997745
0.997988
0.987851
0.97887
0.989752
0.992248
0.986721
0.995058
0.991823
0.992306
0.984569
0.986205
0.976285
0.977541
0.994504
0.996818
0.978354
0.992811
1
1
0.996818
0.998248
0.998644
0.997914
0.994328
0.990732
0.982853
0.996152
0.9947
0.99561
0.995381
0.990364
0.996457
0.999182
0.998878
0.997361
0.99791
0.992451
0.993936
0.993515
0.991085
0.984257
0.989908
0.992999
0.989362
0.986783
0.990204
0.993535
0.988545
0.994775
0.999045
0.99634
0.997957
0.990277
0.997759
0.993918
0.988599
0.984117
0.992261
0.996812
0.995852