/*--------------------------------*- C++ -*----------------------------------*\
| =========                 |                                                 |
| \\      /  F ield         | OpenFOAM: The Open Source CFD Toolbox           |
|  \\    /   O peration     | Version:  5.x                                   |
|   \\  /    A nd           | Web:      www.OpenFOAM.org                      |
|    \\/     M anipulation  |                                                 |
\*---------------------------------------------------------------------------*/
FoamFile
{
    version     2.0;
    format      ascii;
    class       volScalarField;
    location    "0.1";
    object      Ksl;
}
// * * * * * * * * * * * * * * * * * * * * * * * * * * * * * * * * * * * * * //

dimensions      [1 -3 -1 0 0 0 0];

internalField   nonuniform List<scalar> 
10571
(
1092.13
5116.79
65.4393
38.4269
1165.65
133.177
149.192
123.403
226.639
2619.42
1257.51
31.534
167.493
138.648
209.461
760.782
1240.45
196.11
161.875
264.73
5894.11
1020.93
526.348
4066.49
299.965
568.465
27.9197
23.183
75.6963
28.9282
79.5312
72.9421
82.6058
219.491
298.432
19.1072
67.9948
83.239
79.2578
110.72
70.9488
83.6634
77.6604
56.6816
505.435
139.618
167.51
417.432
78.8924
417.875
0.17052
4.84661
106.56
3.05948
39.5219
35.5137
35.7825
272.155
40.1581
0
36.1157
29.479
33.5814
93.0664
122.047
48.9338
33.3849
27.4419
473.947
175.615
129.138
335.142
1.52056
366.205
104.501
31.1839
269.664
67.2719
60.9157
31.8041
38.7425
276.024
0
5.84416
30.1165
8.38732
22.981
151.491
318.636
40.2567
37.7895
7.39801
546.334
207.709
216.076
178.398
0
331.714
167.004
293.592
270.064
188.175
53.7538
50.3414
12.6163
393.495
14.2386
323.745
45.5931
40.4145
27.2076
94.711
308.888
41.4378
57.8593
100.993
504.275
192.679
147.897
157.68
0
335.736
116.429
214.692
231.686
108.227
52.9483
32.1713
14.7732
199.266
0
0
187.56
36.2619
2.62705
8.32073
40.5579
0
218.288
55.4951
45.1643
51.5162
344.63
201.676
112.365
163.613
0
184.982
122.335
195.179
225.56
94.1339
40.0813
46.1563
26.3211
130.55
0
0
191.955
56.9871
48.6937
22.0758
43.6829
5.31348
230.725
101.387
111.406
40.7366
282.332
0
189.942
66.8864
126.243
15.2681
209.483
135.806
145.474
211.334
165.769
117.646
101.163
31.2742
137.898
-3.42307e-16
30.7124
204.953
103.9
81.7203
22.0474
48.7359
89.6851
210.881
82.7483
73.819
43.6588
306.569
0
246.076
126.299
165.37
16.1059
202.969
136.964
155.843
157.573
141.759
109.498
135.212
45.5297
162.462
521.394
36.8386
177.45
125.179
169.013
46.9319
67.3786
1486.88
179.987
175.308
142.452
114.592
370.33
193.675
149.843
170.693
59.4867
224.565
247.38
272.747
219.893
101.414
175.441
219.222
134.805
638.792
47.1946
238.728
214.486
207.786
105.673
998.6
157.516
262.854
239.943
75.8626
578.679
286.732
145.658
173.536
76.3654
153.51
67.6217
50.7131
187.299
130.732
482.795
522.255
700.392
2163.17
22.6248
25.3615
560.941
846.437
1484.17
4559.37
118.358
640.521
1094.4
305.953
1100.82
245.211
128.972
201.72
72.1348
210.139
230.672
140.439
221.699
143.421
883.091
2577.41
3721.38
2607.41
71.3337
219.001
2237.72
9909.69
10302.3
5778.07
137.173
2787.25
8684.88
2049.38
2535.25
326.763
235.096
456.823
239.548
282.095
135.555
141.031
232.407
166.106
1487.82
4198.62
6322.64
6770.29
122.54
153.104
3724.17
11050.9
11035.7
9435.07
175.614
5044.9
10601.8
12358.4
8074.38
772.935
2134
6524.16
432.854
704.866
223.113
259.915
3057.97
271.097
3293.56
5299.15
3365.43
5843.66
312.092
211.177
5292.48
2100.49
444.557
617.78
1384.67
5102.77
1258.59
508.137
72.4022
8112.96
10391.3
1446.79
5883.25
7741.7
11423.8
10643.3
5392.08
11441.9
1697.59
369.651
43.9955
0
6866.33
10832.8
526.868
0.382468
0
2.53642
9293.41
133.016
0
0
0
168.959
0
0
0
0
0
0
0
0
0
0
0
0
0
0
0
0
0
0
0
0
0
0
0
0
0
0
0
0
0
0
0
0
0
0
0
0
0
0
0
0
0
0
0
0
0
0
0
0
0
0
0
0
0
0
0
0
0
0
0
0
0
0
0
0
0
0
0
0
0
0
0
0
0
0
0
0
0
0
0
0
0
0
0
0
0
0
0
0
0
0
0
0
0
0
0
0
0
0
0
0
0
0
0
0
0
0
0
0
0
0
0
0
0
0
0
0
0
0
0
0
0
0
0
0
0
0
0
0
0
0
0
0
0
0
0
0
0
0
0
0
0
0
0
0
0
0
0
0
0
0
0
0
0
0
0
0
0
0
0
0
0
0
0
0
0
0
0
0
0
0
0
0
0
0
0
0
0
0
0
0
0
0
0
0
0
0
0
0
0
0
0
0
0
0
0
0
0
0
0
0
0
0
0
0
0
0
0
0
0
0
0
0
0
0
0
0
0
0
0
0
0
0
0
0
0
0
0
0
0
0
0
0
0
0
0
0
0
0
0
0
0
0
0
0
0
0
0
0
0
0
0
0
0
0
0
0
0
0
0
0
0
0
0
0
0
0
0
0
0
0
0
0
0
0
0
0
0
0
0
0
0
0
0
0
0
0
0
0
0
0
0
0
0
0
0
0
0
0
0
0
0
0
0
0
0
0
0
0
0
0
0
0
0
0
0
0
0
0
0
0
0
0
0
0
0
0
0
0
0
0
0
0
0
0
0
0
0
0
0
0
0
0
0
0
0
0
0
0
0
0
0
0
0
0
0
0
0
0
0
0
0
0
0
0
0
0
0
0
0
0
0
0
0
0
0
0
0
0
0
0
0
0
0
0
0
0
0
0
0
0
0
0
0
0
0
0
0
0
0
0
0
0
0
0
0
0
0
0
0
0
0
0
0
0
0
0
0
0
0
0
0
0
0
0
0
0
0
0
0
0
0
0
0
0
0
0
0
0
0
0
0
0
0
0
0
0
0
0
0
0
0
0
0
0
0
0
0
0
0
0
0
0
0
0
0
0
0
0
0
0
0
0
0
0
0
0
0
0
0
0
0
0
0
0
0
0
0
0
0
0
0
0
0
0
0
0
0
0
0
0
0
0
0
0
0
0
0
0
0
0
0
0
0
0
0
0
0
0
0
0
0
0
0
0
0
0
0
0
0
0
0
0
0
0
0
0
0
0
0
0
0
0
0
0
0
0
0
0
0
0
0
0
0
0
0
0
0
0
0
0
0
0
0
0
0
0
0
0
0
0
0
0
0
0
0
0
0
0
0
0
0
0
0
0
0
0
0
0
0
0
0
0
0
0
0
0
0
0
0
0
0
0
0
0
0
0
0
0
0
0
0
0
0
0
0
0
0
0
0
0
0
0
0
0
0
0
0
0
0
0
0
0
0
0
0
0
0
0
0
0
0
0
0
0
0
0
0
0
0
0
0
0
0
0
0
0
0
0
0
0
0
0
0
0
0
0
0
0
0
0
0
0
0
0
0
0
0
0
0
0
0
0
0
0
0
0
0
0
0
0
0
0
0
0
0
0
0
0
0
0
0
0
0
0
0
0
0
0
0
0
0
0
0
0
0
0
0
0
0
0
0
0
0
0
0
0
0
0
0
0
0
0
0
0
0
0
0
0
0
0
0
0
0
0
0
0
0
0
0
0
0
0
0
0
0
0
0
0
0
0
0
0
0
0
0
0
0
0
0
0
0
0
0
0
0
0
0
0
0
0
0
0
0
0
0
0
0
0
0
0
0
0
0
0
0
0
0
0
0
0
0
0
0
0
0
0
0
0
0
0
0
0
0
0
0
0
0
0
0
0
0
0
0
0
0
0
0
0
0
0
0
0
0
0
0
0
0
0
0
0
0
0
0
0
0
0
0
0
0
0
0
0
0
0
0
0
0
0
0
0
0
0
0
0
0
0
0
0
0
0
0
0
0
0
0
0
0
0
0
0
0
0
0
0
0
0
0
0
0
0
0
0
0
0
0
0
0
0
0
0
0
0
0
0
0
0
0
0
0
0
0
0
0
0
0
0
0
0
0
0
0
0
0
0
0
0
0
0
0
0
0
0
0
0
0
0
0
0
0
0
0
0
0
0
0
0
0
0
0
0
0
0
0
0
0
0
0
0
0
0
0
0
0
0
0
0
0
0
0
0
0
0
0
0
0
0
0
0
0
0
0
0
0
0
0
0
0
0
0
0
0
0
0
0
0
0
0
0
0
0
0
0
0
0
0
0
0
0
0
0
0
0
0
0
0
0
0
0
0
0
0
0
0
0
0
0
0
0
0
0
0
0
0
0
0
0
0
0
0
0
0
0
0
0
0
0
0
0
0
0
0
0
0
0
0
0
0
0
0
0
0
0
0
0
0
0
0
0
0
0
0
0
0
0
0
0
0
0
0
0
0
0
0
0
0
0
0
0
0
0
0
0
0
0
0
0
0
0
0
0
0
0
0
0
0
0
0
0
0
0
0
0
0
0
0
0
0
0
0
0
0
0
0
0
0
0
0
0
0
0
0
0
0
0
0
0
0
0
0
0
0
0
0
0
0
0
0
0
0
0
0
0
0
0
0
0
0
0
0
0
0
0
0
0
0
0
0
0
0
0
0
0
0
0
0
0
0
0
0
0
0
0
0
0
0
0
0
0
0
0
0
0
0
0
0
0
0
0
0
0
0
0
0
0
0
0
0
0
0
0
0
0
0
0
0
0
0
0
0
0
0
0
0
0
0
0
0
0
0
0
0
0
0
0
0
0
0
0
0
0
0
0
0
0
0
0
0
0
0
0
0
0
0
0
0
0
0
0
0
0
0
0
0
0
0
0
0
0
0
0
0
0
0
0
0
0
0
0
0
0
0
0
0
0
0
0
0
0
0
0
0
0
0
0
0
0
0
0
0
0
0
0
0
0
0
0
0
0
0
0
0
0
0
0
0
0
0
0
0
0
0
0
0
0
0
0
0
0
0
0
0
0
0
0
0
0
0
0
0
0
0
0
0
0
0
0
0
0
0
0
0
0
0
0
0
0
0
0
0
0
0
0
0
0
0
0
0
0
0
0
0
0
0
0
0
0
0
0
0
0
0
0
0
0
0
0
0
0
0
0
0
0
0
0
0
0
0
0
0
0
0
0
0
0
0
0
0
0
0
0
0
0
0
0
0
0
0
0
0
0
0
0
0
0
0
0
0
0
0
0
0
0
0
0
0
0
0
0
0
0
0
0
0
0
0
0
0
0
0
0
0
9248.23
8970.62
7938.78
6036.29
8020.67
6000.05
9399.76
9196.14
8562.68
9414.77
9987.65
9760.94
4114.92
3059.51
1834.33
936.82
853.533
1433.78
3460.72
759.551
1369.96
9475.6
9333.31
2991.88
8882.24
9091.07
8282.53
8136.12
6271.81
3363.21
972.536
1741.72
801.192
646.837
939.185
930.271
1055.52
697.225
735.758
785.417
791.342
1024.23
3129.51
935.737
1711.05
8983.45
8287.33
8421.96
8140.44
5828.57
8703.14
1477.1
682.984
3475.88
948.748
625.346
689.488
822.253
701.488
448.164
638.109
513.468
712.72
698.5
1692.62
955.954
3249.85
7954.56
7881.13
9184.45
8913.82
9453.99
3135.99
9193.56
9211.94
1127.53
962.741
3148.63
1801.97
637.912
869.034
1088.29
3204.72
3075.56
8750.75
8581.02
9422.67
9303.26
9065.58
8820.65
6493.46
9181.09
5783.42
8494.33
7932.51
9088.83
3978.89
805.65
1989.91
561.928
485.153
290.051
50.6081
81.9187
417.011
808.103
156.58
79.7824
96.4763
3385.07
344.18
4379.64
504.423
1296.82
2134.56
120.379
479.05
82.6085
107.079
58.5918
4316.64
129.597
1314.62
96.7509
396.504
66.7849
87.2931
5939.77
580.124
464.245
1368.78
489.25
28.822
136.431
107.768
750.673
4071.81
248.623
139.755
8623.05
435.352
728.141
133.054
77.5932
53.0002
4113.59
2188.92
143.328
1304.36
224.092
3516.63
443.145
118.625
5144.03
1355.82
103.237
94.2348
371.447
72.8647
1474.39
1517.2
4966.29
62.8463
115.058
119.384
409.337
637.921
5175.69
827.539
546.848
2282.78
150.654
100.824
447.759
895.62
1216.49
134.033
59.685
166.116
424.985
480.816
492.195
432.961
73.6091
118.299
47.882
107.537
91.7566
118.852
113.5
75.2306
83.3449
122.001
395.914
369.079
642.529
451.776
44.5675
68.1137
60.3701
466.289
75.3418
102.114
75.0818
362.651
44.3724
56.7082
103.499
414.118
117.503
95.2963
464.706
517.541
63.3338
356.729
152.547
79.0538
26.2682
78.6618
127.074
399.533
272.108
205.554
400.298
108.641
62.816
83.864
126.804
97.5359
462.604
218.244
170.926
759.292
249.189
357.678
338.396
60.6286
402.523
90.4461
93.0612
97.7182
441.316
102.415
86.669
109.664
397.726
124.104
93.6632
159.092
394.248
436.558
543.319
511.933
150.51
244.934
129.157
124.523
138.331
138.871
121.143
126.875
92.941
37.1243
356.246
341.746
274.97
102.783
135.498
147.596
22.3401
270.938
192.968
103.672
113.643
0
163.164
149.301
351.109
262.304
291.599
289.07
147.427
119.929
10.0133
467
238.546
195.793
73.0693
392.586
8.87699
75.8611
233.351
389.551
57.7901
146.702
518.159
604.521
108.175
146.376
123.775
232.847
64.6728
175.008
86.7522
414.746
257.354
126.838
619.979
159.984
102.436
10.7002
195.299
165.254
508.577
232.944
104.402
574.96
257.805
305.473
247.353
0
364.333
145.034
221.806
109.592
368.202
178.2
69.1153
145.011
416.344
45.6382
121.768
227.34
364.554
498.954
438.944
428.476
100.648
82.1785
223.73
172.963
1.75523
102.962
-1.00364e-15
157.686
174.208
8.03226
296.992
264.013
267.43
15.0813
315.011
274.396
38.7389
336.14
247.551
268.785
190.678
0
298.596
202.338
235.072
268.329
274.532
293.104
320.524
340.195
76.2955
431.929
308.769
323.358
162.615
398.413
43.2368
187.248
267.615
428.969
103.495
248.782
527.141
569.018
260.976
33.0084
325.989
287.83
50.7877
286.108
122.133
555.796
280.525
75.7287
770.388
295.608
212.685
0
284.01
198.348
634.465
239.132
64.7617
854.581
294.325
190.576
228.544
30.9135
434.859
279.067
285.288
166.161
362.216
300.02
156.662
234.122
310.243
87.9275
225.873
289.515
253.717
521.272
332.9
330.695
258.558
0
221.264
251.072
0
201.739
0
227.976
180.349
0
151.927
289.967
403.065
44.497
282.835
349.494
0
226.865
188.433
306.19
193.389
0
205.155
169.163
219.92
204.675
257.911
301.762
289.866
262.05
150.995
337.933
339.091
324.808
167.379
349.107
183.001
231.511
211.175
366.516
47.3274
198.251
636.803
428.926
265.601
29.7861
324.8
267.144
14.353
307.473
99.334
979.245
232.658
203.9
352.543
311.473
243.127
0
228.038
140.836
1229.75
298.098
156.729
396.484
267.148
178.49
242.437
183.353
353.329
329.432
222.053
67.5858
326
233.29
172.423
198.123
256.528
44.2809
203.452
171.15
270.501
449.78
391.26
252.02
182.349
28.1712
203.163
194.3
14.3048
164.682
0
144.958
147.859
0
209.072
331.514
252.676
14.8115
208.59
252.259
0
200.028
128.301
244.974
157.177
0
100.026
125.103
191.119
179.93
249.333
248.646
167.691
170.957
72.3862
296.365
232.056
213.205
147.266
318.981
201.387
162.682
142.288
283.398
16.6216
164.006
457.646
365.8
170.897
29.0173
168.952
215.601
0
248.695
108.2
70.7925
229.406
187.303
131.756
42.7517
293.633
0
0
0
0
0
0
0
191.447
179.348
0.139695
142.406
134.162
293.955
186.028
83.9306
7.79433
277.569
168.519
101.315
0
0
0
1.85618
0
0
0
233.289
146.989
180.861
285.398
302.496
137.365
47.7342
251.075
167.211
119.626
150.91
244.707
29.3571
156.366
161.524
234.525
358.181
297.166
254.211
172.239
43.6098
201.613
201.218
45.689
165.883
0
98.1877
135.226
1.78819
171.834
253.4
236.817
15.6751
244.938
289.052
31.5442
132.789
35.3264
243.519
170.163
0
70.2831
108.426
178.209
179.674
189.361
202.973
149.416
157.928
76.3792
267.942
156.025
133.778
64.5687
231.135
192.807
122.85
93.653
280.696
47.7318
201.969
317.77
53.2819
267.693
103.284
0
0
0
0
203.252
15.1773
153.389
133.141
15.3413
109.145
157.717
24.1664
269.62
29.3658
282.054
26.8192
312.729
0
3.08093
0
0
0
28.5076
0
170.874
158.953
2.71225
84.6458
115.988
266.472
145.107
135.477
31.4628
228.411
55.5186
209.21
0
0
0
38.0823
0
0
0
222.584
154.69
146.439
307.531
223.097
106.836
74.1923
225.574
247.065
174.03
211.826
263.963
96.9376
124.327
168.626
201.723
13.7277
294.958
31.6902
0
0
0
282.438
283.201
104.484
47.8106
162.205
158.316
46.0043
127.827
4.54833
160.992
153.391
0.134279
132.95
309.888
223.943
5.82707
228.108
213.129
59.771
173.62
225.647
110.954
104.106
0
190.837
138.736
214.249
188.894
194.212
162.676
227.725
258.002
163.765
150.417
160.971
97.1797
31.9988
202.084
128.292
130.906
185.523
267.266
112.775
198.21
223.464
114.258
294.455
109.411
0
0
0
0
203.199
15.9179
212.487
184.383
65.0928
172.693
248.705
61.0616
331.238
99.7673
295.12
36.7195
249.754
0
117.947
2.36455
20.3028
30.2104
183.418
29.4385
211.207
153.969
52.6752
167.351
113.856
210.258
157.377
211.709
24.2359
102.986
90.4952
165.438
5.82644
0.0452533
2.83564
165.038
41.4546
50.7668
48.7193
152.499
126.733
110.684
229.561
214.996
231.358
188.016
271.037
310.081
200.301
137.786
250.425
62.1148
151.006
208.312
214.622
35.5192
291.138
48.2402
0
0
2.39391
181.88
262.692
231.377
63.2748
247.667
201.174
90.6003
150.184
29.328
144.974
139.285
32.5413
132.799
281.166
205.931
97.8218
174.227
139.341
76.0954
172.862
154.406
121.156
122.191
42.3197
160.091
139.349
168.403
209.767
173.263
146.181
185.941
221.477
145.917
158.146
165.402
149.694
200.366
190.554
86.7561
167.464
154.855
242.256
124.74
165.253
223.468
324.871
142.796
79.7898
161.212
171.832
42.8173
95.3378
369.103
102.413
295.591
409.346
886.612
308.087
3739.54
316.161
1473.17
916.75
1876.3
636.694
9459.6
5817.72
118.569
124.824
102.762
117.241
139.423
276.407
148.351
495.333
326.546
4133.76
386.596
1214.57
1199.92
849.562
410.649
11186.3
4858.29
2997.48
554.76
126.54
126.031
119.407
122.645
194.607
198.954
172.269
286.191
281.362
188.836
163.466
176.003
126.304
213.565
243.523
210.886
516.22
240.557
237.204
228.047
52.2225
237.008
151.622
65.9271
188.061
13.2258
98.776
139.561
43.2874
184.332
362.404
226.613
104.095
212.352
188.95
87.6374
214.405
227.699
135.03
124.188
66.1647
205.874
108.9
255.579
181.505
222.695
198.716
204.036
220.406
82.3841
153.846
166.472
140.088
84.3605
149.269
55.0287
124.972
77.7696
268.032
76.0203
89.0614
317.314
266.987
126.591
74.6214
242.514
198.185
130.668
139.079
914.584
691.89
989.316
2360.19
1470.99
253.714
122.502
65.8624
135.728
167.599
780.418
888.597
2738.52
1412.84
2092.43
159.748
198.769
78.9536
224.03
192.706
250.152
154.673
214.633
169.53
96.6989
160.184
124.112
236.461
262.151
324.286
161.511
742.03
241.636
176.752
255
89.8707
259.116
229.238
47.6882
158.093
0
126.279
175.205
42.7062
187.595
210.267
245.891
81.993
171.433
100.016
88.5888
138.959
148.891
136.926
144.37
93.7666
123.515
151.057
267.242
235.152
125.004
148.277
116.582
131.02
190.523
157.98
180.868
161.924
190.237
308.841
48.2173
153.951
96.2364
189.443
6.90439
150.331
289.153
430.142
109.711
61.5538
104.758
120.766
62.748
185.26
4338.72
1011.26
3040.18
4979.4
918.964
138.054
152.967
59.869
146.086
111.078
779.29
3466.7
4714.67
403.18
3395.62
148.489
141.504
74.4858
189.611
210.032
182.921
48.4535
151.696
126.328
234.999
384.102
137.117
639.429
390.815
492.309
174.157
1573.58
154.331
159.827
245.638
58.8663
316.664
322.768
30.6536
182.896
14.236
210.937
267.472
27.2246
251.059
196.355
286.778
105.266
201.167
105.908
96.1175
188.938
185.985
195.499
125.144
138.235
147.05
113.167
232.094
399.77
186.704
238.744
176.307
170.991
18.4424
232.531
151.54
150.338
181.995
303.249
19.3628
144.021
172.611
426.431
5.91572
127.909
377.4
662.66
165.515
155.59
176.408
201.733
166.021
123.974
5743.56
820.5
3492.29
7765.84
1323.15
109.742
122.925
61.7025
132.041
154.667
476.81
4674.88
7758.29
593.643
7668.16
141.202
297.524
10.0923
220.602
156.384
184.552
28.6856
234.166
116.341
998.808
1111.26
478.346
7610.29
5777.22
4786.61
2703.01
5529.95
190.742
309.672
300.427
20.6657
380.311
404.96
53.0212
344.669
53.4619
342.191
714.326
22.2342
1852.43
261.321
341.503
159.798
234.248
124.978
208.975
247.957
163.603
168.649
213.878
201.066
216.748
291.243
410.122
577.218
204.385
263.965
158.797
160.92
119.807
376.137
218.738
217.041
85.1925
498.497
0.738778
242.207
390.98
1161.56
33.838
1540.4
2061.28
5123.62
207.078
147.495
118.396
206.389
164.568
216.911
10470.1
2862.66
8167.39
9826.7
2648.75
62.7933
112.857
98.968
137.33
167.721
965.769
9239.09
5767.01
568.257
5457.88
294.594
492.647
9.12076
370.88
152.573
296.175
28.5322
580.251
345.971
12387.5
11069.8
7849.51
13093.8
11838.1
12697.4
9017.83
6266.09
397.822
1449.54
1423
157.032
4059.38
8912.44
3652.46
5468.97
169.096
9883.89
9925.66
3481.02
7440.59
888.396
5112.71
523.738
579.306
403.566
4660.26
6665.81
6428.58
508.8
638.666
3149.55
6362.58
6839.46
2044.81
5721.33
659.6
4269.44
403.06
409.629
255.394
5831.37
7066.05
6381.67
4032.54
5238.96
2009.99
8680.5
10489.5
8473.83
10302.8
8930.19
7163.93
2735.53
522.469
323.553
256.374
5232.71
2806.88
4447.93
1068.44
463.02
465.482
4.10118
77.2398
284.273
366.717
2439.28
4176.85
4358.48
300.99
150.247
190.247
130.757
0
1297.01
5926.32
543.595
2853.63
4698.01
10352.1
8363.63
7728.21
10938.3
488.501
1560.49
598.92
0
0
0
0
0
6991.33
6842.18
11391.5
6533.07
5284.55
1343.65
826.854
4271.75
6788.31
535.171
4.56423
806.77
0
7301.79
1258.04
5613.09
10146.4
12118.5
1129.26
1476.34
1490.81
10816.7
7940.92
1207.93
1196.96
533.732
5139.97
224.714
7141.86
1709.47
12741.8
12839.1
11044.9
1500.38
2208.17
2449.36
3282.84
1353.87
3421.32
815.446
33.1561
0
0.34903
-4.70936e-17
7.96905
5.00383
8958.24
5450.04
11882.6
2175.15
1690.92
2438.74
0
0
0
0
0
11220.9
9396.06
1961.29
2199.22
1177.61
0.0227131
0
0
0
0
7216.38
619.769
7636.67
4235.07
2722.4
644.444
91.0348
32.0819
1.5191
0
0
0
0
0
0
0
0
591.12
0
0
0
0
0
0
0
0
0
0
0
0
0
0
0
0
0
0
0
0
0
0
0
0
0
0
0
0
0
0
0
0
0
0
0
0
0
0
0
0
0
0
0
0
0
0
0
0
0
0
0
0
0
0
0
0
0
0
0
0
0
0
0
0
0
0
0
0
0
0
0
0
0
0
0
0
0
0
0
0
0
0
0
0
0
0
0
0
0
0
0
0
0
0
0
0
0
0
0
0
0
0
0
0
0
0
0
0
0
0
0
0
0
0
0
0
0
0
0
0
0
0
0
0
0
0
0
0
0
0
0
0
0
0
0
0
0
0
0
0
0
0
0
0
0
0
0
0
0
0
0
0
0
0
0
0
0
0
0
0
0
0
0
0
0
0
0
0
0
0
0
0
0
0
0
0
0
0
0
0
0
0
0
0
0
0
0
0
0
0
0
0
0
0
0
0
0
0
0
0
0
0
0
0
0
0
0
0
0
0
0
0
0
0
0
0
0
0
0
0
0
0
0
0
0
0
0
0
0
0
0
0
0
0
0
0
0
0
0
0
0
0
0
0
0
0
0
0
0
0
0
0
0
0
0
0
0
0
0
0
0
0
0
0
0
0
0
0
0
0
0
0
0
0
0
0
0
0
0
0
0
0
0
0
0
0
0
0
0
0
0
0
0
0
0
0
0
0
0
0
0
0
0
0
0
0
0
0
0
0
0
0
0
0
0
0
0
0
0
0
0
0
0
0
0
0
0
0
0
0
0
0
0
0
0
0
0
0
0
0
0
0
0
0
0
0
0
0
0
0
0
0
0
0
0
0
0
0
0
0
0
0
0
0
0
0
0
0
0
0
0
0
0
0
0
0
0
0
0
0
0
0
0
0
0
0
0
0
0
0
0
0
0
0
0
0
0
0
0
0
0
0
0
0
0
0
0
0
0
0
0
0
0
0
0
0
0
0
0
0
0
0
0
0
0
0
0
0
0
0
0
0
0
0
0
0
0
0
0
0
0
0
0
0
0
0
0
0
0
0
0
0
0
0
0
0
0
0
0
0
0
0
0
0
0
0
0
0
0
0
0
0
0
0
0
0
0
0
0
0
0
0
0
0
0
0
0
0
0
0
0
0
0
0
0
0
0
0
0
0
0
0
0
0
0
0
0
0
0
0
0
0
0
0
0
0
0
0
0
0
0
0
0
0
0
0
0
0
0
0
0
0
0
0
0
0
0
0
0
0
0
0
0
0
0
0
0
0
0
0
0
0
0
0
0
0
0
0
0
0
0
0
0
0
0
0
0
0
0
0
0
0
0
0
0
0
0
0
0
0
0
0
0
0
0
0
0
0
0
0
0
0
0
0
0
0
0
0
0
0
0
0
0
0
0
0
0
0
0
0
0
0
0
0
0
0
0
0
0
0
0
0
0
0
0
0
0
0
0
0
0
0
0
0
0
0
0
0
0
0
0
0
0
0
0
0
0
0
0
0
0
0
0
0
0
0
0
0
0
0
0
0
0
0
0
0
0
0
0
0
0
0
0
0
0
0
0
0
0
0
0
0
0
0
0
0
0
0
0
0
0
0
0
0
0
0
0
0
0
0
0
0
0
0
0
0
0
0
0
0
0
0
0
0
0
0
0
0
0
0
0
0
0
0
0
0
0
0
0
0
0
0
0
0
0
0
0
0
0
0
0
0
0
0
0
0
0
0
0
0
0
0
0
0
0
0
0
0
0
0
0
0
0
0
0
0
0
0
0
0
0
0
0
0
0
0
0
0
0
0
0
0
0
0
0
0
0
0
0
0
0
0
0
0
0
0
0
0
0
0
0
0
0
0
0
0
0
0
0
0
0
0
0
0
0
0
0
0
0
0
0
0
0
0
0
0
0
0
0
0
0
0
0
0
0
0
0
0
0
0
0
0
0
0
0
0
0
0
0
0
0
0
0
0
0
0
0
0
0
0
0
0
0
0
0
0
0
0
0
0
0
0
0
0
0
0
0
0
0
0
0
0
0
0
0
0
0
0
0
0
0
0
0
0
0
0
0
0
0
0
0
0
0
0
0
0
0
0
0
0
0
0
0
0
0
0
0
0
0
0
0
0
0
0
0
0
0
0
0
0
0
0
0
0
0
0
0
0
0
0
0
0
0
0
0
0
0
0
0
0
0
0
0
0
0
0
0
0
0
0
0
0
0
0
0
0
0
0
0
0
0
0
0
0
0
0
0
0
0
0
0
0
0
0
0
0
0
0
0
0
0
0
0
0
0
0
0
0
0
0
0
0
0
0
0
0
0
0
0
0
0
0
0
0
0
0
0
0
0
0
0
0
0
0
0
0
0
0
0
0
0
0
0
0
0
0
0
0
0
0
0
0
0
0
0
0
0
0
0
0
0
0
0
0
0
0
0
0
0
0
0
0
0
0
0
0
0
0
0
0
0
0
0
0
0
0
0
0
0
0
0
0
0
0
0
0
0
0
0
0
0
0
0
0
0
0
0
0
0
0
0
0
0
0
0
0
0
0
0
0
0
0
0
0
0
0
0
0
0
0
0
0
0
0
0
0
0
0
0
0
0
0
0
0
0
0
0
0
0
0
0
0
0
0
0
0
0
0
0
0
0
0
0
0
0
0
0
0
0
0
0
0
0
0
0
0
0
0
0
0
0
0
0
0
0
0
0
0
0
0
0
0
0
0
0
0
0
0
0
0
0
0
0
0
0
0
0
0
0
0
0
0
0
0
0
0
0
0
0
0
0
0
0
0
0
0
0
0
0
0
0
0
0
0
0
0
0
0
0
0
0
0
0
0
0
0
0
0
0
0
0
0
0
0
0
0
0
0
0
0
0
0
0
0
0
0
0
0
0
0
0
0
0
0
0
0
0
0
0
0
0
0
0
0
0
0
0
0
0
0
0
0
0
0
0
0
0
0
0
0
0
0
0
0
0
0
0
0
0
0
0
0
0
0
0
0
0
0
0
0
0
0
0
0
0
0
0
0
0
0
0
0
0
0
0
0
0
0
0
0
0
0
0
0
0
0
0
0
0
0
0
0
0
0
0
0
0
0
0
0
0
0
0
0
0
0
0
0
0
0
0
0
0
0
0
0
0
0
0
0
0
0
0
0
0
0
0
0
0
0
0
0
0
0
0
0
0
0
0
0
0
0
0
0
0
0
0
0
0
0
0
0
0
0
0
0
0
0
0
0
0
0
0
0
0
0
0
0
0
0
0
0
0
0
0
0
0
0
0
0
0
0
0
0
0
0
0
0
0
0
0
0
0
0
0
0
0
0
0
0
0
0
0
0
0
0
0
0
0
0
0
0
0
0
0
0
0
0
0
0
0
0
0
0
0
0
0
0
0
0
0
0
0
0
0
0
0
0
0
0
0
0
0
0
0
0
0
0
0
0
0
0
0
0
0
0
0
0
0
0
0
0
0
0
0
0
0
0
0
0
0
0
0
0
0
0
0
0
0
0
0
0
0
0
0
0
0
0
0
0
0
0
0
0
0
0
0
0
0
0
0
0
0
0
0
0
0
0
0
0
0
0
0
0
0
0
0
0
0
0
0
0
0
0
0
0
0
0
0
0
0
0
0
0
0
0
0
0
0
0
0
0
0
0
0
0
0
0
0
0
0
0
0
0
0
0
0
0
0
0
0
0
0
0
0
0
0
0
0
0
0
0
0
0
0
0
0
0
0
0
0
0
0
0
0
0
0
0
0
0
0
0
0
0
0
0
0
0
0
0
0
0
0
0
0
0
0
0
0
0
0
0
0
0
0
0
0
0
0
0
0
0
0
0
0
0
0
0
0
0
0
0
0
0
0
0
0
0
0
0
0
0
0
0
0
0
0
0
0
0
0
0
0
0
0
0
0
0
0
0
0
0
0
0
0
0
0
0
0
0
0
0
0
0
0
0
0
0
0
0
0
0
0
0
0
0
0
0
0
0
0
0
0
0
0
0
0
0
0
0
0
0
0
0
0
0
0
0
0
0
0
0
0
0
0
0
0
0
0
0
0
0
0
0
0
0
0
0
0
0
0
0
0
0
0
0
0
0
0
0
0
0
0
0
0
0
0
0
0
0
0
0
0
0
0
0
0
0
0
0
0
0
0
0
0
0
0
0
0
0
0
0
0
0
0
0
0
0
0
0
0
0
0
0
0
0
0
0
0
0
0
0
0
0
0
0
0
0
0
0
0
0
0
0
0
0
0
0
0
0
0
0
0
0
0
0
0
0
0
0
0
0
0
0
0
0
0
0
0
0
0
0
0
0
0
0
0
0
0
0
0
0
0
0
0
0
0
0
0
0
0
0
0
0
0
0
0
0
0
0
0
0
0
0
0
0
0
0
0
0
0
0
0
0
0
0
0
0
0
0
0
0
0
0
0
0
0
0
0
0
0
0
0
0
0
0
0
0
0
0
0
0
0
0
0
0
0
0
0
0
0
0
0
0
0
0
0
0
0
0
0
0
0
0
0
0
0
0
0
0
0
0
0
0
0
0
0
0
0
0
0
0
0
0
0
0
0
0
0
0
0
0
0
0
0
0
0
0
0
0
0
0
0
0
0
0
0
0
0
0
0
0
0
0
0
0
0
0
0
0
0
0
0
0
0
0
0
0
0
0
0
0
0
0
0
0
0
0
0
0
0
0
0
0
0
0
0
0
0
0
0
0
0
0
0
0
0
0
0
0
0
0
0
0
0
0
0
0
0
0
0
0
0
0
0
0
0
0
0
0
0
0
0
0
0
0
0
0
0
0
0
0
0
0
0
0
0
0
0
0
0
0
0
0
0
0
0
0
0
0
0
0
0
0
0
0
0
0
0
0
0
0
0
0
0
0
0
0
0
0
0
0
0
0
0
0
0
0
0
0
0
0
0
0
0
0
0
0
0
0
0
0
0
0
0
0
0
0
0
0
0
0
0
0
0
0
0
0
0
0
0
0
0
0
0
0
0
0
0
0
0
0
0
0
0
0
0
0
0
0
0
0
0
0
0
0
0
0
0
0
0
0
0
0
0
0
0
0
0
0
0
0
0
0
0
0
0
0
0
0
0
0
0
0
0
0
0
0
0
0
0
0
0
0
0
0
0
0
0
0
0
0
0
0
0
0
0
0
0
0
0
0
0
0
0
0
0
0
0
0
0
0
0
0
0
0
0
0
0
0
0
0
0
0
0
0
0
0
0
0
0
0
0
0
0
0
0
0
0
0
0
0
0
0
0
0
0
0
0
0
0
0
0
0
0
0
0
0
0
0
0
0
0
0
0
0
0
0
0
0
0
0
0
0
0
0
0
0
0
0
0
0
0
0
0
0
0
0
0
0
0
0
0
0
0
0
0
0
0
0
0
0
0
0
0
0
0
0
0
0
0
0
0
0
0
0
0
0
0
0
0
0
0
0
0
0
0
0
0
0
0
0
0
0
0
0
0
0
0
0
0
0
0
0
0
0
0
0
0
0
0
0
0
0
0
0
0
0
0
0
0
0
0
0
0
0
0
0
0
0
0
0
0
0
0
0
0
0
0
0
0
0
0
0
0
0
0
0
0
0
0
0
0
0
0
0
0
0
0
0
0
0
0
0
0
0
0
0
0
0
0
0
0
0
0
0
0
0
0
0
0
0
0
0
0
0
0
0
0
0
0
0
0
0
0
0
0
0
0
0
0
0
0
0
0
0
0
0
0
0
0
0
0
0
0
0
0
0
0
0
0
0
0
0
0
0
0
0
0
0
0
0
0
0
0
0
0
0
0
0
0
0
0
0
0
0
0
0
0
0
0
0
0
0
0
0
0
0
0
0
0
0
0
0
0
0
0
0
0
0
0
0
0
0
0
0
0
0
0
0
0
0
0
0
0
0
0
0
0
0
0
0
0
0
0
0
0
0
0
0
0
0
0
0
0
0
0
0
0
0
0
0
0
0
0
0
0
0
0
0
0
0
0
0
0
0
0
0
0
0
0
0
0
0
0
0
0
0
0
0
0
0
0
0
0
0
0
0
0
0
0
0
0
0
0
0
0
0
0
0
0
0
0
0
0
0
0
0
0
0
0
0
0
0
0
0
0
0
0
0
0
0
0
0
0
0
0
0
0
0
0
0
0
0
0
0
0
0
0
0
0
0
0
0
0
0
0
0
0
0
0
0
0
0
0
0
0
0
0
0
0
0
0
0
0
0
0
0
0
0
0
0
0
0
0
0
0
0
0
0
0
0
0
0
0
0
0
0
0
0
0
0
0
0
0
0
0
0
0
0
0
0
0
0
0
0
0
0
0
0
0
0
0
0
0
0
0
0
0
0
0
0
0
0
0
0
0
0
0
0
0
0
0
0
0
0
0
0
0
0
0
0
0
0
0
0
0
0
0
0
0
0
0
0
0
0
0
0
0
0
0
0
0
0
0
0
0
0
0
0
0
0
0
0
0
0
0
0
0
0
0
0
0
0
0
0
0
0
0
0
0
0
0
0
0
0
0
0
0
0
0
0
0
0
0
0
0
0
0
0
0
0
0
0
0
0
0
0
0
0
0
0
0
0
0
0
0
0
0
0
0
0
0
0
0
0
0
0
0
0
0
0
0
0
0
0
0
0
0
0
0
0
0
0
0
0
0
0
0
0
0
0
0
0
0
0
0
0
0
0
0
0
0
0
0
0
0
0
0
0
0
0
0
0
0
0
0
0
0
0
0
0
0
0
0
0
0
0
0
0
0
0
0
0
0
0
0
0
0
0
0
0
0
0
0
0
0
0
0
0
0
0
0
0
0
0
0
0
0
0
0
0
0
0
0
0
0
0
0
0
0
0
0
0
0
0
0
0
0
0
0
0
0
0
0
0
0
0
0
0
0
0
0
0
0
0
0
0
0
0
0
0
0
0
0
0
0
0
0
0
0
0
0
0
0
0
0
0
0
0
0
0
0
0
0
0
0
0
0
0
0
0
0
0
0
0
0
0
0
0
0
0
0
0
0
0
0
0
0
0
0
0
0
0
0
0
0
0
0
0
0
0
0
0
0
0
0
0
0
0
0
0
0
0
0
0
0
0
0
0
0
0
0
0
0
0
0
0
0
0
0
0
0
0
0
0
0
0
0
0
0
0
0
0
0
0
0
0
0
0
0
0
0
0
0
0
0
0
0
0
0
0
0
0
0
0
0
0
0
0
0
0
0
0
0
0
0
0
0
0
0
0
0
0
0
0
0
0
0
0
0
0
0
0
0
0
0
0
0
0
0
0
0
0
0
0
0
0
0
0
0
0
0
0
0
0
0
0
0
0
0
0
0
0
0
0
0
0
0
0
0
0
0
0
0
0
0
0
0
0
0
0
0
0
0
0
0
0
0
0
0
0
0
0
0
0
0
0
0
0
0
0
0
0
0
0
0
0
0
0
0
0
0
0
0
0
0
0
0
0
0
0
0
0
0
0
0
0
0
0
0
0
0
0
0
0
0
0
0
0
0
0
0
0
0
0
0
0
0
0
0
0
0
0
0
0
0
0
0
0
0
0
0
0
0
0
0
0
0
0
0
0
0
0
0
0
0
0
0
0
0
0
0
0
0
0
0
0
0
0
0
0
0
0
0
0
0
0
0
0
0
0
0
0
0
0
0
0
0
0
0
0
0
0
0
0
0
0
0
0
0
0
0
0
0
0
0
0
0
0
0
0
0
0
0
0
0
0
0
0
0
0
0
0
0
0
0
0
0
0
0
0
0
0
0
0
0
0
0
0
0
0
0
0
0
0
0
0
0
0
0
0
0
0
0
0
0
0
0
0
0
0
0
0
0
0
0
0
0
0
0
0
0
0
0
0
0
0
0
0
0
0
0
0
0
0
0
0
0
0
0
0
0
0
0
0
0
0
0
0
0
0
0
0
0
0
0
0
0
0
0
0
0
0
0
0
0
0
0
0
0
0
0
0
0
0
0
0
0
0
0
0
0
0
0
0
0
0
0
0
0
0
0
0
0
0
0
0
0
0
0
0
0
0
0
0
0
0
0
0
0
0
0
0
0
0
0
0
0
0
0
0
0
0
0
0
0
0
0
0
0
0
0
0
0
0
0
0
0
0
0
0
0
0
0
0
0
0
0
0
0
0
0
0
0
0
0
0
0
0
0
0
0
0
0
0
0
0
0
0
0
0
0
0
0
0
0
0
0
0
0
0
0
0
0
0
0
0
0
0
0
0
0
0
0
0
0
0
0
0
0
0
0
0
0
0
0
0
0
0
0
0
0
0
0
0
0
0
0
0
0
0
0
0
0
0
0
0
0
0
0
0
0
0
0
0
0
0
0
0
0
0
0
0
0
0
0
0
0
0
0
0
0
0
0
0
0
0
0
0
0
0
0
0
0
0
0
0
0
0
0
0
0
0
0
0
0
0
0
0
0
0
0
0
0
0
0
0
0
0
0
0
0
0
0
0
0
0
0
0
0
0
0
0
0
0
0
0
0
0
0
0
0
0
0
0
0
0
0
0
0
0
0
0
0
0
0
0
0
0
0
0
0
0
0
0
0
0
0
0
0
0
0
0
0
0
0
0
0
0
0
0
0
0
0
0
0
0
0
0
0
0
0
0
0
0
0
0
0
0
0
0
0
0
0
0
0
0
0
0
0
0
0
0
0
0
0
0
0
0
0
0
0
0
0
0
0
0
0
0
0
0
0
0
0
0
0
0
0
0
0
0
0
0
0
0
0
0
0
0
0
0
0
0
0
0
0
0
0
0
0
0
0
0
0
0
0
0
0
0
0
0
0
0
0
0
0
0
0
0
0
0
0
0
0
0
0
0
0
0
0
0
0
0
0
0
0
0
0
0
0
0
0
0
0
0
0
0
0
0
0
0
0
0
0
0
0
0
0
0
0
0
0
0
0
0
0
0
0
0
0
0
0
0
0
0
0
0
0
0
0
0
0
0
0
0
0
0
0
0
0
0
0
0
0
0
0
0
0
0
0
0
0
0
0
0
0
0
0
0
0
0
0
0
0
0
0
0
0
0
0
0
0
0
0
0
0
0
0
0
0
0
0
0
0
0
0
0
0
0
0
0
0
0
0
0
0
0
0
0
0
0
0
0
0
0
0
0
0
0
0
0
0
0
0
0
0
0
0
0
0
0
0
0
0
0
0
0
0
0
0
0
0
0
0
0
0
0
0
0
0
0
0
0
0
0
0
0
0
0
0
0
0
0
0
0
0
0
0
0
0
0
0
0
0
0
0
0
0
0
0
0
0
0
0
0
0
0
0
0
0
0
0
0
0
0
0
0
0
0
0
0
0
0
0
0
0
0
0
0
0
0
0
0
0
0
0
0
0
0
0
0
0
0
0
0
0
0
0
0
0
0
0
0
0
0
0
0
0
0
0
0
0
0
0
0
0
0
0
0
0
0
0
0
0
0
0
0
0
0
0
0
0
0
0
0
0
0
0
0
0
0
0
0
0
0
0
0
0
0
0
0
0
0
0
0
0
0
0
0
0
0
0
0
0
0
0
0
0
0
0
0
0
0
0
0
0
0
0
0
0
0
0
0
0
0
0
0
0
0
0
0
0
0
0
0
0
0
0
0
0
0
0
0
0
0
0
0
0
0
0
0
0
0
0
0
0
0
0
0
0
0
0
0
0
0
0
0
0
0
0
0
0
0
0
0
0
0
0
0
0
0
0
0
0
0
0
0
0
0
0
0
0
0
0
0
0
0
0
0
0
0
0
0
0
0
0
0
0
0
0
0
0
0
0
0
0
0
0
0
0
0
0
0
0
0
0
0
0
0
0
0
0
0
0
0
0
0
0
0
0
0
0
0
0
0
0
0
0
0
0
0
0
0
0
0
0
0
0
0
0
0
0
0
0
0
0
0
0
0
0
0
0
0
0
0
0
0
0
0
0
0
0
0
0
0
0
0
0
0
0
0
0
0
0
0
0
0
0
0
0
0
0
0
0
0
0
0
0
0
0
0
0
0
0
0
0
0
0
0
0
0
0
0
0
0
0
0
0
0
0
0
0
0
0
0
0
0
0
0
0
0
0
0
0
0
0
0
0
0
0
0
0
0
0
0
0
0
0
0
0
0
0
0
0
0
0
0
0
0
0
0
0
0
0
0
0
0
0
0
0
0
0
0
0
0
0
0
0
0
0
0
0
0
0
0
0
0
0
0
0
0
0
0
0
0
0
0
0
0
0
0
0
0
0
0
0
0
0
0
0
0
0
0
0
0
0
0
0
0
0
0
0
0
0
0
0
0
0
0
0
0
0
0
0
0
0
0
0
0
0
0
0
0
0
0
0
0
0
0
0
0
0
0
0
0
0
0
0
0
0
0
0
0
0
0
0
0
0
0
0
0
0
0
0
0
0
0
0
0
0
0
0
0
0
0
0
0
0
0
0
0
0
0
0
0
0
0
0
0
0
0
0
0
0
0
0
0
0
0
0
0
0
0
0
0
0
0
0
0
0
0
0
0
0
0
0
0
0
0
0
0
0
0
0
0
0
0
0
0
0
0
0
0
0
0
0
0
0
0
0
0
0
0
0
0
0
0
0
0
0
0
0
0
0
0
0
0
0
0
0
0
0
0
0
0
0
0
0
0
0
0
0
0
0
0
0
0
0
0
0
0
0
0
0
0
0
0
0
0
0
0
0
0
0
0
0
0
0
0
0
0
0
0
0
0
0
0
0
0
0
0
0
0
0
0
0
0
0
0
0
0
0
0
0
0
0
0
0
0
0
0
0
0
0
0
0
0
0
0
0
0
0
0
0
0
0
0
0
0
0
0
0
0
0
0
0
0
0
0
0
0
0
0
0
0
0
0
0
0
0
0
0
0
0
0
0
0
0
0
0
0
0
0
0
0
0
0
0
0
0
0
0
0
0
0
0
0
0
0
0
0
0
0
0
0
0
0
0
0
0
0
0
0
0
0
0
0
0
0
0
0
0
0
0
0
0
0
0
0
0
0
0
0
0
0
0
0
0
0
0
0
0
0
0
0
0
0
0
0
0
0
0
0
0
0
0
0
0
0
0
0
0
0
0
0
0
0
0
0
0
0
0
0
0
0
0
0
0
0
0
0
0
0
0
0
0
0
0
0
0
0
0
0
0
0
0
0
0
0
0
0
0
0
0
0
0
0
0
0
0
0
0
0
0
0
0
0
0
0
0
0
0
0
0
0
0
0
0
0
0
0
0
0
0
0
0
0
0
0
0
0
0
0
0
0
0
0
0
0
0
0
0
0
0
0
0
0
0
0
0
0
0
0
0
0
0
0
0
0
0
0
0
0
0
0
0
0
0
0
0
0
0
0
0
0
0
0
0
0
0
0
0
0
0
0
0
0
0
0
0
0
0
0
0
0
0
0
0
0
0
0
0
0
0
0
0
0
0
0
0
0
0
0
0
0
0
0
0
0
0
0
0
0
0
0
0
0
0
0
0
0
0
0
0
0
0
0
0
0
0
0
0
0
0
0
0
0
0
0
0
0
0
0
0
0
0
0
0
0
0
0
0
0
0
0
0
0
0
0
0
0
0
0
0
0
0
0
0
0
0
0
0
0
0
0
0
0
0
0
0
0
0
0
0
0
0
0
0
0
0
0
0
0
0
0
0
0
0
0
0
0
0
0
0
0
0
0
0
0
57.9801
77.3119
75.0657
66.5963
120.096
37.2734
105.393
75.4432
68.3518
102.446
51.1978
51.2296
50.3266
67.6479
79.4832
113.497
119.947
26.3562
39.5589
52.6154
73.9907
210.257
265.685
218.951
53.1879
82.7829
116.722
123.279
137.399
161.781
192.233
96.9704
88.5005
93.1932
45.9774
178.193
312.55
79.7538
85.1152
30.285
70.0585
137.299
32.971
55.5623
27.2631
59.117
91.9603
35.2437
74.4504
163.664
165.454
136.493
55.5145
42.097
64.5228
33.62
127.89
120.226
189.526
47.9106
71.494
32.1257
31.682
36.1146
178.68
104.185
80.8844
145.166
97.3043
65.8114
207.564
237.832
298.551
108.743
76.4195
65.5537
38.9693
141.19
88.9105
125.169
45.4084
48.313
106.947
109.327
36.2764
89.0253
56.3233
40.9194
37.1125
45.3408
126.249
18.7934
43.902
66.1043
15.3008
41.563
62.8828
67.4993
32.6276
38.3916
37.0881
31.5151
50.4083
18.7449
129.868
17.0444
27.6712
25.722
12.7998
119.699
14.8278
69.5529
0
0
0
51.4762
33.1612
56.4987
87.2563
-1.3476e-16
0
-1.37601e-15
10.1411
10.7684
57.3698
67.8666
0.16772
0.17929
18.2548
34.4697
45.8604
10.551
81.3303
0
0.749221
0.140629
9.74445
76.0146
14.562
45.9732
38.5636
38.5283
0.291153
184.556
201.139
104.839
64.1484
29.2241
0
2.97923
187.325
174.784
50.1408
82.2668
46.7428
47.8357
15.6805
117.373
98.7902
224.838
51.0961
1.562
71.2782
4.6427
181.217
40.288
135.97
88.1286
274.728
359.045
238.29
99.037
154.326
95.5048
34.0594
189.327
211.074
156.336
78.7425
54.1687
32.0485
68.7304
309.257
244.854
228.669
93.0766
105.943
186.906
56.5701
187.7
192.789
228.769
85.1606
50.2154
75.234
32.6008
184.368
232.531
268.828
36.602
66.4696
29.7377
16.1556
133.913
224.403
201.415
25.8363
26.4053
17.3799
39.6523
199.71
110.59
215.514
76.956
52.0128
202.766
17.1411
211.872
167.157
239.963
49.0821
11.5809
31.3827
10.334
204.101
294.58
282.872
7.87056
0
10.7069
8.33229
112.398
226.198
169.261
0.391561
17.8135
16.1642
44.0072
207.135
41.0912
227.391
30.9688
7.56138
33.2008
7.92029
201.69
150.709
234.186
2.3399
12.2351
5.6442
12.6102
176.904
168.716
130.272
62.2569
126.592
126.976
140.741
97.6114
108.162
113.408
143.835
127.855
162.213
168.053
219.297
246.198
162.108
35.8009
45.1074
59.4347
122.79
158.022
122.46
142.151
63.4355
156.501
111.937
168.509
151.351
196.309
223.994
57.5327
43.6367
75.1148
102.374
96.1198
172.441
130.548
81.0959
93.6317
94.096
175.108
222.188