/*--------------------------------*- C++ -*----------------------------------*\
| =========                 |                                                 |
| \\      /  F ield         | OpenFOAM: The Open Source CFD Toolbox           |
|  \\    /   O peration     | Version:  5.x                                   |
|   \\  /    A nd           | Web:      www.OpenFOAM.org                      |
|    \\/     M anipulation  |                                                 |
\*---------------------------------------------------------------------------*/
FoamFile
{
    version     2.0;
    format      ascii;
    class       volScalarField;
    location    "0.1";
    object      voidfraction;
}
// * * * * * * * * * * * * * * * * * * * * * * * * * * * * * * * * * * * * * //

dimensions      [0 0 0 0 0 0 0];

internalField   nonuniform List<scalar> 
10571
(
0.846464
0.593066
0.987436
0.992576
0.840242
0.97618
0.971545
0.975721
0.959004
0.745664
0.82643
0.994121
0.967829
0.972346
0.961056
0.886958
0.832594
0.963788
0.969304
0.955282
0.560771
0.856344
0.913956
0.637409
0.930859
0.849633
0.994064
0.995168
0.981333
0.993813
0.982101
0.984169
0.982437
0.939848
0.928073
0.996009
0.985228
0.982498
0.983368
0.973252
0.98211
0.981551
0.983762
0.987807
0.864861
0.966871
0.962026
0.888079
0.978776
0.880171
0.999967
0.999042
0.972436
0.999371
0.991208
0.992254
0.992463
0.922921
0.989169
1
0.992176
0.993719
0.992932
0.976682
0.968866
0.989315
0.992987
0.994097
0.868832
0.956254
0.968
0.907174
0.999341
0.896443
0.97716
0.993677
0.930514
0.985736
0.986797
0.993236
0.991738
0.9184
1
0.998789
0.993621
0.998262
0.99523
0.960829
0.917796
0.991057
0.99181
0.998337
0.851278
0.944677
0.945152
0.949326
1
0.908832
0.962753
0.938594
0.928469
0.959727
0.988363
0.989267
0.997299
0.887891
0.996811
0.933619
0.990352
0.991628
0.994269
0.974401
0.918235
0.99053
0.987265
0.976736
0.857859
0.945062
0.958335
0.954374
1
0.907865
0.972298
0.951377
0.936967
0.976114
0.988244
0.993064
0.99687
0.939311
1
1
0.95837
0.99228
0.999451
0.998234
0.988842
1
0.938835
0.987393
0.989707
0.987457
0.893351
0.94254
0.967956
0.94937
1
0.945947
0.970298
0.95279
0.936782
0.977628
0.991205
0.990043
0.994265
0.956227
1
1
0.954128
0.987899
0.989707
0.995244
0.987734
0.997829
0.935851
0.975709
0.973855
0.989457
0.907057
1
0.942964
0.981155
0.959367
0.996812
0.94197
0.967023
0.964688
0.942163
0.960323
0.973276
0.977345
0.992983
0.95677
1
0.993732
0.951282
0.976789
0.981514
0.994944
0.985533
0.956443
0.943608
0.979732
0.981504
0.987202
0.90045
1
0.930265
0.963915
0.948193
0.996702
0.946172
0.967297
0.962449
0.959369
0.966847
0.975309
0.969659
0.989733
0.954412
0.851319
0.991973
0.958321
0.971396
0.958919
0.988075
0.979147
0.735819
0.952782
0.956164
0.961337
0.967075
0.889031
0.945868
0.958351
0.947856
0.988017
0.943879
0.942747
0.938253
0.948307
0.975504
0.960469
0.949212
0.968973
0.849727
0.990213
0.943887
0.949009
0.943656
0.968338
0.800993
0.960905
0.93365
0.93139
0.97721
0.843851
0.925891
0.960801
0.948858
0.984059
0.961022
0.983947
0.988001
0.958806
0.970003
0.892732
0.882962
0.854628
0.706156
0.994832
0.993981
0.875033
0.820725
0.764856
0.58525
0.970471
0.850841
0.801476
0.913069
0.787458
0.936775
0.965366
0.941681
0.984388
0.946295
0.948245
0.968173
0.952874
0.965684
0.818058
0.685611
0.627531
0.679075
0.985376
0.952467
0.705071
0.457733
0.444117
0.549442
0.967287
0.674983
0.477578
0.736415
0.695711
0.918192
0.939459
0.892824
0.945245
0.923897
0.967433
0.969156
0.94875
0.960013
0.787578
0.619359
0.546012
0.535745
0.97383
0.966061
0.642407
0.428348
0.428661
0.464203
0.958328
0.587015
0.436877
0.409494
0.49096
0.854545
0.765256
0.548143
0.917098
0.865153
0.951184
0.945203
0.718951
0.939075
0.695216
0.569711
0.65407
0.516004
0.939635
0.95484
0.57255
0.698042
0.865823
0.878191
0.823393
0.562461
0.747468
0.754977
0.974095
0.495692
0.420329
0.732478
0.565809
0.499144
0.4225
0.433868
0.504478
0.419702
0.785567
0.930763
0.989718
1
0.529398
0.431182
0.907009
0.999748
1
0.998972
0.430795
0.968728
1
1
1
0.958846
1
1
1
1
1
1
1
1
1
1
1
1
1
1
1
1
1
1
1
1
1
1
1
1
1
1
1
1
1
1
1
1
1
1
1
1
1
1
1
1
1
1
1
1
1
1
1
1
1
1
1
1
1
1
1
1
1
1
1
1
1
1
1
1
1
1
1
1
1
1
1
1
1
1
1
1
1
1
1
1
1
1
1
1
1
1
1
1
1
1
1
1
1
1
1
1
1
1
1
1
1
1
1
1
1
1
1
1
1
1
1
1
1
1
1
1
1
1
1
1
1
1
1
1
1
1
1
1
1
1
1
1
1
1
1
1
1
1
1
1
1
1
1
1
1
1
1
1
1
1
1
1
1
1
1
1
1
1
1
1
1
1
1
1
1
1
1
1
1
1
1
1
1
1
1
1
1
1
1
1
1
1
1
1
1
1
1
1
1
1
1
1
1
1
1
1
1
1
1
1
1
1
1
1
1
1
1
1
1
1
1
1
1
1
1
1
1
1
1
1
1
1
1
1
1
1
1
1
1
1
1
1
1
1
1
1
1
1
1
1
1
1
1
1
1
1
1
1
1
1
1
1
1
1
1
1
1
1
1
1
1
1
1
1
1
1
1
1
1
1
1
1
1
1
1
1
1
1
1
1
1
1
1
1
1
1
1
1
1
1
1
1
1
1
1
1
1
1
1
1
1
1
1
1
1
1
1
1
1
1
1
1
1
1
1
1
1
1
1
1
1
1
1
1
1
1
1
1
1
1
1
1
1
1
1
1
1
1
1
1
1
1
1
1
1
1
1
1
1
1
1
1
1
1
1
1
1
1
1
1
1
1
1
1
1
1
1
1
1
1
1
1
1
1
1
1
1
1
1
1
1
1
1
1
1
1
1
1
1
1
1
1
1
1
1
1
1
1
1
1
1
1
1
1
1
1
1
1
1
1
1
1
1
1
1
1
1
1
1
1
1
1
1
1
1
1
1
1
1
1
1
1
1
1
1
1
1
1
1
1
1
1
1
1
1
1
1
1
1
1
1
1
1
1
1
1
1
1
1
1
1
1
1
1
1
1
1
1
1
1
1
1
1
1
1
1
1
1
1
1
1
1
1
1
1
1
1
1
1
1
1
1
1
1
1
1
1
1
1
1
1
1
1
1
1
1
1
1
1
1
1
1
1
1
1
1
1
1
1
1
1
1
1
1
1
1
1
1
1
1
1
1
1
1
1
1
1
1
1
1
1
1
1
1
1
1
1
1
1
1
1
1
1
1
1
1
1
1
1
1
1
1
1
1
1
1
1
1
1
1
1
1
1
1
1
1
1
1
1
1
1
1
1
1
1
1
1
1
1
1
1
1
1
1
1
1
1
1
1
1
1
1
1
1
1
1
1
1
1
1
1
1
1
1
1
1
1
1
1
1
1
1
1
1
1
1
1
1
1
1
1
1
1
1
1
1
1
1
1
1
1
1
1
1
1
1
1
1
1
1
1
1
1
1
1
1
1
1
1
1
1
1
1
1
1
1
1
1
1
1
1
1
1
1
1
1
1
1
1
1
1
1
1
1
1
1
1
1
1
1
1
1
1
1
1
1
1
1
1
1
1
1
1
1
1
1
1
1
1
1
1
1
1
1
1
1
1
1
1
1
1
1
1
1
1
1
1
1
1
1
1
1
1
1
1
1
1
1
1
1
1
1
1
1
1
1
1
1
1
1
1
1
1
1
1
1
1
1
1
1
1
1
1
1
1
1
1
1
1
1
1
1
1
1
1
1
1
1
1
1
1
1
1
1
1
1
1
1
1
1
1
1
1
1
1
1
1
1
1
1
1
1
1
1
1
1
1
1
1
1
1
1
1
1
1
1
1
1
1
1
1
1
1
1
1
1
1
1
1
1
1
1
1
1
1
1
1
1
1
1
1
1
1
1
1
1
1
1
1
1
1
1
1
1
1
1
1
1
1
1
1
1
1
1
1
1
1
1
1
1
1
1
1
1
1
1
1
1
1
1
1
1
1
1
1
1
1
1
1
1
1
1
1
1
1
1
1
1
1
1
1
1
1
1
1
1
1
1
1
1
1
1
1
1
1
1
1
1
1
1
1
1
1
1
1
1
1
1
1
1
1
1
1
1
1
1
1
1
1
1
1
1
1
1
1
1
1
1
1
1
1
1
1
1
1
1
1
1
1
1
1
1
1
1
1
1
1
1
1
1
1
1
1
1
1
1
1
1
1
1
1
1
1
1
1
1
1
1
1
1
1
1
1
1
1
1
1
1
1
1
1
1
1
1
1
1
1
1
1
1
1
1
1
1
1
1
1
1
1
1
1
1
1
1
1
1
1
1
1
1
1
1
1
1
1
1
1
1
1
1
1
1
1
1
1
1
1
1
1
1
1
1
1
1
1
1
1
1
1
1
1
1
1
1
1
1
1
1
1
1
1
1
1
1
1
1
1
1
1
1
1
1
1
1
1
1
1
1
1
1
1
1
1
1
1
1
1
1
1
1
1
1
1
1
1
1
1
1
1
1
1
1
1
1
1
1
1
1
1
1
1
1
1
1
1
1
1
1
1
1
1
1
1
1
1
1
1
1
1
1
1
1
1
1
1
1
1
1
1
1
1
1
1
1
1
1
1
1
1
1
1
1
1
1
1
1
1
1
1
1
1
1
1
1
1
1
1
1
1
1
1
1
1
1
1
1
1
1
1
1
1
1
1
1
1
1
1
1
1
1
1
1
1
1
1
1
1
1
1
1
1
1
1
1
1
1
1
1
1
1
1
1
1
1
1
1
1
1
1
1
1
1
1
1
1
1
1
1
1
1
1
1
1
1
1
1
1
1
1
1
1
1
1
1
1
1
1
1
1
1
1
1
1
1
1
1
1
1
1
1
1
1
1
1
1
1
1
1
1
1
1
1
1
1
1
1
1
1
1
1
1
1
1
1
1
1
1
1
1
1
1
1
1
1
1
1
1
1
1
1
1
1
1
1
1
1
1
1
1
1
1
1
1
1
1
1
1
1
1
1
1
1
1
1
1
1
1
1
1
1
1
1
1
1
1
1
1
1
1
1
1
1
1
1
1
1
1
1
1
1
1
1
1
1
1
1
1
1
1
1
1
1
1
1
1
1
1
1
1
1
1
1
1
1
1
1
1
1
1
1
1
1
1
1
1
1
1
1
1
1
1
1
1
1
1
1
1
1
1
1
1
1
1
1
1
1
1
1
1
1
1
1
1
1
1
1
1
1
1
1
1
1
1
1
1
1
1
1
1
1
1
1
1
1
1
1
1
1
1
1
1
0.458883
0.464859
0.486342
0.533241
0.483629
0.535164
0.458437
0.459679
0.474983
0.459512
0.447889
0.452608
0.609856
0.661301
0.740604
0.829356
0.837908
0.781035
0.638264
0.853656
0.78832
0.455836
0.462501
0.670485
0.471015
0.469844
0.480145
0.488638
0.527618
0.644773
0.824469
0.752091
0.844213
0.875521
0.828008
0.829513
0.816393
0.865671
0.859269
0.853166
0.851335
0.822369
0.674749
0.831308
0.760327
0.469411
0.480198
0.487032
0.488792
0.540672
0.47049
0.77773
0.863179
0.637558
0.824989
0.876736
0.86921
0.846583
0.86686
0.906777
0.87204
0.895463
0.86067
0.864063
0.762608
0.826069
0.663896
0.48681
0.494302
0.464524
0.468068
0.456773
0.662931
0.460302
0.463723
0.807447
0.829854
0.661056
0.753381
0.874962
0.840347
0.811879
0.655911
0.670218
0.474747
0.47562
0.460271
0.463806
0.463514
0.469445
0.523267
0.459872
0.540433
0.473766
0.492413
0.463982
0.6435
0.917039
0.787776
0.911506
0.923117
0.919707
0.987901
0.981758
0.930144
0.881092
0.954498
0.982058
0.9791
0.678621
0.917859
0.623573
0.896111
0.826396
0.794571
0.978711
0.892732
0.981809
0.977364
0.987395
0.626929
0.976635
0.823706
0.976022
0.905242
0.986054
0.978518
0.558681
0.878651
0.925665
0.813562
0.920322
0.993794
0.954603
0.975659
0.889092
0.641855
0.945996
0.972126
0.887203
0.927886
0.892355
0.949724
0.98233
0.988671
0.643238
0.782643
0.966636
0.878217
0.94715
0.669413
0.920605
0.978403
0.592786
0.820435
0.97931
0.979933
0.909256
0.981877
0.807142
0.804332
0.596975
0.987911
0.973348
0.969728
0.905157
0.86377
0.587286
0.862028
0.913528
0.763872
0.965023
0.979237
0.875221
0.870413
0.83032
0.970302
0.985946
0.93724
0.885637
0.872416
0.866048
0.895699
0.982326
0.973492
0.987727
0.974674
0.978635
0.973113
0.973815
0.980016
0.979664
0.971299
0.895479
0.89465
0.842886
0.878579
0.988293
0.981101
0.987205
0.870445
0.980244
0.972204
0.984087
0.900433
0.990659
0.98602
0.973678
0.884832
0.97625
0.975499
0.872834
0.86159
0.985456
0.915743
0.964999
0.981967
0.992506
0.981027
0.971069
0.900785
0.924359
0.951964
0.891611
0.974925
0.985487
0.97741
0.970026
0.977609
0.873051
0.942704
0.959509
0.85548
0.933646
0.903595
0.911172
0.987002
0.887185
0.975577
0.975904
0.979349
0.882141
0.972974
0.978346
0.971733
0.896727
0.973958
0.975667
0.960685
0.890372
0.879824
0.86178
0.858097
0.966499
0.935404
0.968745
0.971468
0.962664
0.968113
0.967433
0.970077
0.977952
0.99034
0.90004
0.90852
0.922257
0.971336
0.967245
0.964003
0.994292
0.932925
0.951443
0.974567
0.972558
1
0.959025
0.962783
0.903498
0.927014
0.915677
0.919037
0.960892
0.967181
0.997838
0.871589
0.936901
0.946749
0.984285
0.887892
0.998165
0.980132
0.939291
0.890538
0.98763
0.962312
0.860879
0.844077
0.975324
0.96149
0.96927
0.94629
0.982767
0.955927
0.978977
0.882941
0.925457
0.969
0.851121
0.960242
0.97604
0.997256
0.950304
0.960537
0.866822
0.934988
0.97309
0.858376
0.926317
0.916595
0.934358
1
0.896392
0.961798
0.942874
0.976454
0.89472
0.952119
0.981735
0.961643
0.884191
0.990066
0.967629
0.938436
0.897871
0.861208
0.885007
0.881378
0.976192
0.977931
0.942264
0.957402
0.999342
0.974445
1
0.961084
0.958072
0.998137
0.91576
0.926189
0.927532
0.996154
0.921396
0.929666
0.990985
0.915173
0.936362
0.932453
0.952678
1
0.925861
0.949609
0.935
0.929012
0.924769
0.92124
0.918554
0.91266
0.983091
0.885617
0.918944
0.915096
0.964918
0.890023
0.990482
0.950468
0.931053
0.880186
0.977806
0.933509
0.855158
0.84744
0.936842
0.991758
0.917989
0.928238
0.988017
0.926973
0.968764
0.858176
0.916497
0.979518
0.810078
0.92425
0.948296
1
0.927551
0.951771
0.831116
0.930211
0.981113
0.808359
0.91635
0.947381
0.938629
0.99268
0.880021
0.924403
0.925186
0.963973
0.898156
0.91789
0.957418
0.935216
0.912304
0.98018
0.938262
0.919139
0.924186
0.856417
0.905819
0.906748
0.934376
1
0.939841
0.934313
1
0.94909
1
0.941365
0.952262
1
0.955591
0.921593
0.895099
0.989885
0.926712
0.910503
1
0.939431
0.94991
0.921241
0.951592
1
0.946029
0.957186
0.940062
0.944568
0.930557
0.919545
0.924166
0.931043
0.966141
0.908038
0.912338
0.915559
0.961949
0.900225
0.959544
0.936796
0.942665
0.894939
0.988948
0.944488
0.835062
0.877861
0.93251
0.992413
0.91631
0.929869
0.996811
0.917896
0.973344
0.788094
0.929658
0.94811
0.887908
0.919612
0.93894
1
0.93859
0.963793
0.76324
0.914159
0.959471
0.884237
0.921601
0.951522
0.934845
0.95834
0.901345
0.908779
0.939139
0.983537
0.90696
0.935154
0.951097
0.941623
0.922598
0.989423
0.940896
0.949009
0.917088
0.869679
0.890927
0.925695
0.948783
0.993635
0.941107
0.943831
0.996817
0.954329
1
0.959796
0.957714
1
0.938432
0.908686
0.926945
0.996811
0.942637
0.931791
1
0.944606
0.963834
0.935045
0.958608
1
0.971719
0.967175
0.946871
0.949215
0.93215
0.931381
0.953735
0.953929
0.982774
0.91615
0.937219
0.942807
0.965182
0.906342
0.954066
0.954331
0.959317
0.915236
0.995919
0.951692
0.871
0.889002
0.953668
0.993622
0.952658
0.941976
1
0.931117
0.964037
0.980356
0.921547
0.940221
0.954795
0.988392
0.903533
1
1
1
1
1
1
1
0.948278
0.954381
0.99989
0.960698
0.964834
0.906663
0.94435
0.971473
0.997406
0.908363
0.946086
0.964589
1
1
1
0.999321
1
1
1
0.936447
0.958141
0.956419
0.916073
0.914384
0.960661
0.988051
0.925688
0.95092
0.964677
0.954082
0.923466
0.992642
0.951803
0.95176
0.924351
0.889216
0.911981
0.924223
0.949279
0.990452
0.940252
0.940863
0.989903
0.953931
1
0.973445
0.96157
0.999561
0.947106
0.926735
0.933148
0.996812
0.932179
0.921887
0.993623
0.96245
0.989824
0.935112
0.955918
1
0.980273
0.971232
0.949085
0.948732
0.946219
0.944058
0.958283
0.956336
0.981172
0.926006
0.956963
0.963607
0.984102
0.931351
0.954841
0.964153
0.972856
0.918315
0.988206
0.942356
0.900798
0.9816
0.916112
0.965768
1
1
1
1
0.944684
0.996811
0.955834
0.96338
0.996811
0.969465
0.945813
0.993075
0.907679
0.989853
0.907186
0.991921
0.899048
1
0.998516
1
1
1
0.988472
1
0.953515
0.958289
0.998131
0.977212
0.969171
0.909231
0.951615
0.952142
0.991243
0.920092
0.979556
0.926342
1
1
1
0.982292
1
1
1
0.93763
0.956187
0.963602
0.911175
0.936722
0.969623
0.981087
0.933281
0.931087
0.946306
0.936338
0.915098
0.974566
0.960364
0.948183
0.933373
0.994133
0.904349
0.986414
1
1
1
0.915267
0.915337
0.968701
0.989354
0.953341
0.953985
0.989794
0.962862
0.998903
0.955577
0.955814
0.99989
0.957119
0.914117
0.937053
0.998901
0.938489
0.943516
0.988345
0.95351
0.940942
0.970851
0.972437
1
0.951668
0.965151
0.939776
0.948845
0.946427
0.956389
0.939671
0.932878
0.960256
0.959166
0.957414
0.97398
0.992051
0.940659
0.969384
0.96384
0.949922
0.927117
0.973272
0.94807
0.932851
0.965172
0.92075
0.969222
1
1
1
1
0.945961
0.996811
0.943533
0.951496
0.987244
0.954288
0.913432
0.98164
0.891461
0.969364
0.905505
0.988891
0.911499
1
0.952569
0.99923
0.993268
0.990392
0.927517
0.99053
0.945938
0.960147
0.989113
0.957848
0.97072
0.92562
0.946165
0.924591
0.992496
0.955149
0.967348
0.93451
0.998059
0.999943
0.999119
0.931842
0.984678
0.980996
0.982243
0.957932
0.966024
0.972409
0.934238
0.941535
0.938615
0.954721
0.924619
0.918677
0.939308
0.955417
0.919635
0.982676
0.952665
0.93533
0.931316
0.98571
0.906673
0.982322
1
1
0.999022
0.946124
0.927653
0.936012
0.985953
0.930961
0.944078
0.979807
0.95582
0.992538
0.959323
0.961284
0.992538
0.957577
0.924296
0.945002
0.980979
0.954827
0.963746
0.985046
0.956223
0.96199
0.968998
0.969283
0.991425
0.960969
0.966531
0.955468
0.946436
0.954927
0.962452
0.95247
0.944713
0.965895
0.958496
0.958317
0.96239
0.953591
0.948317
0.980289
0.958563
0.961418
0.937497
0.97258
0.960142
0.940732
0.919262
0.963265
0.984275
0.958469
0.957692
0.991533
0.976009
0.886324
0.969618
0.903261
0.894047
0.801295
0.912041
0.643129
0.896412
0.751002
0.798361
0.716449
0.830603
0.542544
0.582161
0.97006
0.969404
0.979327
0.971789
0.966345
0.909168
0.949257
0.860699
0.904273
0.634852
0.880948
0.757314
0.765082
0.795118
0.869566
0.532329
0.574679
0.668602
0.829611
0.966932
0.967421
0.970922
0.965966
0.948467
0.949295
0.95928
0.926646
0.930273
0.941414
0.948711
0.944098
0.963491
0.935608
0.926749
0.934288
0.855446
0.93388
0.937449
0.937578
0.988257
0.937197
0.958794
0.985513
0.946808
0.996927
0.972519
0.959813
0.989246
0.943819
0.908968
0.940755
0.979658
0.947711
0.95436
0.982737
0.946631
0.945883
0.967397
0.969946
0.986698
0.95174
0.974524
0.936385
0.954952
0.944897
0.950264
0.949752
0.945852
0.980203
0.960796
0.958415
0.964987
0.980402
0.962075
0.988243
0.970809
0.981567
0.936245
0.984721
0.979878
0.922601
0.933791
0.968802
0.985265
0.942539
0.95185
0.974379
0.965985
0.801367
0.838978
0.801092
0.70064
0.770916
0.940277
0.970683
0.985265
0.967458
0.961003
0.823903
0.806636
0.680673
0.775451
0.715695
0.961004
0.952214
0.981289
0.942455
0.951347
0.939978
0.964834
0.945607
0.95904
0.969117
0.950818
0.960872
0.932275
0.924249
0.907592
0.951038
0.821956
0.937521
0.954734
0.933141
0.980135
0.933328
0.940736
0.989464
0.95599
1
0.96609
0.951981
0.989356
0.945794
0.944312
0.936018
0.983616
0.957006
0.975653
0.982297
0.964941
0.964148
0.967649
0.966633
0.98054
0.971377
0.964971
0.936699
0.944095
0.968515
0.962316
0.970881
0.968028
0.957262
0.959902
0.955575
0.960104
0.955998
0.928725
0.990138
0.96629
0.978885
0.955465
0.998518
0.967353
0.929341
0.900911
0.973023
0.987465
0.974498
0.970275
0.987245
0.955842
0.60217
0.828955
0.649464
0.570236
0.849455
0.966793
0.964025
0.987575
0.965613
0.973668
0.862545
0.627423
0.580773
0.930069
0.632962
0.964214
0.966168
0.982681
0.953145
0.950049
0.956972
0.989248
0.962765
0.969668
0.931387
0.89229
0.95866
0.843135
0.896162
0.869927
0.950188
0.749761
0.96208
0.960681
0.936145
0.987269
0.9204
0.917032
0.993634
0.95014
0.996708
0.944803
0.92931
0.994074
0.929228
0.94745
0.922779
0.978229
0.949076
0.974262
0.979328
0.950703
0.954399
0.953749
0.970196
0.971523
0.964472
0.972519
0.944093
0.908331
0.952147
0.937938
0.955488
0.956679
0.995412
0.938848
0.960071
0.96112
0.957698
0.931248
0.995883
0.967681
0.962152
0.906232
0.998715
0.970573
0.913299
0.866034
0.959091
0.968222
0.956449
0.948835
0.964813
0.968776
0.550442
0.87449
0.647504
0.498578
0.834093
0.973824
0.97088
0.987245
0.968068
0.962633
0.928133
0.595101
0.50104
0.927352
0.496944
0.96582
0.928642
0.997724
0.947692
0.962948
0.956734
0.9938
0.944543
0.971546
0.818112
0.799802
0.893294
0.521075
0.582204
0.61839
0.716134
0.576729
0.953965
0.924861
0.921653
0.99572
0.908786
0.897916
0.989025
0.913319
0.988587
0.920313
0.86967
0.994622
0.770101
0.926682
0.91351
0.962835
0.937045
0.966996
0.948761
0.932866
0.953794
0.957111
0.946041
0.949643
0.943664
0.929899
0.903582
0.883294
0.943023
0.934177
0.956058
0.956264
0.970748
0.902617
0.937398
0.937257
0.97859
0.889413
0.999703
0.951173
0.918797
0.823488
0.993146
0.816414
0.756521
0.601182
0.943687
0.965254
0.968958
0.943649
0.959097
0.938613
0.438134
0.735278
0.48699
0.435597
0.731869
0.984337
0.970919
0.97526
0.963343
0.955276
0.886899
0.469559
0.517998
0.929326
0.504522
0.928293
0.887417
0.997955
0.913158
0.964493
0.932712
0.994493
0.883517
0.931954
0.40861
0.432401
0.505122
0.39483
0.392628
0.40135
0.461235
0.492694
0.9101
0.817192
0.801268
0.972452
0.654155
0.491369
0.70136
0.595826
0.970917
0.462177
0.454138
0.706314
0.499056
0.849672
0.607349
0.903129
0.886318
0.908042
0.637807
0.567326
0.591111
0.896383
0.892623
0.721827
0.590016
0.557216
0.778439
0.575986
0.867032
0.654938
0.910171
0.912052
0.94371
0.585607
0.57269
0.593454
0.673
0.605776
0.807502
0.502991
0.444176
0.486024
0.455522
0.439798
0.524907
0.662925
0.88815
0.934907
0.937311
0.623737
0.743255
0.662905
0.779213
0.919576
0.895173
0.997367
0.983167
0.93432
0.922749
0.764919
0.673084
0.662033
0.955158
0.969607
0.967408
0.978239
1
0.818851
0.581411
0.919606
0.726653
0.646328
0.458573
0.515926
0.50955
0.429812
0.895122
0.711157
0.852547
1
1
1
1
1
0.531541
0.514121
0.415804
0.545181
0.524343
0.729119
0.841845
0.543729
0.52984
0.875774
0.998838
0.835378
1
0.514867
0.745412
0.57887
0.441688
0.40541
0.784707
0.698653
0.684008
0.429821
0.475656
0.775593
0.734007
0.877566
0.559672
0.951059
0.513403
0.700004
0.402258
0.397364
0.430695
0.710429
0.620735
0.604181
0.575746
0.739529
0.601909
0.860702
0.986391
1
0.999967
1
0.997202
0.997971
0.468618
0.584151
0.411908
0.650441
0.73215
0.610422
1
1
1
1
1
0.424361
0.458548
0.69103
0.634943
0.749584
0.99989
1
1
1
1
0.501753
0.862307
0.446082
0.577437
0.612549
0.895251
0.976159
0.989032
0.999909
1
1
1
1
1
1
1
1
0.862247
1
1
1
1
1
1
1
1
1
1
1
1
1
1
1
1
1
1
1
1
1
1
1
1
1
1
1
1
1
1
1
1
1
1
1
1
1
1
1
1
1
1
1
1
1
1
1
1
1
1
1
1
1
1
1
1
1
1
1
1
1
1
1
1
1
1
1
1
1
1
1
1
1
1
1
1
1
1
1
1
1
1
1
1
1
1
1
1
1
1
1
1
1
1
1
1
1
1
1
1
1
1
1
1
1
1
1
1
1
1
1
1
1
1
1
1
1
1
1
1
1
1
1
1
1
1
1
1
1
1
1
1
1
1
1
1
1
1
1
1
1
1
1
1
1
1
1
1
1
1
1
1
1
1
1
1
1
1
1
1
1
1
1
1
1
1
1
1
1
1
1
1
1
1
1
1
1
1
1
1
1
1
1
1
1
1
1
1
1
1
1
1
1
1
1
1
1
1
1
1
1
1
1
1
1
1
1
1
1
1
1
1
1
1
1
1
1
1
1
1
1
1
1
1
1
1
1
1
1
1
1
1
1
1
1
1
1
1
1
1
1
1
1
1
1
1
1
1
1
1
1
1
1
1
1
1
1
1
1
1
1
1
1
1
1
1
1
1
1
1
1
1
1
1
1
1
1
1
1
1
1
1
1
1
1
1
1
1
1
1
1
1
1
1
1
1
1
1
1
1
1
1
1
1
1
1
1
1
1
1
1
1
1
1
1
1
1
1
1
1
1
1
1
1
1
1
1
1
1
1
1
1
1
1
1
1
1
1
1
1
1
1
1
1
1
1
1
1
1
1
1
1
1
1
1
1
1
1
1
1
1
1
1
1
1
1
1
1
1
1
1
1
1
1
1
1
1
1
1
1
1
1
1
1
1
1
1
1
1
1
1
1
1
1
1
1
1
1
1
1
1
1
1
1
1
1
1
1
1
1
1
1
1
1
1
1
1
1
1
1
1
1
1
1
1
1
1
1
1
1
1
1
1
1
1
1
1
1
1
1
1
1
1
1
1
1
1
1
1
1
1
1
1
1
1
1
1
1
1
1
1
1
1
1
1
1
1
1
1
1
1
1
1
1
1
1
1
1
1
1
1
1
1
1
1
1
1
1
1
1
1
1
1
1
1
1
1
1
1
1
1
1
1
1
1
1
1
1
1
1
1
1
1
1
1
1
1
1
1
1
1
1
1
1
1
1
1
1
1
1
1
1
1
1
1
1
1
1
1
1
1
1
1
1
1
1
1
1
1
1
1
1
1
1
1
1
1
1
1
1
1
1
1
1
1
1
1
1
1
1
1
1
1
1
1
1
1
1
1
1
1
1
1
1
1
1
1
1
1
1
1
1
1
1
1
1
1
1
1
1
1
1
1
1
1
1
1
1
1
1
1
1
1
1
1
1
1
1
1
1
1
1
1
1
1
1
1
1
1
1
1
1
1
1
1
1
1
1
1
1
1
1
1
1
1
1
1
1
1
1
1
1
1
1
1
1
1
1
1
1
1
1
1
1
1
1
1
1
1
1
1
1
1
1
1
1
1
1
1
1
1
1
1
1
1
1
1
1
1
1
1
1
1
1
1
1
1
1
1
1
1
1
1
1
1
1
1
1
1
1
1
1
1
1
1
1
1
1
1
1
1
1
1
1
1
1
1
1
1
1
1
1
1
1
1
1
1
1
1
1
1
1
1
1
1
1
1
1
1
1
1
1
1
1
1
1
1
1
1
1
1
1
1
1
1
1
1
1
1
1
1
1
1
1
1
1
1
1
1
1
1
1
1
1
1
1
1
1
1
1
1
1
1
1
1
1
1
1
1
1
1
1
1
1
1
1
1
1
1
1
1
1
1
1
1
1
1
1
1
1
1
1
1
1
1
1
1
1
1
1
1
1
1
1
1
1
1
1
1
1
1
1
1
1
1
1
1
1
1
1
1
1
1
1
1
1
1
1
1
1
1
1
1
1
1
1
1
1
1
1
1
1
1
1
1
1
1
1
1
1
1
1
1
1
1
1
1
1
1
1
1
1
1
1
1
1
1
1
1
1
1
1
1
1
1
1
1
1
1
1
1
1
1
1
1
1
1
1
1
1
1
1
1
1
1
1
1
1
1
1
1
1
1
1
1
1
1
1
1
1
1
1
1
1
1
1
1
1
1
1
1
1
1
1
1
1
1
1
1
1
1
1
1
1
1
1
1
1
1
1
1
1
1
1
1
1
1
1
1
1
1
1
1
1
1
1
1
1
1
1
1
1
1
1
1
1
1
1
1
1
1
1
1
1
1
1
1
1
1
1
1
1
1
1
1
1
1
1
1
1
1
1
1
1
1
1
1
1
1
1
1
1
1
1
1
1
1
1
1
1
1
1
1
1
1
1
1
1
1
1
1
1
1
1
1
1
1
1
1
1
1
1
1
1
1
1
1
1
1
1
1
1
1
1
1
1
1
1
1
1
1
1
1
1
1
1
1
1
1
1
1
1
1
1
1
1
1
1
1
1
1
1
1
1
1
1
1
1
1
1
1
1
1
1
1
1
1
1
1
1
1
1
1
1
1
1
1
1
1
1
1
1
1
1
1
1
1
1
1
1
1
1
1
1
1
1
1
1
1
1
1
1
1
1
1
1
1
1
1
1
1
1
1
1
1
1
1
1
1
1
1
1
1
1
1
1
1
1
1
1
1
1
1
1
1
1
1
1
1
1
1
1
1
1
1
1
1
1
1
1
1
1
1
1
1
1
1
1
1
1
1
1
1
1
1
1
1
1
1
1
1
1
1
1
1
1
1
1
1
1
1
1
1
1
1
1
1
1
1
1
1
1
1
1
1
1
1
1
1
1
1
1
1
1
1
1
1
1
1
1
1
1
1
1
1
1
1
1
1
1
1
1
1
1
1
1
1
1
1
1
1
1
1
1
1
1
1
1
1
1
1
1
1
1
1
1
1
1
1
1
1
1
1
1
1
1
1
1
1
1
1
1
1
1
1
1
1
1
1
1
1
1
1
1
1
1
1
1
1
1
1
1
1
1
1
1
1
1
1
1
1
1
1
1
1
1
1
1
1
1
1
1
1
1
1
1
1
1
1
1
1
1
1
1
1
1
1
1
1
1
1
1
1
1
1
1
1
1
1
1
1
1
1
1
1
1
1
1
1
1
1
1
1
1
1
1
1
1
1
1
1
1
1
1
1
1
1
1
1
1
1
1
1
1
1
1
1
1
1
1
1
1
1
1
1
1
1
1
1
1
1
1
1
1
1
1
1
1
1
1
1
1
1
1
1
1
1
1
1
1
1
1
1
1
1
1
1
1
1
1
1
1
1
1
1
1
1
1
1
1
1
1
1
1
1
1
1
1
1
1
1
1
1
1
1
1
1
1
1
1
1
1
1
1
1
1
1
1
1
1
1
1
1
1
1
1
1
1
1
1
1
1
1
1
1
1
1
1
1
1
1
1
1
1
1
1
1
1
1
1
1
1
1
1
1
1
1
1
1
1
1
1
1
1
1
1
1
1
1
1
1
1
1
1
1
1
1
1
1
1
1
1
1
1
1
1
1
1
1
1
1
1
1
1
1
1
1
1
1
1
1
1
1
1
1
1
1
1
1
1
1
1
1
1
1
1
1
1
1
1
1
1
1
1
1
1
1
1
1
1
1
1
1
1
1
1
1
1
1
1
1
1
1
1
1
1
1
1
1
1
1
1
1
1
1
1
1
1
1
1
1
1
1
1
1
1
1
1
1
1
1
1
1
1
1
1
1
1
1
1
1
1
1
1
1
1
1
1
1
1
1
1
1
1
1
1
1
1
1
1
1
1
1
1
1
1
1
1
1
1
1
1
1
1
1
1
1
1
1
1
1
1
1
1
1
1
1
1
1
1
1
1
1
1
1
1
1
1
1
1
1
1
1
1
1
1
1
1
1
1
1
1
1
1
1
1
1
1
1
1
1
1
1
1
1
1
1
1
1
1
1
1
1
1
1
1
1
1
1
1
1
1
1
1
1
1
1
1
1
1
1
1
1
1
1
1
1
1
1
1
1
1
1
1
1
1
1
1
1
1
1
1
1
1
1
1
1
1
1
1
1
1
1
1
1
1
1
1
1
1
1
1
1
1
1
1
1
1
1
1
1
1
1
1
1
1
1
1
1
1
1
1
1
1
1
1
1
1
1
1
1
1
1
1
1
1
1
1
1
1
1
1
1
1
1
1
1
1
1
1
1
1
1
1
1
1
1
1
1
1
1
1
1
1
1
1
1
1
1
1
1
1
1
1
1
1
1
1
1
1
1
1
1
1
1
1
1
1
1
1
1
1
1
1
1
1
1
1
1
1
1
1
1
1
1
1
1
1
1
1
1
1
1
1
1
1
1
1
1
1
1
1
1
1
1
1
1
1
1
1
1
1
1
1
1
1
1
1
1
1
1
1
1
1
1
1
1
1
1
1
1
1
1
1
1
1
1
1
1
1
1
1
1
1
1
1
1
1
1
1
1
1
1
1
1
1
1
1
1
1
1
1
1
1
1
1
1
1
1
1
1
1
1
1
1
1
1
1
1
1
1
1
1
1
1
1
1
1
1
1
1
1
1
1
1
1
1
1
1
1
1
1
1
1
1
1
1
1
1
1
1
1
1
1
1
1
1
1
1
1
1
1
1
1
1
1
1
1
1
1
1
1
1
1
1
1
1
1
1
1
1
1
1
1
1
1
1
1
1
1
1
1
1
1
1
1
1
1
1
1
1
1
1
1
1
1
1
1
1
1
1
1
1
1
1
1
1
1
1
1
1
1
1
1
1
1
1
1
1
1
1
1
1
1
1
1
1
1
1
1
1
1
1
1
1
1
1
1
1
1
1
1
1
1
1
1
1
1
1
1
1
1
1
1
1
1
1
1
1
1
1
1
1
1
1
1
1
1
1
1
1
1
1
1
1
1
1
1
1
1
1
1
1
1
1
1
1
1
1
1
1
1
1
1
1
1
1
1
1
1
1
1
1
1
1
1
1
1
1
1
1
1
1
1
1
1
1
1
1
1
1
1
1
1
1
1
1
1
1
1
1
1
1
1
1
1
1
1
1
1
1
1
1
1
1
1
1
1
1
1
1
1
1
1
1
1
1
1
1
1
1
1
1
1
1
1
1
1
1
1
1
1
1
1
1
1
1
1
1
1
1
1
1
1
1
1
1
1
1
1
1
1
1
1
1
1
1
1
1
1
1
1
1
1
1
1
1
1
1
1
1
1
1
1
1
1
1
1
1
1
1
1
1
1
1
1
1
1
1
1
1
1
1
1
1
1
1
1
1
1
1
1
1
1
1
1
1
1
1
1
1
1
1
1
1
1
1
1
1
1
1
1
1
1
1
1
1
1
1
1
1
1
1
1
1
1
1
1
1
1
1
1
1
1
1
1
1
1
1
1
1
1
1
1
1
1
1
1
1
1
1
1
1
1
1
1
1
1
1
1
1
1
1
1
1
1
1
1
1
1
1
1
1
1
1
1
1
1
1
1
1
1
1
1
1
1
1
1
1
1
1
1
1
1
1
1
1
1
1
1
1
1
1
1
1
1
1
1
1
1
1
1
1
1
1
1
1
1
1
1
1
1
1
1
1
1
1
1
1
1
1
1
1
1
1
1
1
1
1
1
1
1
1
1
1
1
1
1
1
1
1
1
1
1
1
1
1
1
1
1
1
1
1
1
1
1
1
1
1
1
1
1
1
1
1
1
1
1
1
1
1
1
1
1
1
1
1
1
1
1
1
1
1
1
1
1
1
1
1
1
1
1
1
1
1
1
1
1
1
1
1
1
1
1
1
1
1
1
1
1
1
1
1
1
1
1
1
1
1
1
1
1
1
1
1
1
1
1
1
1
1
1
1
1
1
1
1
1
1
1
1
1
1
1
1
1
1
1
1
1
1
1
1
1
1
1
1
1
1
1
1
1
1
1
1
1
1
1
1
1
1
1
1
1
1
1
1
1
1
1
1
1
1
1
1
1
1
1
1
1
1
1
1
1
1
1
1
1
1
1
1
1
1
1
1
1
1
1
1
1
1
1
1
1
1
1
1
1
1
1
1
1
1
1
1
1
1
1
1
1
1
1
1
1
1
1
1
1
1
1
1
1
1
1
1
1
1
1
1
1
1
1
1
1
1
1
1
1
1
1
1
1
1
1
1
1
1
1
1
1
1
1
1
1
1
1
1
1
1
1
1
1
1
1
1
1
1
1
1
1
1
1
1
1
1
1
1
1
1
1
1
1
1
1
1
1
1
1
1
1
1
1
1
1
1
1
1
1
1
1
1
1
1
1
1
1
1
1
1
1
1
1
1
1
1
1
1
1
1
1
1
1
1
1
1
1
1
1
1
1
1
1
1
1
1
1
1
1
1
1
1
1
1
1
1
1
1
1
1
1
1
1
1
1
1
1
1
1
1
1
1
1
1
1
1
1
1
1
1
1
1
1
1
1
1
1
1
1
1
1
1
1
1
1
1
1
1
1
1
1
1
1
1
1
1
1
1
1
1
1
1
1
1
1
1
1
1
1
1
1
1
1
1
1
1
1
1
1
1
1
1
1
1
1
1
1
1
1
1
1
1
1
1
1
1
1
1
1
1
1
1
1
1
1
1
1
1
1
1
1
1
1
1
1
1
1
1
1
1
1
1
1
1
1
1
1
1
1
1
1
1
1
1
1
1
1
1
1
1
1
1
1
1
1
1
1
1
1
1
1
1
1
1
1
1
1
1
1
1
1
1
1
1
1
1
1
1
1
1
1
1
1
1
1
1
1
1
1
1
1
1
1
1
1
1
1
1
1
1
1
1
1
1
1
1
1
1
1
1
1
1
1
1
1
1
1
1
1
1
1
1
1
1
1
1
1
1
1
1
1
1
1
1
1
1
1
1
1
1
1
1
1
1
1
1
1
1
1
1
1
1
1
1
1
1
1
1
1
1
1
1
1
1
1
1
1
1
1
1
1
1
1
1
1
1
1
1
1
1
1
1
1
1
1
1
1
1
1
1
1
1
1
1
1
1
1
1
1
1
1
1
1
1
1
1
1
1
1
1
1
1
1
1
1
1
1
1
1
1
1
1
1
1
1
1
1
1
1
1
1
1
1
1
1
1
1
1
1
1
1
1
1
1
1
1
1
1
1
1
1
1
1
1
1
1
1
1
1
1
1
1
1
1
1
1
1
1
1
1
1
1
1
1
1
1
1
1
1
1
1
1
1
1
1
1
1
1
1
1
1
1
1
1
1
1
1
1
1
1
1
1
1
1
1
1
1
1
1
1
1
1
1
1
1
1
1
1
1
1
1
1
1
1
1
1
1
1
1
1
1
1
1
1
1
1
1
1
1
1
1
1
1
1
1
1
1
1
1
1
1
1
1
1
1
1
1
1
1
1
1
1
1
1
1
1
1
1
1
1
1
1
1
1
1
1
1
1
1
1
1
1
1
1
1
1
1
1
1
1
1
1
1
1
1
1
1
1
1
1
1
1
1
1
1
1
1
1
1
1
1
1
1
1
1
1
1
1
1
1
1
1
1
1
1
1
1
1
1
1
1
1
1
1
1
1
1
1
1
1
1
1
1
1
1
1
1
1
1
1
1
1
1
1
1
1
1
1
1
1
1
1
1
1
1
1
1
1
1
1
1
1
1
1
1
1
1
1
1
1
1
1
1
1
1
1
1
1
1
1
1
1
1
1
1
1
1
1
1
1
1
1
1
1
1
1
1
1
1
1
1
1
1
1
1
1
1
1
1
1
1
1
1
1
1
1
1
1
1
1
1
1
1
1
1
1
1
1
1
1
1
1
1
1
1
1
1
1
1
1
1
1
1
1
1
1
1
1
1
1
1
1
1
1
1
1
1
1
1
1
1
1
1
1
1
1
1
1
1
1
1
1
1
1
1
1
1
1
1
1
1
1
1
1
1
1
1
1
1
1
1
1
1
1
1
1
1
1
1
1
1
1
1
1
1
1
1
1
1
1
1
1
1
1
1
1
1
1
1
1
1
1
1
1
1
1
1
1
1
1
1
1
1
1
1
1
1
1
1
1
1
1
1
1
1
1
1
1
1
1
1
1
1
1
1
1
1
1
1
1
1
1
1
1
1
1
1
1
1
1
1
1
1
1
1
1
1
1
1
1
1
1
1
1
1
1
1
1
1
1
1
1
1
1
1
1
1
1
1
1
1
1
1
1
1
1
1
1
1
1
1
1
1
1
1
1
1
1
1
1
1
1
1
1
1
1
1
1
1
1
1
1
1
1
1
1
1
1
1
1
1
1
1
1
1
1
1
1
1
1
1
1
1
1
1
1
1
1
1
1
1
1
1
1
1
1
1
1
1
1
1
1
1
1
1
1
1
1
1
1
1
1
1
1
1
1
1
1
1
1
1
1
1
1
1
1
1
1
1
1
1
1
1
1
1
1
1
1
1
1
1
1
1
1
1
1
1
1
1
1
1
1
1
1
1
1
1
1
1
1
1
1
1
1
1
1
1
1
1
1
1
1
1
1
1
1
1
1
1
1
1
1
1
1
1
1
1
1
1
1
1
1
1
1
1
1
1
1
1
1
1
1
1
1
1
1
1
1
1
1
1
1
1
1
1
1
1
1
1
1
1
1
1
1
1
1
1
1
1
1
1
1
1
1
1
1
1
1
1
1
1
1
1
1
1
1
1
1
1
1
1
1
1
1
1
1
1
1
1
1
1
1
1
1
1
1
1
1
1
1
1
1
1
1
1
1
1
1
1
1
1
1
1
1
1
1
1
1
1
1
1
1
1
1
1
1
1
1
1
1
1
1
1
1
1
1
1
1
1
1
1
1
1
1
1
1
1
1
1
1
1
1
1
1
1
1
1
1
1
1
1
1
1
1
1
1
1
1
1
1
1
1
1
1
1
1
1
1
1
1
1
1
1
1
1
1
1
1
1
1
1
1
1
1
1
1
1
1
1
1
1
1
1
1
1
1
1
1
1
1
1
1
1
1
1
1
1
1
1
1
1
1
1
1
1
1
1
1
1
1
1
1
1
1
1
1
1
1
1
1
1
1
1
1
1
1
1
1
1
1
1
1
1
1
1
1
1
1
1
1
1
1
1
1
1
1
1
1
1
1
1
1
1
1
1
1
1
1
1
1
1
1
1
1
1
1
1
1
1
1
1
1
1
1
1
1
1
1
1
1
1
1
1
1
1
1
1
1
1
1
1
1
1
1
1
1
1
1
1
1
1
1
1
1
1
1
1
1
1
1
1
1
1
1
1
1
1
1
1
1
1
1
1
1
1
1
1
1
1
1
1
1
1
1
1
1
1
1
1
1
1
1
1
1
1
1
1
1
1
1
1
1
1
1
1
1
1
1
1
1
1
1
1
1
1
1
1
1
1
1
1
1
1
1
1
1
1
1
1
1
1
1
1
1
1
1
1
1
1
1
1
1
1
1
1
1
1
1
1
1
1
1
1
1
1
1
1
1
1
1
1
1
1
1
1
1
1
1
1
1
1
1
1
1
1
1
1
1
1
1
1
1
1
1
1
1
1
1
1
1
1
1
1
1
1
1
1
1
1
1
1
1
1
1
1
1
1
1
1
1
1
1
1
1
1
1
1
1
1
1
1
1
1
1
1
1
1
1
1
1
1
1
1
1
1
1
1
1
1
1
1
1
1
1
1
1
1
1
1
1
1
1
1
1
1
1
1
1
1
1
1
1
1
1
1
1
1
1
1
1
1
1
1
1
1
1
1
1
1
1
1
1
1
1
1
1
1
1
1
1
1
1
1
1
1
1
1
1
1
1
1
1
1
1
1
1
1
1
1
1
1
1
1
1
1
1
1
1
1
1
1
1
1
1
1
1
1
1
1
1
1
1
1
1
1
1
1
1
1
1
1
1
1
1
1
1
1
1
1
1
1
1
1
1
1
1
1
1
1
1
1
1
1
1
1
1
1
1
1
1
1
1
1
1
1
1
1
1
1
1
1
1
1
1
1
1
1
1
1
1
1
1
1
1
1
1
1
1
1
1
1
1
1
1
1
1
1
1
1
1
1
1
1
1
1
1
1
1
1
1
1
1
1
1
1
1
1
1
1
1
1
1
1
1
1
1
1
1
1
1
1
1
1
1
1
1
1
1
1
1
1
1
1
1
1
1
1
1
1
1
1
1
1
1
1
1
1
1
1
1
1
1
1
1
1
1
1
1
1
1
1
1
1
1
1
1
1
1
1
1
1
1
1
1
1
1
1
1
1
1
1
1
1
1
1
1
1
1
1
1
1
1
1
1
1
1
1
1
1
1
1
1
1
1
1
1
1
1
1
1
1
1
1
1
1
1
1
1
1
1
1
1
1
1
1
1
1
1
1
1
1
1
1
1
1
1
1
1
1
1
1
1
1
1
1
1
1
1
1
1
1
1
1
1
1
1
1
1
1
1
1
1
1
1
1
1
1
1
1
1
1
1
1
1
1
1
1
1
1
1
1
1
1
1
1
1
1
1
1
1
1
1
1
1
1
1
1
1
1
1
1
1
1
1
1
1
1
1
1
1
1
1
1
1
1
1
1
1
1
1
1
1
1
1
1
1
1
1
1
1
1
1
1
1
1
1
1
1
1
1
1
1
1
1
1
1
1
1
1
1
1
1
1
1
1
1
1
1
1
1
1
1
1
1
1
1
1
1
1
1
1
1
1
1
1
1
1
1
1
1
1
1
1
1
1
1
1
1
1
1
1
1
1
1
1
1
1
1
1
1
1
1
1
1
1
1
1
1
1
1
1
1
1
1
1
1
1
1
1
1
1
1
1
1
1
1
1
1
1
1
1
1
1
1
1
1
1
1
1
1
1
1
1
1
1
1
1
1
1
1
1
1
1
1
1
1
1
1
1
1
1
1
1
1
1
1
1
1
1
1
1
1
1
1
1
1
1
1
1
1
1
1
1
1
1
1
1
1
1
1
1
1
1
1
1
1
1
1
1
1
1
1
1
1
1
1
1
1
1
1
1
1
1
1
1
1
1
1
1
1
1
1
1
1
1
1
1
1
1
1
1
1
1
1
1
1
1
1
1
1
1
1
1
1
1
1
1
1
1
1
1
1
1
1
1
1
1
1
1
1
1
1
1
1
1
1
1
1
1
1
1
1
1
1
1
1
1
1
1
1
1
1
1
1
1
1
1
1
1
1
1
1
1
1
1
1
1
1
1
1
1
1
1
1
1
1
1
1
1
1
1
1
1
1
1
1
1
1
1
1
1
1
1
1
1
1
1
1
1
1
1
1
1
1
1
1
1
1
1
1
1
1
1
1
1
1
1
1
1
1
1
1
1
1
1
1
1
1
1
1
1
1
1
1
1
1
1
1
1
1
1
1
1
1
1
1
1
1
1
1
1
1
1
1
1
1
1
1
1
1
1
1
1
1
1
1
1
1
1
1
1
1
1
1
1
1
1
1
1
1
1
1
1
1
1
1
1
1
1
1
1
1
1
1
1
1
1
1
1
1
1
1
1
1
1
1
1
1
1
1
1
1
1
1
1
1
1
1
1
1
1
1
1
1
1
1
1
1
1
1
1
1
1
1
1
1
1
1
1
1
1
1
1
1
1
1
1
1
1
1
1
0.98882
0.985394
0.985663
0.985831
0.975425
0.992222
0.978146
0.986404
0.986973
0.981106
0.989365
0.989239
0.989627
0.985826
0.984842
0.979244
0.977303
0.995105
0.991797
0.990209
0.984908
0.96073
0.950718
0.958744
0.989148
0.982509
0.974873
0.973775
0.973758
0.968321
0.963394
0.980091
0.98202
0.980992
0.99122
0.969317
0.943459
0.985075
0.982791
0.994499
0.985843
0.972448
0.993518
0.990201
0.994746
0.987705
0.981028
0.992569
0.984523
0.967968
0.968693
0.973402
0.988408
0.991345
0.986575
0.993085
0.975037
0.976516
0.964256
0.990385
0.985628
0.993338
0.993819
0.992992
0.966644
0.981629
0.984385
0.970577
0.981185