/*--------------------------------*- C++ -*----------------------------------*\
| =========                 |                                                 |
| \\      /  F ield         | OpenFOAM: The Open Source CFD Toolbox           |
|  \\    /   O peration     | Version:  5.x                                   |
|   \\  /    A nd           | Web:      www.OpenFOAM.org                      |
|    \\/     M anipulation  |                                                 |
\*---------------------------------------------------------------------------*/
FoamFile
{
    version     2.0;
    format      ascii;
    class       volScalarField;
    location    "8.1";
    object      p;
}
// * * * * * * * * * * * * * * * * * * * * * * * * * * * * * * * * * * * * * //

dimensions      [0 2 -2 0 0 0 0];

internalField   nonuniform List<scalar> 
10571
(
237.8
175.145
191.167
226.906
264.205
155.807
140.232
136.009
201.298
237.58
132.289
132.473
132.578
140.782
147.138
201.701
110.266
136.002
142.088
141.643
159.816
99.863
141.363
141.305
82.8244
118.603
132.57
114.983
140.774
88.8966
110.667
109.538
119.319
149.971
21.5555
47.4685
70.8063
121.088
135.777
144.167
16.2953
29.5286
128.78
140.595
134.038
17.378
68.9069
136.465
30.8989
25.8828
28.9835
24.5254
49.2792
15.4891
38.7813
49.0939
39.3764
81.2032
16.8836
15.4998
17.0478
30.376
55.7977
73.8051
18.3285
11.0432
19.3462
106.551
79.6504
17.3041
13.8362
19.3287
22.9265
16.0184
19.6701
20.4638
19.4277
15.9555
15.9282
23.0401
16.2824
21.5658
15.8118
16.5606
15.5311
14.5314
14.8546
14.5539
16.0889
14.252
12.1632
14.533
17.6921
15.3695
14.4879
14.2031
16.4748
12.9677
16.2393
17.8519
15.2769
13.2583
13.1972
16.7608
14.2682
14.0324
14.5592
14.4177
13.6135
13.0117
13.176
13.8316
14.5366
13.5787
13.693
13.3831
13.6649
14.394
13.8099
13.512
13.8446
12.9444
13.0286
15.8418
14.4848
13.0314
12.3696
12.7609
12.9447
13.1954
13.0126
13.4602
12.9736
12.5807
12.7957
12.9835
13.2552
12.9985
13.6081
13.0287
13.1012
13.1517
13.0615
13.5595
13.3579
13.2127
12.6951
12.9481
12.8554
12.7724
12.6394
13.0041
12.8348
12.8086
12.7989
12.9489
12.9246
13.2694
13.2303
12.8902
12.91
12.9216
12.9392
12.9222
13.3352
12.9534
13.0011
13.005
12.9462
12.9278
13.1406
13.111
13.0373
12.7199
12.9483
12.819
12.7365
12.8198
12.9524
12.7377
12.886
12.8739
12.9307
12.9233
13.1321
13.0728
12.9826
12.9216
12.9177
12.9505
12.9218
13.1447
12.9188
13.0059
12.9466
12.9252
12.9227
12.9951
13.0711
12.9606
12.7577
12.9375
12.8129
12.7276
12.8485
12.9515
12.8226
12.8321
12.8494
12.8639
12.9315
13.0073
12.9831
12.8875
12.9118
12.8844
12.9166
12.902
13.0082
12.8447
12.9728
12.9214
12.9228
12.9388
13.0172
12.9524
12.7728
12.8821
12.7952
12.7208
12.8422
12.914
12.8329
12.8145
12.8327
12.803
12.9401
12.913
12.8205
12.9137
12.8422
12.8687
12.9083
12.7585
12.929
12.8861
12.8902
12.8678
12.9681
12.9363
12.7876
12.7648
12.7557
12.7445
12.798
12.8611
12.8089
12.7895
12.8157
12.8262
12.8918
12.8532
12.7869
12.8939
12.7921
12.8272
12.8416
12.7062
12.9104
12.8432
12.8483
12.799
12.9378
12.9039
12.816
12.6485
12.6429
12.8656
12.7791
12.7697
12.7352
12.7916
12.7946
12.8196
12.8018
12.79
12.7354
12.8362
12.7379
12.7736
12.7777
12.6611
12.8902
12.7769
12.7759
12.7586
12.9137
12.8614
12.734
12.5308
12.4654
12.7327
12.7558
12.6346
12.605
12.721
12.7472
12.7686
12.695
12.6904
12.6344
12.7346
12.657
12.6996
12.6887
12.5536
12.8355
12.7001
12.681
12.6956
12.8439
12.795
12.6483
12.4291
12.3422
12.6125
12.7088
12.5142
12.4239
12.6239
12.6901
12.7169
12.585
12.5618
12.5229
12.6355
12.5739
12.6248
12.5865
12.4424
12.7825
12.6215
12.6102
12.6018
12.7669
12.7266
12.5835
12.3905
12.2955
12.5427
12.6742
12.4292
12.2588
12.5502
12.6569
12.6879
12.483
12.4083
12.4022
12.5725
12.5259
12.6009
12.4921
12.3925
12.7396
12.567
12.5972
12.545
12.6998
12.6755
12.5658
12.3854
12.2893
12.5128
12.6723
12.3817
12.1655
12.504
12.6578
12.6899
12.3993
12.3331
12.2936
12.528
12.5236
12.6246
12.455
12.3836
12.6877
12.5481
12.6233
12.508
12.6519
12.6503
12.5961
12.406
12.327
12.5318
12.7083
12.3549
12.1627
12.4981
12.6921
12.7247
12.3517
12.3055
12.2714
12.4873
12.5494
12.6704
12.4267
12.411
12.6185
12.5488
12.654
12.48
12.6063
12.6319
12.6868
12.4872
12.427
12.6063
12.7884
12.3175
12.1988
12.5371
12.7603
12.7921
12.3119
12.2514
12.2688
12.4615
12.5888
12.7292
12.3962
12.5102
12.5278
12.5488
12.6841
12.4763
12.5142
12.5994
12.8442
12.6651
12.5942
12.7494
12.9139
12.4244
12.3204
12.6344
12.8642
12.8956
12.4274
12.3298
12.2859
12.4351
12.6468
12.8114
12.4417
12.5688
12.424
12.5635
12.7409
12.5258
12.4399
12.563
13.062
12.9269
12.8345
12.9605
13.0987
12.7222
12.569
12.8134
13.0134
13.0421
12.6496
12.6079
12.4534
12.5289
12.7748
12.9393
12.7072
12.4927
12.3193
12.614
12.8332
12.5807
12.2912
12.5447
13.3079
13.2288
13.1379
13.2157
13.275
13.0307
12.8796
13.086
13.2189
13.2226
12.9556
13.0031
12.7423
12.7817
12.977
13.1241
13.117
12.5253
12.3738
12.7175
12.9346
12.7374
12.269
12.6247
13.5257
13.5295
13.4425
13.4712
13.4562
13.3684
13.2481
13.3716
13.4304
13.4045
13.4421
13.4087
13.0608
13.1146
13.2558
13.3319
13.5465
12.9403
12.7561
12.957
13.1734
13.1261
12.6611
12.7884
13.6748
13.7128
13.6567
13.659
13.6066
13.6697
13.5648
13.6068
13.6054
13.5676
13.7796
13.7241
13.4578
13.4518
13.523
13.5365
13.8634
13.6105
13.3061
13.3421
13.4672
13.8506
13.3326
13.1098
13.7532
13.7587
13.7386
13.7528
13.7051
13.7893
13.7403
13.7462
13.7115
13.6865
13.8935
13.8134
13.6768
13.6965
13.7121
13.688
14.0978
14.0797
13.824
13.6862
13.6954
14.5328
14.345
13.7976
13.7917
13.7494
13.7687
13.7888
13.7568
13.7553
13.8101
13.7895
13.7673
13.7635
13.8911
13.8247
13.7659
13.7846
13.7818
13.7717
14.0878
14.0903
13.9552
13.8343
13.8022
14.6526
14.4014
14.0365
13.8154
13.7615
13.7955
13.805
13.7848
13.7244
13.8333
13.8072
13.7959
13.8103
13.8144
13.7684
13.7744
13.8039
13.8077
13.8143
13.9575
13.9955
13.9326
13.8668
13.8414
14.3035
14.1708
13.9994
13.8393
13.8162
13.8152
13.8171
13.8022
13.7739
13.8189
13.8165
13.8127
13.8316
13.8081
13.7641
13.7554
13.808
13.8283
13.8309
13.8422
13.9057
13.8975
13.8651
13.8528
14.076
14.0198
13.942
13.8619
13.8878
13.8417
13.8204
13.8129
13.8632
13.8455
13.7941
13.8214
13.8335
13.8687
13.8356
13.8101
13.8069
13.8504
13.8401
13.8455
13.8445
13.869
13.8596
13.8543
13.9676
13.9417
13.9037
13.8678
13.9301
13.859
13.8244
13.8154
13.9181
13.849
13.8055
13.8284
13.8338
13.9105
13.9309
13.8901
13.822
13.8564
13.8451
13.8684
13.8362
13.8458
13.8504
13.8508
13.909
13.8933
13.8748
13.8632
13.9294
13.8633
13.8277
13.8154
13.9543
13.8652
13.8222
13.8321
13.8314
13.9155
13.9247
13.8828
13.8181
13.8387
13.8376
13.8429
13.817
13.8215
13.8309
13.8408
13.8665
13.8555
13.846
13.8507
13.9124
13.8559
13.8256
13.8133
13.9282
13.8368
13.8099
13.8277
13.8244
13.8999
13.886
13.8409
13.794
13.8125
13.821
13.7839
13.786
13.7945
13.8063
13.8224
13.8176
13.821
13.8161
13.8323
13.8726
13.8255
13.8156
13.8069
13.8717
13.8072
13.7949
13.8179
13.8157
13.8563
13.8373
13.8031
13.7654
13.7845
13.7984
13.7533
13.7607
13.7786
13.7935
13.8036
13.7777
13.7857
13.7916
13.8121
13.8125
13.7934
13.8015
13.7965
13.8089
13.7816
13.7776
13.8063
13.8079
13.8053
13.7961
13.7836
13.7494
13.7699
13.7849
13.7507
13.7511
13.7786
13.7902
13.7946
13.7492
13.7557
13.7762
13.7953
13.7578
13.7634
13.7864
13.7854
13.7489
13.7512
13.7557
13.7979
13.8103
13.7491
13.7568
13.7807
13.7504
13.7661
13.7835
13.7488
13.7402
13.7883
13.8104
13.7992
13.7377
13.735
13.7782
13.783
13.713
13.7451
13.7709
13.7756
13.7092
13.7213
13.7424
13.7842
13.801
13.7117
13.7203
13.7822
13.7602
13.7703
13.7827
13.7393
13.7165
13.7758
13.8007
13.8004
13.7449
13.7395
13.7865
13.7737
13.709
13.7365
13.7582
13.7689
13.705
13.6965
13.7387
13.769
13.7896
13.7094
13.7044
13.781
13.765
13.7721
13.7861
13.7738
13.6975
13.7442
13.7799
13.7973
13.7688
13.7682
13.7629
13.7657
13.7189
13.7309
13.7504
13.7649
13.7194
13.6925
13.7365
13.7573
13.7844
13.7186
13.6989
13.7663
13.765
13.7732
13.7898
13.7984
13.7523
13.7353
13.776
13.7945
13.8488
13.8094
13.77
13.7627
13.7338
13.7334
13.7531
13.7712
13.7377
13.7043
13.7456
13.7738
13.7937
13.7331
13.7008
13.7471
13.7677
13.7779
13.7947
13.7979
13.7975
13.7898
13.7737
13.7936
13.8669
13.8604
13.7944
13.7689
13.7482
13.7394
13.7616
13.7944
13.7526
13.7158
13.7597
13.8061
13.8051
13.753
13.7117
13.7368
13.7664
13.7878
13.8025
13.7963
13.8043
13.8256
13.7747
13.7973
13.8487
13.8676
13.8088
13.781
13.7664
13.7535
13.7743
13.7924
13.759
13.7187
13.7603
13.8009
13.8103
13.7751
13.729
13.7446
13.7707
13.8013
13.8132
13.8088
13.8149
13.833
13.8004
13.8065
13.8376
13.8402
13.8265
13.8029
13.8049
13.7798
13.7849
13.7672
13.7483
13.7227
13.7641
13.798
13.8181
13.8004
13.7516
13.7683
13.7926
13.8248
13.8343
13.8357
13.8352
13.8483
13.8277
13.8346
13.8436
13.8482
13.8609
13.8523
13.8759
13.8223
13.8328
13.8328
13.8015
13.7673
13.8204
13.8354
13.8406
13.8524
13.8232
13.8155
13.8234
13.8405
13.8541
13.8684
13.8574
13.8626
13.8322
13.8583
13.8588
13.8642
13.8859
13.8543
13.983
13.8843
13.8477
13.868
13.9007
13.8427
13.8597
13.8528
13.8585
13.9141
13.8821
13.8553
13.85
13.8428
13.8643
13.8924
13.8722
13.868
13.838
13.864
13.8736
13.8725
13.8874
13.893
13.9554
13.909
13.8889
13.8686
13.9129
13.8745
13.8757
13.8524
13.8563
13.9232
13.8955
13.8663
13.8655
13.8466
13.8632
13.8987
13.8761
13.8688
13.8426
13.8586
13.8823
13.8779
13.8806
13.9147
13.9235
13.914
13.8993
13.8838
13.8822
13.8693
13.8772
13.8449
13.87
13.9073
13.8783
13.8638
13.8764
13.8523
13.8599
13.897
13.8778
13.8711
13.8459
13.8491
13.888
13.8828
13.8766
13.9088
13.9093
13.9026
13.9024
13.8924
13.868
13.8502
13.8773
13.8463
13.8883
13.8978
13.87
13.8663
13.8785
13.8554
13.8607
13.8952
13.8802
13.8797
13.8565
13.8453
13.8934
13.8899
13.8787
13.896
13.8999
13.892
13.8972
13.8956
13.8745
13.8388
13.869
13.8563
13.8779
13.8905
13.8718
13.8614
13.8713
13.8495
13.8596
13.8934
13.8781
13.8864
13.8656
13.8545
13.8952
13.8943
13.8826
13.8777
13.8926
13.887
13.8813
13.8717
13.869
13.8384
13.8472
13.8294
13.8568
13.8827
13.8655
13.8531
13.8689
13.8487
13.8553
13.8894
13.8782
13.8801
13.867
13.8513
13.8916
13.8906
13.8834
13.8568
13.8898
13.8788
13.8649
13.8422
13.8668
13.8378
13.8432
13.8242
13.8392
13.8725
13.8515
13.8452
13.8739
13.8569
13.8548
13.8825
13.8722
13.8718
13.8627
13.861
13.8849
13.8847
13.8804
13.8382
13.8898
13.8637
13.8387
13.8314
13.8711
13.8397
13.8498
13.8336
13.8367
13.8595
13.834
13.8493
13.8731
13.8537
13.8543
13.8744
13.8654
13.8621
13.8618
13.8646
13.8787
13.8783
13.8755
13.8162
13.8837
13.8387
13.8036
13.8308
13.8653
13.8307
13.8437
13.8517
13.8268
13.8425
13.8141
13.8584
13.8671
13.8608
13.8538
13.865
13.8582
13.8559
13.865
13.8655
13.8734
13.8699
13.8706
13.797
13.8632
13.8011
13.777
13.8298
13.8442
13.8084
13.8359
13.8647
13.8289
13.8253
13.8028
13.8666
13.8514
13.8716
13.8525
13.8566
13.8504
13.8553
13.863
13.8643
13.8673
13.8623
13.8655
13.8013
13.8405
13.7719
13.7775
13.8296
13.8197
13.7884
13.8273
13.8545
13.8462
13.8148
13.801
13.8614
13.8384
13.8688
13.8497
13.8482
13.8413
13.8591
13.8599
13.8586
13.8595
13.8551
13.8599
13.8121
13.8261
13.772
13.7887
13.8322
13.802
13.767
13.8174
13.8366
13.8526
13.8131
13.8065
13.8457
13.8343
13.8542
13.8432
13.8422
13.8288
13.8602
13.8498
13.8503
13.8513
13.8516
13.8539
13.8266
13.8221
13.7879
13.8039
13.836
13.8037
13.748
13.811
13.8315
13.8483
13.8177
13.8136
13.8187
13.827
13.8378
13.8323
13.8377
13.8148
13.8512
13.8421
13.8394
13.8427
13.8492
13.8459
13.8424
13.8277
13.8073
13.8179
13.838
13.8198
13.7435
13.8041
13.8292
13.8409
13.8263
13.8224
13.7889
13.8148
13.8247
13.8233
13.8325
13.8085
13.837
13.8268
13.827
13.8319
13.8398
13.8342
13.8471
13.862
13.8369
13.827
13.8392
13.8402
13.7571
13.7976
13.8205
13.8247
13.8385
13.8285
13.7754
13.8
13.8084
13.8042
13.8315
13.804
13.816
13.8093
13.8058
13.822
13.8273
13.82
13.8594
13.8823
13.8702
13.8458
13.8385
13.8583
13.7763
13.7954
13.8014
13.7967
13.8501
13.8374
13.7772
13.7854
13.7816
13.7676
13.8362
13.7987
13.8006
13.7886
13.7742
13.8171
13.8172
13.8029
13.8795
13.9113
13.9021
13.8678
13.8367
13.8875
13.8051
13.7931
13.7654
13.7372
13.869
13.8582
13.7904
13.7716
13.7298
13.6914
13.8488
13.8034
13.7916
13.7585
13.7221
13.8188
13.8072
13.7903
13.9055
13.9464
13.9296
13.8865
13.8373
13.9271
13.8438
13.7788
13.6937
13.6155
13.9005
13.8898
13.8063
13.7489
13.6537
13.5289
13.874
13.8237
13.7887
13.7326
13.6313
13.8359
13.7997
13.7814
13.9436
13.9784
13.9629
13.9031
13.8492
13.9685
13.8758
13.7491
13.5711
13.3591
13.9419
13.9292
13.8317
13.723
13.5271
13.1356
13.9179
13.8676
13.7908
13.6896
13.468
13.8709
13.805
13.7745
13.9851
14.0122
14.0069
13.9215
13.8761
14.0026
13.9024
13.6949
13.3658
12.7143
13.9885
13.9744
13.8674
13.7072
13.3512
12.1458
13.9841
13.9389
13.8414
13.6357
13.1484
13.9563
13.8666
13.7933
14.0236
14.0463
14.0445
13.9323
13.9004
14.0209
13.9044
13.6393
13.0886
10.9256
14.0334
14.015
13.9183
13.7171
13.1718
10.7387
-9.56678
14.0588
14.0492
13.9384
13.5934
12.3738
14.0732
13.9899
13.8603
14.0403
14.0621
14.0161
13.906
13.7228
14.0344
13.8941
13.6251
12.8221
9.6249
0.717776
14.0796
14.062
13.996
13.8251
13.1689
10.5961
1.17069
14.1454
14.183
14.0659
13.638
11.3053
14.2357
14.1565
13.9945
13.97
14.0136
13.9298
13.7978
13.5092
14.0321
13.8951
13.6421
12.8801
9.60152
2.14782
14.1293
14.1195
14.1057
13.9938
13.4311
10.6627
3.23823
14.2166
14.293
14.2062
13.8035
11.8216
3.58536
14.3512
14.3213
14.1608
13.9743
14.0557
13.9224
13.7817
13.7012
14.0307
13.9342
13.8176
13.4076
10.9778
2.78983
14.1734
14.155
14.227
14.1719
13.8909
11.6013
2.54985
14.2416
14.3449
14.3179
13.993
12.4716
14.3879
14.4155
14.3176
14.1285
14.1012
13.9636
14.0006
14.0495
14.1052
14.047
13.9316
13.6986
12.4094
14.1847
14.1734
14.2312
14.2289
14.022
12.3296
-5.42142
14.2206
14.3212
14.2538
14.1882
13.6388
14.343
14.3874
14.3771
14.2632
14.2053
14.1635
14.1913
14.1845
14.1383
14.1209
13.8931
13.8808
13.673
14.1973
14.1683
14.0806
14.0955
14.1123
13.5396
14.1823
14.0914
14.1753
14.2302
14.0707
14.2429
14.2884
14.322
14.3233
14.3262
14.3105
14.2578
14.2818
14.3038
14.2001
14.0388
14.1179
14.1648
14.2603
14.2339
14.0403
14.0693
14.2096
14.0626
14.0672
13.8933
14.1803
14.2378
14.2169
14.1437
14.2393
14.2913
14.3043
14.408
14.3288
14.262
14.3469
14.4704
14.3224
14.2095
14.278
14.3892
14.4011
14.3844
14.1469
14.1474
14.2899
14.2832
14.1063
14.0073
14.2422
14.2938
14.3137
14.1489
14.2741
14.3333
14.289
14.4408
14.3369
14.2745
14.3547
14.5324
14.407
14.3144
14.3502
14.4395
14.5877
14.5714
14.3807
14.3462
14.3533
14.3618
14.3238
14.2473
14.3335
14.3577
14.3755
14.2929
14.3392
14.3818
14.2911
14.4545
14.3657
14.2911
14.3638
14.5046
14.4069
14.3363
14.3584
14.4176
14.6252
14.5885
14.4468
14.3919
14.3874
14.4165
14.5475
14.3902
14.3679
14.3962
14.4115
14.4103
14.3654
14.428
14.3298
14.4733
14.3967
14.3179
14.3903
14.4797
14.3977
14.3781
14.4103
14.4294
14.5565
14.5167
14.4225
14.4103
14.4132
14.4403
14.548
14.396
14.3779
14.4153
14.4311
14.446
14.3937
14.4474
14.4158
14.4947
14.4412
14.3875
14.4244
14.4515
14.4098
14.4022
14.4184
14.4422
14.5079
14.4678
14.4061
14.4079
14.4265
14.4441
14.5056
14.4047
14.3894
14.4223
14.4448
14.4787
14.4269
14.463
14.4672
14.4988
14.4667
14.4257
14.4395
14.4346
14.4156
14.4146
14.4286
14.4495
14.4898
14.4462
14.4062
14.4125
14.4305
14.4494
14.4862
14.4101
14.4051
14.4311
14.4573
14.4993
14.4538
14.4801
197.974
254.383
220.683
252.014
268.079
271.669
275.698
280.904
171.525
184.691
191.363
177.768
181.11
198.206
217.759
190.877
193.32
249.769
267.531
230.82
259.747
282.306
286.046
276.762
286.863
277.27
164.056
153.858
158.205
164.436
168.484
149.783
140.075
159.719
149.959
135.875
138.211
158.014
201.736
142.104
149.949
260.414
266.159
198.859
231.094
261.881
239.809
228.883
148.181
152.996
154.449
138.23
132.96
143.71
136.894
136.212
137.393
137.194
137.225
143.871
146.052
142.357
144.711
162.776
204.141
148.76
169.181
230.412
221.24
207.735
156.419
155.997
144.394
157.218
159.866
138.857
138.399
149.686
140.426
143.038
143.778
143.191
143.879
145.832
172.959
147.033
164.723
198.27
162.797
172.537
160.668
168.292
152.024
146.243
161.353
148.125
184.099
172.014
221.027
190.052
209.113
161.681
169.221
166.118
242.006
257.022
168.09
173.488
180.336
261.386
195.228
163.174
153.316
182.59
168.244
171.982
163.81
170.052
159.658
167.091
264.975
260.41
261.577
203.432
205.975
197.809
205.971
249.695
200.592
155.796
143.507
146.262
143.28
116.097
128.043
220.319
214.651
199.414
194.6
195.678
131.31
118.958
79.8349
82.8837
30.5793
204.035
170.928
172.492
182.579
152.062
97.2398
20.5475
126.785
85.4853
100.795
24.4077
59.0637
20.1512
23.5545
145.007
142.139
142.821
142.308
141.268
143.732
142.266
143.708
79.5338
20.455
129.794
129.663
27.5851
73.0362
71.6766
141.676
141.294
132.095
142.51
112.144
143.715
127.066
73.2905
78.1094
113.926
92.6324
48.0852
68.0849
49.9896
93.1003
98.2169
42.5508
37.7092
44.6784
124.886
71.4522
97.0314
37.1238
127.656
106.901
120.778
59.7577
65.8646
34.6216
58.5569
149.275
142.83
152.892
89.7211
106.736
96.5444
114.178
146.041
114.588
78.2147
27.7288
40.0473
23.7451
17.0404
17.7608
153.098
151.876
113.052
112.486
113.016
22.6446
16.3599
16.6916
16.7861
18.4263
146.75
134.687
110.746
110.524
109.995
17.0342
19.2619
20.0746
17.9023
16.2253
19.349
16.8337
20.0174
18.046
135.591
139.178
134.817
135.118
124.499
120.502
117.887
113.962
18.1993
19.8292
24.1261
22.6835
18.5283
15.4078
15.4894
121.011
44.7846
21.6957
31.8697
17.4726
87.6415
39.2826
24.2182
36.9468
41.3921
36.317
30.9305
26.153
30.0255
28.8161
31.075
26.8172
26.752
27.2807
38.7317
28.4313
18.9404
16.6291
32.0042
18.2234
21.8037
18.3059
21.6391
16.885
17.0018
70.6981
56.4359
80.7815
26.3469
43.0758
30.7609
50.7445
87.6069
56.8854
16.2796
16.9332
16.7688
16.157
16.543
16.5195
73.9262
75.8299
48.9293
31.1443
34.3525
16.6449
18.275
16.4112
16.2692
17.3632
72.8676
78.9522
34.6487
33.7368
47.0754
18.342
16.9671
17.146
18.4494
17.1315
16.7906
16.9971
16.5558
16.1082
87.3065
46.5768
66.2602
31.5617
40.7844
14.848
20.1151
44.9021
18.0849
16.4379
14.2604
14.6838
15.9389
14.3798
14.5992
12.8876
14.5823
14.668
13.9859
15.769
13.5779
19.3953
16.5857
24.2098
19.4762
22.4602
18.9194
17.5372
17.5871
23.2776
22.0302
19.1076
18.9316
17.3424
22.3694
17.6454
15.5007
14.0857
18.501
16.0929
16.7726
14.1068
15.7323
14.4509
15.6272
26.9334
19.0776
29.1869
16.7196
19.3256
15.5618
18.8907
31.725
18.2281
15.5035
15.7702
15.8068
14.409
14.9038
14.7121
14.6922
14.8637
14.0393
13.9913
14.2308
15.8275
16.5949
15.2298
15.2073
15.7924
14.573
18.3991
13.5826
13.7349
13.4404
16.1538
15.5187
16.3493
15.6586
15.393
15.4301
15.2799
15.2095
14.9388
15.0084
13.3635
13.5006
13.3358
13.2693
13.4659
13.6411
13.3003
15.5561
15.028
14.6236
14.5285
14.884
14.4782
14.3591
14.2717
14.9988
14.0424
13.8653
14.1568
13.8201
14.5357
13.0381
16.4641
15.6525
16.1889
14.8048
14.0208
14.7287
16.1144
14.8716
15.026
14.8534
13.7615
15.1496
14.3554
13.3563
13.1884
13.2896
13.0923
13.4175
12.9561
12.8465
12.9642
12.8044
16.7033
14.318
15.8663
15.3473
15.4365
14.6349
14.4557
15.083
13.8249
13.5586
14.0966
13.8042
13.2892
13.5816
13.4339
14.2184
14.319
13.5071
13.7213
13.7754
14.3001
14.7839
13.8606
13.6727
14.0462
14.0299
13.632
13.6234
13.6136
13.5612
14.8078
14.1646
14.0721
14.6659
14.4998
13.9314
13.4747
14.1188
14.0163
13.5523
13.3438
13.3741
13.2626
13.206
13.2105
13.1452
13.4613
14.5557
14.1051
14.1845
14.1166
13.937
13.8915
13.8882
13.6443
13.8265
13.5986
13.4956
13.6608
13.3483
12.8875
12.851
13.7282
12.8344
13.24
12.7953
12.7824
12.7159
13.9563
13.9523
13.0482
12.7364
12.9067
13.8511
12.8238
13.1478
13.0908
12.9214
13.0067
12.9282
12.9289
12.865
12.9756
12.9054
13.3723
14.5519
13.3841
12.8834
12.8889
13.2382
12.9555
13.2646
13.0649
13.2531
13.3348
13.3129
13.1998
13.2548
13.2337
13.214
13.2837
13.5729
13.0044
12.8929
12.9741
12.8585
12.8202
13.0358
12.9179
12.9382
12.9657
12.9404
12.8878
13.432
13.6327
13.323
13.3456
13.4379
13.5743
13.2158
13.0933
12.8733
12.8337
12.8452
12.7891
12.966
12.9273
12.9312
12.9107
12.9175
12.8765
12.9258
13.7363
13.5138
13.3311
13.6942
13.6024
13.442
13.3126
13.4173
13.3246
12.9914
13.108
13.0299
13.0646
12.9456
13.0373
12.9949
12.8606
13.7036
13.4122
13.6194
13.6313
13.2982
13.4107
13.3986
13.3175
13.4593
13.1867
13.1902
13.252
13.1095
12.8724
12.8735
12.7662
12.8033
12.7679
12.7672
12.8091
12.7701
12.6795
12.6221
12.7236
12.7123
12.6823
12.635
12.7462
13.0387
13.0232
12.9021
12.9655
12.9086
12.9491
12.9027
12.9669
12.9165
12.8099
12.5979
12.879
12.778
12.8366
12.8005
12.8907
13.0153
12.9195
12.9747
12.9182
12.8994
12.9409
12.9485
12.9449
13.1386
13.2034
13.1748
13.0824
13.1487
13.1218
12.915
12.9493
12.9969
12.9411
12.9085
12.9629
12.9447
12.9683
12.9301
12.9459
12.9269
12.9293
12.9275
12.9291
13.2831
13.3326
13.2092
13.2067
13.2466
12.9681
12.9518
12.9372
12.9538
12.9087
12.925
12.9013
12.9229
12.9436
12.9336
12.9163
12.9177
12.911
12.9259
13.4054
13.306
13.2767
13.2605
13.1714
13.2376
13.2169
13.1784
13.1042
12.9506
12.9769
12.9636
12.9657
12.9379
12.9207
12.9321
12.9201
12.9275
12.922
12.9377
12.9215
12.9312
13.2351
13.1428
13.2657
13.2358
13.0514
13.1793
13.147
13.1173
13.1397
13.087
13.0819
13.0991
12.9871
12.8733
12.879
12.7688
12.8135
12.778
12.7726
12.8208
12.7795
12.6998
12.6992
12.7489
12.7464
12.7846
12.7824
12.8272
13.03
13.0373
12.9052
12.9732
12.9244
12.9483
12.9126
12.9753
12.9319
12.8492
12.8546
12.8909
12.8363
12.855
12.8363
12.8717
12.946
12.9302
12.8962
12.9252
12.9432
12.9436
12.942
12.9464
13.0373
13.097
13.0728
13.0116
13.0582
13.038
12.9105
12.9545
12.9403
12.9041
12.9084
12.9305
12.9325
12.9262
12.9285
12.9248
12.9283
12.94
12.9291
12.9266
13.1258
13.1632
13.062
13.0551
13.085
12.9277
12.9239
12.9234
12.9345
12.9263
12.9193
12.9215
12.9173
12.9213
12.9275
12.9172
12.9208
12.9362
12.932
13.213
13.1313
13.1346
13.1214
13.0657
13.0695
13.0547
13.0694
13.0271
12.9271
12.891
12.9131
12.9328
12.9199
12.8791
12.9021
12.9197
12.9238
12.9206
12.9323
12.9317
12.9385
13.0914
13.0491
13.1223
13.0911
12.9617
13.0677
13.041
13.0633
13.0755
13.0458
13.0434
13.0481
12.9546
12.8759
12.8642
12.7767
12.8212
12.7827
12.779
12.8155
12.7827
12.7569
12.7962
12.7661
12.7667
12.8
12.8367
12.8331
13.0379
13.027
12.9096
12.9641
12.9381
12.9185
12.8918
12.9516
12.9391
12.8638
12.8297
12.8555
12.851
12.8684
12.8279
12.8521
12.8439
12.8075
13.0081
13.0283
13.013
13.0101
13.0007
12.9922
12.9015
12.8973
12.9112
12.8274
12.8549
12.8682
12.8693
12.9441
12.9266
12.936
12.9229
12.945
12.9116
12.9408
12.9995
13.0195
12.9665
12.9641
12.975
12.9196
12.9119
12.9275
12.8908
12.8857
12.8828
12.8929
12.9278
12.9204
12.9398
12.9109
12.9263
12.9171
12.9392
13.063
13.0076
12.9939
13.0133
12.9775
12.9548
12.9423
12.9589
12.9212
12.9125
12.8737
12.897
12.9056
12.9
12.8715
12.8942
12.9069
13.0047
12.9547
13.0181
12.9962
12.9074
12.9716
12.9573
13.0205
13.0175
12.9931
12.9966
12.9901
12.948
12.8349
12.7869
12.777
12.8026
12.7778
12.7698
12.7815
12.7674
12.7705
12.7897
12.7792
12.7685
12.774
12.8218
12.8094
13.0014
12.9542
12.8476
12.9351
12.9163
12.8262
12.7839
12.8977
12.876
12.8467
12.8223
12.8336
12.8216
12.8202
12.8167
12.8175
12.8206
12.8221
13.0071
12.9822
12.9767
12.9873
12.9642
12.9591
12.8427
12.8398
12.816
12.8386
12.7892
12.9437
12.9502
12.9204
12.9276
12.9253
12.869
12.8531
12.8483
12.815
12.8435
12.9612
12.9212
12.889
12.9087
12.8687
12.8705
12.8427
12.8654
12.8238
12.8906
12.8592
12.8837
12.8678
12.8808
12.8397
12.876
12.875
12.9031
12.857
12.9213
12.9121
12.8292
12.8775
12.8663
12.9767
12.9638
12.9472
12.9615
12.9391
12.9208
12.7223
12.6577
12.7606
12.7531
12.7538
12.7492
12.7159
12.7399
12.761
12.7642
12.8094
12.7812
12.776
12.7967
12.7858
12.8972
12.8377
12.7042
12.8507
12.821
12.7069
12.6247
12.802
12.7425
12.7969
12.8092
12.8094
12.7769
12.7854
12.7981
12.8021
12.8164
12.8126
12.9564
12.9309
12.9238
12.9115
12.8755
12.8683
12.8313
12.8301
12.8282
12.8191
12.8148
12.9018
12.9037
12.8509
12.8616
12.8733
12.8253
12.8207
12.8008
12.7982
12.7881
12.889
12.8523
12.8103
12.8283
12.7882
12.8095
12.7725
12.8037
12.7676
12.8598
12.8192
12.8611
12.8105
12.8267
12.7959
12.8384
12.8147
12.8235
12.7992
12.845
12.8293
12.7806
12.8253
12.8083
12.9494
12.9253
12.9316
12.9346
12.9293
12.8861
12.5998
12.542
12.7272
12.6636
12.7184
12.6954
12.6001
12.6825
12.785
12.7936
12.7759
12.7585
12.7859
12.7851
12.7746
12.7766
12.7048
12.5549
12.7469
12.6445
12.5892
12.4957
12.6663
12.5418
12.7855
12.7902
12.7948
12.7739
12.7793
12.7764
12.7833
12.8064
12.791
12.8442
12.8093
12.8048
12.7678
12.7416
12.7398
12.7995
12.789
12.7977
12.7756
12.7743
12.8153
12.8329
12.7499
12.7643
12.7846
12.7689
12.7486
12.7433
12.7414
12.7108
12.8113
12.7692
12.7322
12.7784
12.7486
12.7426
12.6818
12.749
12.7192
12.789
12.766
12.8082
12.7404
12.7453
12.7326
12.774
12.7301
12.7727
12.7389
12.7997
12.789
12.7315
12.7636
12.7572
12.9133
12.9223
12.8835
12.8853
12.8943
12.8317
12.4881
12.4463
12.654
12.5341
12.64
12.6076
12.4758
12.5953
12.7261
12.7565
12.6908
12.6902
12.7185
12.7545
12.7295
12.6256
12.5501
12.4436
12.5795
12.4491
12.4739
12.4012
12.498
12.3774
12.763
12.7554
12.7641
12.7344
12.7426
12.734
12.745
12.7681
12.7473
12.6878
12.6726
12.6725
12.6161
12.6042
12.6078
12.7457
12.7471
12.7424
12.7188
12.7227
12.7066
12.7269
12.6386
12.6495
12.6648
12.7053
12.6656
12.6609
12.6715
12.6233
12.7158
12.6594
12.625
12.7105
12.6791
12.6324
12.5634
12.6619
12.6302
12.6984
12.694
12.7339
12.659
12.657
12.6578
12.6985
12.6383
12.6986
12.6544
12.7168
12.7113
12.6494
12.6648
12.6622
12.8498
12.8531
12.802
12.8132
12.812
12.7599
12.4222
12.4036
12.5615
12.433
12.5493
12.5209
12.4032
12.5082
12.653
12.6848
12.611
12.6189
12.6586
12.7043
12.6827
12.4992
12.4858
12.3749
12.4534
12.3298
12.4022
12.3577
12.45
12.3122
12.7192
12.7086
12.7228
12.6886
12.7
12.6866
12.7058
12.7247
12.709
12.5661
12.5476
12.5516
12.5272
12.5019
12.508
12.6927
12.6977
12.6998
12.6739
12.6807
12.5936
12.5991
12.5357
12.5397
12.5291
12.6357
12.5885
12.6056
12.6174
12.5691
12.6116
12.5658
12.5034
12.6163
12.585
12.5373
12.4572
12.5747
12.553
12.6278
12.6249
12.6709
12.5914
12.6125
12.5995
12.6523
12.5974
12.6104
12.5755
12.6164
12.6187
12.5686
12.5832
12.5842
12.7816
12.7758
12.7346
12.751
12.744
12.6987
12.3943
12.3885
12.4899
12.3899
12.4784
12.4699
12.3863
12.4628
12.5911
12.6402
12.57
12.5735
12.6304
12.6672
12.6593
12.5075
12.4814
12.3462
12.4562
12.3163
12.3845
12.3382
12.4231
12.3135
12.687
12.6675
12.6931
12.6688
12.6815
12.6602
12.6881
12.6977
12.6944
12.4944
12.4697
12.4756
12.4433
12.4399
12.4469
12.6627
12.6706
12.6849
12.6613
12.6701
12.4859
12.4676
12.4412
12.4366
12.4244
12.6113
12.5667
12.6067
12.6156
12.5759
12.5216
12.4986
12.4305
12.5332
12.5264
12.4689
12.4114
12.5032
12.5021
12.6071
12.5798
12.6381
12.5533
12.6107
12.5732
12.6333
12.6085
12.5488
12.5259
12.5569
12.5584
12.5261
12.5341
12.537
12.7221
12.7117
12.6739
12.7007
12.6832
12.6601
12.3956
12.4128
12.4623
12.3933
12.4618
12.4747
12.4116
12.4747
12.568
12.6311
12.5737
12.5759
12.6431
12.661
12.6732
12.4125
12.3841
12.3365
12.3798
12.2993
12.3919
12.3469
12.3602
12.292
12.6862
12.6623
12.6922
12.6845
12.6984
12.6736
12.705
12.6991
12.7127
12.399
12.4074
12.4121
12.4012
12.3981
12.4017
12.6684
12.6789
12.7029
12.6833
12.6943
12.3933
12.3916
12.3701
12.3639
12.3628
12.6314
12.5958
12.6455
12.649
12.6224
12.4763
12.4488
12.3907
12.4807
12.4797
12.4405
12.3654
12.4567
12.4528
12.6191
12.5752
12.6355
12.548
12.6287
12.5812
12.6389
12.6396
12.5062
12.4856
12.5075
12.5135
12.4917
12.4774
12.4862
12.6822
12.6584
12.6315
12.6637
12.637
12.6414
12.4489
12.4988
12.505
12.4429
12.5033
12.5521
12.4883
12.5488
12.5986
12.6678
12.6332
12.636
12.7047
12.6978
12.734
12.3765
12.3672
12.3765
12.3635
12.2889
12.4353
12.4286
12.383
12.3041
12.7229
12.6953
12.7277
12.7425
12.7542
12.7275
12.7594
12.7353
12.7653
12.4171
12.3845
12.4031
12.3912
12.3483
12.367
12.7052
12.7169
12.7519
12.7331
12.744
12.3506
12.3401
12.3208
12.3265
12.3171
12.6732
12.6502
12.6977
12.6969
12.6837
12.4241
12.3905
12.3639
12.4363
12.4333
12.4011
12.3859
12.4142
12.432
12.6355
12.5868
12.6393
12.5477
12.6387
12.5894
12.639
12.6676
12.4713
12.4748
12.4501
12.4624
12.4754
12.4324
12.4419
12.6404
12.6107
12.562
12.598
12.5761
12.6172
12.5722
12.6621
12.618
12.5516
12.6104
12.7021
12.6315
12.6891
12.6894
12.7551
12.7567
12.7577
12.819
12.7834
12.8433
12.3763
12.425
12.5023
12.4185
12.3521
12.563
12.5914
12.4666
12.4365
12.7997
12.7705
12.8016
12.8438
12.852
12.8229
12.8525
12.8072
12.8531
12.3539
12.3049
12.3028
12.349
12.2863
12.2839
12.7703
12.7816
12.8328
12.8108
12.8211
12.3121
12.2933
12.3487
12.349
12.2982
12.7304
12.7163
12.7639
12.7614
12.7523
12.3652
12.3704
12.4266
12.4103
12.4538
12.4052
12.4732
12.4085
12.4746
12.6445
12.5921
12.6363
12.5512
12.6547
12.5962
12.6376
12.7012
12.4879
12.5124
12.4174
12.4216
12.4975
12.4194
12.4197
12.5478
12.528
12.4702
12.4945
12.4859
12.5797
12.7691
12.8893
12.8038
12.7304
12.7847
12.9204
12.8447
12.896
12.8417
12.897
12.9467
12.9399
12.9867
12.9168
12.9988
12.5188
12.6514
12.6922
12.5414
12.5404
12.7884
12.8034
12.6645
12.6625
12.9213
12.8894
12.9178
12.983
12.9875
12.9576
12.9664
12.916
12.9689
12.4079
12.3526
12.3455
12.5263
12.4672
12.4641
12.8672
12.8777
12.9496
12.9194
12.9293
12.4206
12.3442
12.5197
12.5046
12.4241
12.8144
12.7972
12.8604
12.8591
12.8452
12.4022
12.4734
12.5436
12.4578
12.5145
12.5477
12.6463
12.5784
12.5744
12.676
12.6048
12.6465
12.5855
12.7042
12.6177
12.6624
12.7916
12.5538
12.601
12.4538
12.4538
12.5535
12.4923
12.4822
12.4531
12.458
12.3834
12.4167
12.4194
12.5482
13.0256
13.1675
13.0512
12.9784
13.0233
13.1891
13.119
13.1605
13.0511
13.0886
13.183
13.1692
13.1939
13.1003
13.1944
12.8047
12.9698
12.9253
12.8117
12.8008
13.0747
13.0573
12.9602
12.946
13.0855
13.0525
13.062
13.1775
13.1646
13.1388
13.1444
13.0695
13.1374
12.6761
12.6249
12.6075
12.8386
12.7835
12.76
13.0045
13.0142
13.1021
13.0667
13.0763
12.6125
12.5157
12.7733
12.7211
12.6816
12.951
12.9121
12.9981
13.005
12.959
12.6095
12.8018
12.7899
12.7409
12.6814
12.9032
12.9502
12.9379
12.8282
12.7351
12.6378
12.691
12.6617
12.7784
12.6744
12.7346
12.8683
12.6897
12.8261
12.559
12.5182
12.6287
12.6792
12.6299
12.397
12.3313
12.2243
12.4113
12.2609
12.5702
13.3128
13.453