/*--------------------------------*- C++ -*----------------------------------*\
| =========                 |                                                 |
| \\      /  F ield         | OpenFOAM: The Open Source CFD Toolbox           |
|  \\    /   O peration     | Version:  5.x                                   |
|   \\  /    A nd           | Web:      www.OpenFOAM.org                      |
|    \\/     M anipulation  |                                                 |
\*---------------------------------------------------------------------------*/
FoamFile
{
    version     2.0;
    format      ascii;
    class       volScalarField;
    location    "5.4";
    object      p;
}
// * * * * * * * * * * * * * * * * * * * * * * * * * * * * * * * * * * * * * //

dimensions      [0 2 -2 0 0 0 0];

internalField   nonuniform List<scalar> 
10571
(
205.995
276.031
240.971
243.101
178.223
311.305
277.123
267.26
185.863
96.1179
351.224
352.634
335.667
290.553
230.42
190.574
348.157
333.909
290.926
262.809
220.164
306.442
283.201
273.501
19.3333
51.1122
30.8221
19.5332
17.4395
85.2542
76.3571
29.1238
15.281
15.9843
188.923
174.99
106.052
52.6898
26.0693
19.9564
239.567
102.549
33.5067
49.2327
25.2702
215.927
180.851
73.2834
18.0991
19.8329
18.848
18.0222
17.3363
20.3528
19.9107
14.4812
19.0779
18.8782
55.6649
29.0244
27.0647
20.1616
22.6963
22.6133
101.153
27.8397
16.4235
24.518
23.391
75.5145
21.3771
25.8894
15.5505
17.2076
17.0301
15.598
16.2766
18.6856
14.796
15.7179
15.0655
16.3192
23.5064
19.1604
14.6477
15.2587
14.0661
15.0843
39.1973
19.5665
19.6335
20.2048
19.4541
25.5573
22.1321
22.4924
15.1509
14.5518
14.8467
15.2589
15.498
16.2734
14.8824
15.2468
14.7986
14.459
16.931
16.9657
14.608
14.7976
14.4001
14.6818
20.7058
15.8887
15.602
13.9335
14.0262
15.8654
15.2534
14.0639
14.9704
14.2088
14.3878
14.9576
15.1028
13.9564
14.6186
14.8245
14.7657
14.6305
14.4478
14.6639
13.9883
14.4031
14.6315
14.5688
14.5493
14.5029
14.4183
14.114
13.6127
14.3308
14.4292
14.4093
14.3951
14.2557
14.8137
14.3369
14.5409
14.7385
14.824
14.3581
14.4674
14.6895
14.6245
14.5258
14.4518
14.2434
14.3014
14.3929
14.607
14.4009
14.5318
14.4959
14.3379
14.3153
14.1054
14.3761
14.4316
14.49
14.3401
14.298
14.2941
14.6844
14.5
14.5232
14.622
14.6487
14.4267
14.4503
14.6279
14.5
14.3742
14.3666
14.3969
14.3716
14.4121
14.5997
14.4288
14.4947
14.4858
14.3893
14.2688
14.3584
14.3972
14.5062
14.4937
14.3623
14.2859
14.3793
14.6071
14.569
14.5337
14.5648
14.5545
14.5503
14.4753
14.5805
14.4583
14.4048
14.4725
14.4802
14.4965
14.4887
14.6085
14.5356
14.5117
14.5041
14.4499
14.3727
14.4714
14.468
14.5396
14.4448
14.4165
14.4776
14.5629
14.4508
14.5181
14.5288
14.4979
14.6094
14.5061
14.5788
14.4487
14.3365
14.5341
14.5598
14.5289
14.6194
14.5863
14.5237
14.5115
14.4928
14.5406
14.5226
14.5359
14.5392
14.5154
14.5406
14.5352
14.3823
14.4663
14.5019
14.484
14.4806
14.5042
14.5941
14.4479
14.3964
14.5277
14.5234
14.5299
14.58
14.5836
14.4996
14.5381
14.5499
14.5571
14.5406
14.5375
14.5929
14.5829
14.565
14.5161
14.4249
14.4269
14.4709
14.4883
14.4588
14.4974
14.555
14.4719
14.3886
14.5277
14.4837
14.5243
14.5231
14.5797
14.4572
14.5457
14.5715
14.553
14.5517
14.536
14.6197
14.6076
14.5739
14.5308
14.4468
14.4357
14.4748
14.5251
14.4486
14.4857
14.5402
14.5185
14.4182
14.5362
14.5461
14.5357
14.4982
14.5782
14.4405
14.5644
14.5941
14.5599
14.5673
14.5465
14.6275
14.6172
14.5779
14.5799
14.4862
14.4775
14.5595
14.5916
14.46
14.468
14.5692
14.6334
14.5116
14.5568
14.5528
14.5671
14.554
14.6012
14.4963
14.6006
14.6226
14.5928
14.5982
14.5781
14.6413
14.6334
14.5922
14.6395
14.5784
14.542
14.6112
14.6468
14.5313
14.5143
14.5688
14.7426
14.5715
14.6183
14.5891
14.6051
14.6165
14.6413
14.559
14.6593
14.6656
14.6234
14.6414
14.6206
14.6716
14.6566
14.6336
14.7092
14.6784
14.6116
14.6518
14.7077
14.6355
14.5901
14.6368
14.7917
14.6431
14.6964
14.6581
14.6582
14.6659
14.6735
14.6184
14.7269
14.7169
14.6435
14.6808
14.6648
14.716
14.6859
14.6741
14.7668
14.7895
14.7367
14.6579
14.7609
14.7381
14.6817
14.7161
14.8089
14.7466
14.7822
14.7375
14.7232
14.704
14.694
14.6556
14.7921
14.7654
14.6724
14.7176
14.7063
14.7653
14.7178
14.7097
14.9074
14.8651
14.8791
14.774
14.8487
14.8035
14.7687
14.8015
14.8045
14.8394
14.8552
14.7951
14.7633
14.735
14.7116
14.7047
14.8424
14.8028
14.7204
14.7556
14.7496
14.8053
14.756
14.7485
15.0584
14.9632
15.0432
14.9311
14.9184
14.8597
14.8532
14.8716
14.7635
14.8972
14.8942
14.8119
14.777
14.7626
14.7349
14.749
14.8656
14.8256
14.7751
14.7949
14.7837
14.8274
14.7927
14.7962
15.0931
15.0027
15.1038
14.9897
14.934
14.8778
14.8507
14.872
14.6614
14.8793
14.8896
14.7864
14.7719
14.7901
14.738
14.7704
14.863
14.8406
14.8051
14.8294
14.7973
14.8403
14.8204
14.8405
14.9716
14.9948
15.0254
14.9893
14.9247
14.8525
14.7936
14.8238
14.5706
14.8307
14.8659
14.7373
14.7962
14.8071
14.7114
14.7536
14.8496
14.8504
14.8226
14.8353
14.8235
14.8547
14.8463
14.8611
14.9693
15.0014
14.9788
14.9019
14.8554
14.8308
14.7541
14.7071
14.5245
14.7812
14.8405
14.6833
14.8338
14.8339
14.7211
14.7691
14.8324
14.8637
14.8285
14.8285
14.9374
14.8645
14.8662
14.8774
14.8904
15.024
14.9526
14.8237
14.7687
14.8347
14.734
14.6368
14.5261
14.7472
14.8157
14.6476
14.8586
14.8612
14.7895
14.8518
14.8132
14.8716
14.8447
14.9031
15.0714
14.882
14.8818
14.9303
14.9187
15.045
14.943
14.8013
14.7879
14.8471
14.74
14.615
14.5186
14.7079
14.7998
14.6383
14.8572
14.8574
14.8735
14.9634
14.7933
14.8581
14.8592
14.954
15.1049
14.8946
14.896
14.9313
14.8572
15.0482
14.9324
14.7728
14.6523
14.8496
14.7508
14.6038
14.5516
14.665
14.7918
14.654
14.8342
14.8414
14.9273
15.0163
14.7794
14.8627
14.8792
14.9745
15.0477
14.8918
14.9029
14.9363
14.8034
15.0275
14.9222
14.7416
14.4402
14.8388
14.7505
14.6698
14.5824
14.6323
14.7867
14.6713
14.8068
14.8272
14.9023
15.001
14.7686
14.8896
14.8998
14.9693
15.0085
14.8892
14.9146
14.9543
14.7768
14.9864
14.9091
14.7104
14.2292
14.8218
14.7472
14.767
14.6015
14.6494
14.7889
14.6865
14.802
14.8256
14.8354
14.9979
14.7765
14.915
14.9179
14.9365
14.9712
14.9096
14.9424
14.9789
14.7959
14.9471
14.9094
14.7274
14.2235
14.8107
14.7562
14.8532
14.6107
14.7555
14.7978
14.7143
14.7973
14.8499
14.8169
14.9506
14.8035
14.9339
14.9422
14.933
14.9504
14.9479
14.9744
14.9954
14.8678
14.9251
14.9239
14.8005
14.455
14.7991
14.7658
14.9034
14.7124
14.9317
14.817
14.7445
14.7849
14.8848
14.8438
14.9255
14.8573
14.9692
14.9884
14.9323
14.9561
15.0118
15.0258
14.9867
14.9386
14.9023
14.9265
14.8694
14.799
14.7854
14.7965
14.8938
14.8321
15.0796
14.85
14.7874
14.8574
14.9014
14.8625
14.9858
14.943
15.0445
14.9867
14.9297
14.9607
15.0778
15.061
15.0021
14.9571
14.887
14.9123
14.8621
14.7985
14.8129
14.835
14.8194
14.8136
14.9876
14.9113
14.8658
14.9232
14.8799
14.852
14.9521
15.0234
15.0589
14.9306
14.9112
14.9449
15.0966
15.0419
14.9881
14.9246
14.8937
14.8863
14.7951
14.7405
14.8581
14.8385
14.7358
14.7715
14.8822
14.9452
14.9373
14.9352
14.8412
14.8335
14.9066
15.0389
15.0277
14.8818
14.8892
14.9234
15.0625
15.0128
14.9672
14.8669
14.9008
14.8565
14.7119
14.7155
14.8891
14.8062
14.6773
14.7642
14.8629
14.9682
14.9744
14.8981
14.8026
14.8253
14.8838
15.011
14.9796
14.8534
14.8723
14.9103
15.012
14.9816
14.9481
14.8118
14.9206
14.8042
14.6486
14.7516
14.8764
14.7227
14.6401
14.7786
14.8769
14.9738
14.9494
14.8369
14.7691
14.8308
14.8786
14.9746
14.9121
14.83
14.8613
14.9069
14.9903
14.9596
14.9341
14.7973
14.8877
14.7426
14.6622
14.8233
14.8079
14.6155
14.6258
14.8136
14.8917
14.9268
14.8699
14.7677
14.7497
14.845
14.8854
14.9249
14.8567
14.8081
14.8564
14.9108
14.9544
14.9349
14.9243
14.8461
14.8368
14.7451
14.7469
14.8987
14.706
14.5853
14.646
14.8578
14.9091
14.842
14.7576
14.7127
14.7531
14.8634
14.8987
14.8587
14.818
14.7969
14.8577
14.9202
14.9051
14.9092
14.9192
14.9093
14.8226
14.7877
14.828
14.9652
14.7058
14.662
14.6991
14.9019
14.9355
14.7408
14.6865
14.7168
14.7816
14.8879
14.9165
14.8033
14.8004
14.8015
14.8672
14.9355
14.8756
14.8956
14.9215
14.9739
14.7984
14.8187
14.8971
14.9946
14.7507
14.735
14.7759
14.9279
14.9625
14.7896
14.7448
14.7788
14.8244
14.9193
14.9386
14.7981
14.8065
14.8226
14.8849
14.9546
14.8698
14.8975
14.9314
15.0396
14.6689
14.8408
14.9861
15.0075
14.6972
14.7791
14.8672
14.9499
14.9827
14.8443
14.7903
14.8491
14.8666
14.948
14.9584
14.8249
14.8252
14.8526
14.9082
14.9736
14.8809
14.9099
14.946
15.0703
14.7653
14.9107
15.0027
15.007
14.7513
14.8804
14.9267
14.9784
14.9963
14.8523
14.8333
14.8916
14.9051
14.9685
14.975
14.8565
14.8418
14.8829
14.9325
14.9893
14.9003
14.9262
14.9605
15.0301
14.9566
14.9734
14.971
14.9998
14.8635
14.9656
14.9477
15.004
15.0037
14.8902
14.8896
14.9146
14.9365
14.9815
14.9869
14.8902
14.8523
14.9086
14.9537
15.0005
14.9213
14.9379
14.9693
14.9908
14.9676
14.9541
14.9573
14.9955
14.9111
14.9904
14.9563
15.0179
15.0108
14.9326
14.9183
14.913
14.9574
14.9878
14.994
14.9152
14.8567
14.9316
14.965
15.007
14.9201
14.9406
14.9715
14.9776
14.95
14.9426
14.9587
14.9932
14.9397
14.9701
14.9697
15.0134
15.0162
14.9584
14.9396
14.9277
14.9639
14.9927
14.9995
14.9293
14.8651
14.9478
14.9756
15.0082
14.9296
14.9444
14.9717
14.9863
14.9595
14.9529
14.9728
14.9975
14.9626
14.9648
14.9732
15.0106
15.0213
14.9685
14.949
14.9404
14.9642
14.9997
15.0061
14.9428
14.8816
14.9606
14.9827
15.0104
14.9616
14.9534
14.9764
15.006
14.9761
14.9735
14.9903
15.0115
14.9717
14.9807
14.981
15.0169
15.0293
14.9648
14.9512
14.9478
14.9648
15.0059
15.0185
14.9496
14.9096
14.9721
14.9871
15.0115
14.9788
14.9638
14.9855
15.0275
14.9813
15.0065
15.0294
15.0286
14.962
14.9765
14.9936
15.0277
15.0399
14.9556
14.9417
14.9543
14.9715
15.0141
15.0306
14.9548
14.932
14.984
14.9941
15.0159
14.9835
14.9735
14.9964
15.0413
14.9842
15.0208
15.0629
15.0419
14.9396
14.9659
15.0128
15.0327
15.0479
14.9461
14.9293
14.9645
14.9866
15.0237
15.0407
14.9588
14.9503
14.9913
15.0057
15.0252
14.9656
14.9806
15.0064
15.0387
14.9802
14.9867
15.04
15.0358
14.9526
14.9778
15.0229
15.0335
15.0489
14.9532
14.9476
14.9881
15.002
15.032
15.0479
14.976
14.9822
14.9978
15.0183
15.0357
14.9777
14.9943
15.017
15.0135
14.9795
14.9551
15.0062
15.0322
14.9794
14.9777
15.0188
15.0337
15.0487
14.9782
14.9837
15.0332
15.0168
15.037
15.0499
14.984
15.0145
15.0086
15.0288
15.0452
15.012
15.0084
15.0247
14.9981
14.9824
14.9403
14.985
15.0409
14.9924
14.9956
15.0141
15.0337
15.0504
15.0017
15.0038
15.0323
15.0257
15.038
15.0497
14.9797
15.0191
15.0202
15.0364
15.0517
15.0214
15.0116
15.0301
14.9996
14.987
14.9406
14.9757
15.0497
15.0021
15.0234
15.0131
15.0394
15.0569
15.0197
15.0147
15.0167
15.0298
15.0356
15.049
15.004
14.9985
15.0284
15.0428
15.0569
15.0099
15.0143
15.0358
15.0158
15.0008
14.9462
14.9823
15.0584
15.0139
15.0296
15.0125
15.0497
15.0668
15.0369
15.0178
15.02
15.0358
15.034
15.0466
15.0281
14.9959
15.0404
15.0501
15.0604
15.0077
15.0267
15.0455
15.0437
15.0274
14.9747
15.0028
15.0675
15.0095
15.0096
15.0217
15.0492
15.0788
15.0712
15.022
15.0255
15.043
15.0382
15.0449
15.1028
15.0203
15.0566
15.0555
15.0612
15.0261
15.0499
15.057
15.0761
15.0731
15.0184
15.0301
15.0717
15.0142
14.9931
15.0382
15.0462
15.0824
15.061
15.0186
15.0411
15.0539
15.0404
15.0459
15.1051
15.0285
15.0679
15.0546
15.0563
15.05
15.0685
15.0679
15.1026
15.1152
15.0623
15.0545
15.0715
15.0717
15.0372
15.0539
15.0414
15.0687
15.059
15.0454
15.0663
15.0626
15.041
15.0438
15.0957
15.0502
15.0744
15.0555
15.0482
15.0762
15.0834
15.076
15.1161
15.1564
15.0959
15.0679
15.0664
15.1548
15.0683
15.0569
15.0278
15.0425
15.1266
15.1093
15.0859
15.0641
15.0335
15.033
15.0863
15.0938
15.0794
15.0565
15.0384
15.1423
15.0961
15.0801
15.1151
15.1789
15.1108
15.0671
15.0517
15.1792
15.0721
15.0483
15.0016
15.0101
15.1467
15.1414
15.1006
15.0615
15.0158
15.0065
15.0885
15.12
15.0885
15.0544
15.0219
15.1662
15.1038
15.0812
15.1032
15.1754
15.1127
15.0531
15.0232
15.1742
15.0805
15.0276
14.951
14.9457
15.1715
15.1614
15.1188
15.0634
14.9802
14.9514
15.1544
15.1473
15.1061
15.048
14.9951
15.1665
15.13
15.0875
15.0864
15.1728
15.1104
15.0346
14.9797
15.1729
15.098
15.0007
14.8654
14.8529
15.1961
15.1848
15.1417
15.0704
14.9177
14.8505
15.2021
15.1722
15.121
15.043
14.9468
15.1867
15.1468
15.1021
15.0694
15.1772
15.1116
15.0186
14.9218
15.1878
15.1127
14.9747
14.7452
14.6571
15.231
15.2217
15.185
15.066
14.8161
14.6274
15.245
15.2211
15.1202
15.0016
14.848
15.2139
15.1614
15.102
15.0534
15.1797
15.1155
15.0051
14.8479
15.2004
15.1269
14.9386
14.5383
14.2822
15.2693
15.2624
15.2376
15.0532
14.6452
14.1183
15.3028
15.2899
15.1257
14.9368
14.6521
15.2637
15.1611
15.0678
15.0371
15.1776
15.1119
14.9855
14.7564
15.2048
15.1271
14.8908
14.259
13.3657
15.3095
15.2926
15.2667
15.024
14.3871
12.9375
15.3691
15.346
15.1173
14.8321
14.2684
15.3185
15.1623
15.0273
15.0179
15.1641
15.0914
14.9578
14.6613
15.1911
15.1269
14.8137
13.9464
11.0064
15.3403
15.3133
15.3104
14.9582
14.1273
11.3996
-7.33179
15.4397
15.36
15.1049
14.6732
13.3249
15.3657
15.1466
14.9757
14.9974
15.1277
15.0484
14.9276
14.6203
15.1349
14.9984
14.7905
13.8656
9.88163
-0.171219
15.3172
15.2887
15.2154
14.8545
14.0021
11.3419
0.830621
15.4875
15.2652
14.9851
14.5002
11.9193
15.3457
15.088
14.8806
14.9708
15.065
14.9738
14.8871
14.6896
15.0213
14.7684
14.6535
14.16
11.7831
3.4637
15.0252
15.0417
14.9676
14.6767
14.0748
11.5279
3.78637
15.3608
15.0677
14.7218
14.3892
12.3265
3.96398
15.144
14.9644
14.7665
14.9352
15.0035
14.903
14.8354
14.7992
14.9456
14.6542
14.511
14.3387
12.6822
4.70432
14.7544
14.7259
14.8044
14.547
14.1801
11.9858
3.23922
15.1236
14.8748
14.6394
14.3269
13.1705
14.9795
14.8651
14.6903
14.9019
15.0033
14.8709
14.7971
14.8311
15.0244
14.6611
14.4942
14.448
13.9802
15.0158
14.8313
14.7319
14.504
14.2996
12.7657
-2.38444
14.9799
14.7268
14.5162
14.3757
14.3124
14.8166
14.6047
14.5853
14.8742
15.0048
14.8569
14.7795
14.8123
15.0176
14.7628
14.5533
14.5331
14.7846
15.0328
14.9146
14.696
14.4815
14.3616
14.0451
14.9001
14.6622
14.4737
14.4424
14.6509
14.7335
14.5415
14.5468
14.8357
14.8564
14.7899
14.7426
14.7924
14.885
14.6355
14.4254
14.5165
14.8158
14.9243
14.8673
14.6302
14.4337
14.3341
14.3637
14.8455
14.6481
14.5028
14.4837
14.6623
14.7223
14.5765
14.5528
14.7794
14.7302
14.6416
14.675
14.7814
14.7542
14.4763
14.2968
14.4804
14.7837
14.8334
14.7853
14.5715
14.428
14.363
14.4864
14.8156
14.6704
14.5692
14.5405
14.7197
14.7604
14.664
14.6609
14.7502
14.5379
14.467
14.6339
14.8256
14.6067
14.3136
14.3062
14.5872
14.8562
14.7781
14.7271
14.5572
14.4828
14.5021
14.6571
14.8281
14.7379
14.6802
14.6573
14.8259
14.8319
14.7858
14.8024
14.8258
14.4117
14.3863
14.7
14.971
14.5216
14.3175
14.4799
14.8069
15.0067
14.7965
14.7413
14.6404
14.6258
14.7369
14.8594
14.9106
14.8589
14.8349
14.8225
14.9767
14.9559
14.93
14.9602
15.0493
14.3429
14.4987
14.9221
15.1963
14.5445
14.4956
14.7625
15.0326
15.2045
14.9064
14.832
14.7772
14.8044
14.9291
15.0671
15.0594
15.006
15.005
14.9994
15.1303
15.1196
15.1012
15.1099
15.3199
14.5939
14.855
15.188
15.365
14.7027
14.6645
14.8808
15.1457
15.3498
15.0942
14.9716
14.8415
14.855
15.0262
15.2171
15.2533
15.09
15.0485
15.113
15.2258
15.3055
15.2359
15.2267
15.4206
14.8239
15.049
15.2757
15.3824
14.8456
14.8544
15.0136
15.1996
15.3622
15.2693
15.0805
14.9263
14.9625
15.1037
15.2637
15.3503
15.1756
15.1118
15.1523
15.2627
15.4099
15.3213
15.2668
302.578
251.049
282.837
270.102
244.582
257.695
251.35
234.296
330.8
325.096
321.815
331.594
317.809
288.79
276.6
293.507
297.881
271.148
270.855
287.739
280.952
247.25
224.743
253.734
244.563
214.548
352.706
371.674
375.793
336.935
326.625
362.086
358.591
325.24
325.858
363.745
351.455
309.694
287.557
332.004
297.921
255.365
245.436
266.343
261.642
221.419
249.782
237.699
379.392
384.84
375.939
374.175
368.791
369.661
362.367
376.835
370.617
362.338
363.87
343.683
303.806
338.532
301.333
271.711
266.732
276.223
268.187
264.826
249.286
260.362
363.808
363.672
356.081
350.482
344.664
345.566
336.68
330.887
316.164
320.457
296.5
303.884
287.742
280.121
270.876
281.721
273.906
258.952
328.543
315.265
306.013
301.766
292.868
282.457
291.858
280.942
237.942
119.645
204.529
220.03
218.37
61.495
76.7741
54.7849
215.72
187.764
63.9004
52.7605
38.1839
172.625
32.8584
301.578
233.472
258.494
294.787
277.931
170.688
150.798
206.978
201.908
158.848
191.516
154.621
47.8613
60.7215
52.8959
41.615
118.802
31.192
315.217
342.132
338.535
249.08
273.649
269.937
142.027
132.168
23.4042
29.7636
33.9188
355.91
355.417
288.733
292.194
310.055
158.045
209.153
39.4404
35.8804
63.8821
350.162
316.008
342.591
336.918
328.494
310.192
305.655
304.233
291.49
245.312
267.275
252.305
205.171
142.112
218.536
174.204
87.1283
315.752
287.223
297.735
294.514
280.105
273.939
275.008
278.003
282.512
266.615
264.306
267.276
241.538
33.3174
19.953
21.0563
22.3907
19.4339
19.5048
19.5629
19.5373
17.2604
16.1345
18.4754
18.2855
17.9891
16.0938
17.9705
109.902
36.3611
38.1739
62.8318
55.3927
22.7521
18.9795
24.1168
19.4765
19.0696
20.3382
17.5661
17.4255
16.9042
18.6772
17.0734
16.5119
17.6067
136.925
172.64
166.461
51.562
92.3368
80.9966
16.7147
17.5047
18.8222
19.9357
20.0193
192.717
223.756
102.764
102.767
142.683
19.5872
22.2992
22.4672
22.1907
21.2293
242.697
160.805
222.189
239.884
223.578
161.945
140.044
166.233
151.586
34.1201
50.9449
46.1945
24.1671
22.2024
24.4909
24.1609
21.6645
225.773
153.349
203.742
213.489
138.512
108.727
115.884
128.21
206.428
45.9607
33.8633
79.6258
29.5032
19.6759
18.1758
19.3026
20.6295
19.6435
17.6987
19.2001
17.9886
18.0185
17.799
16.4224
16.4658
16.8442
17.614
16.8592
20.406
18.7697
18.8302
20.0486
18.4497
18.9328
18.0711
19.4692
18.3954
17.1426
17.2531
17.1478
16.8407
16.7057
16.2089
16.5044
17.7609
17.4393
24.002
44.1986
31.656
20.0286
24.9125
20.6642
19.7821
20.0238
18.3053
18.532
18.9677
52.7947
81.803
33.8664
31.1173
47.018
22.1423
22.4686
19.447
19.8391
21.9604
99.6238
60.7839
79.6151
105.751
89.2634
61.605
43.7067
64.4492
50.2781
24.1323
25.9001
25.1142
24.1075
22.2126
26.2682
23.7864
22.266
92.7572
53.0985
43.2739
46.7978
39.1485
24.6606
26.2185
24.6298
25.7952
21.8288
24.9981
21.1103
25.3547
16.8976
15.9296
15.9298
17.1604
16.3062
15.0517
15.4478
15.1684
15.6741
16.2428
15.2917
15.3862
15.8925
16.2878
15.874
17.5919
16.4758
16.9339
18.2383
17.562
15.7123
16.2119
16.8434
16.7497
16.096
15.7384
15.5759
15.834
15.6809
15.5692
15.1954
16.007
14.9083
18.5074
19.5966
18.2953
17.2467
17.6753
17.2203
16.1002
16.5671
14.2703
14.4445
14.4028
21.9478
30.0987
19.0986
18.423
22.4181
15.8191
18.4946
14.3197
14.1901
14.2351
38.4878
27.3779
27.5715
40.7966
31.8733
27.3925
19.3069
27.8987
21.5653
18.0859
22.7777
18.2276
14.5129
14.0708
15.2045
14.2231
15.0535
33.3093
23.086
21.7789
22.1096
18.6419
18.2061
18.3935
22.6693
21.255
20.0012
17.9233
19.427
15.5706
14.9513
14.5072
14.7968
14.5081
14.7101
14.794
14.3787
14.7211
15.1719
15.5824
15.0647
15.034
15.3203
15.5456
15.3224
15.1415
14.2132
15.2082
14.9744
15.437
14.2328
14.132
14.0118
14.0517
15.4228
15.4036
15.205
15.2713
15.2402
15.2178
15.1664
14.96
14.9627
15.5634
16.5271
16.274
14.2002
15.1353
14.6028
14.5951
14.7097
14.6558
14.579
14.5618
16.6492
18.4122
15.4419
15.4706
16.3013
14.7114
14.2092
14.6465
14.4996
14.5559
20.8723
17.1428
17.1711
21.0637
18.9045
16.2315
14.3692
16.505
14.9401
14.4018
14.0575
14.3532
14.2686
14.4041
14.2728
14.3878
14.4598
17.9952
14.8272
15.0739
14.8251
14.408
14.4304
14.4401
13.8779
14.7155
14.2728
14.3667
14.3441
14.3164
14.5328
14.6083
14.7804
14.5501
14.7853
14.7712
14.6443
14.7797
14.939
15.1507
14.8868
14.8647
15.0353
15.1698
15.0389
14.1266
14.1687
14.0399
14.104
13.9028
14.2575
14.2269
14.2307
14.2499
15.0872
15.0314
15.0609
14.9571
14.9582
14.8518
14.9236
14.7632
14.5916
14.0641
14.4941
14.0798
14.0636
14.3502
14.1216
14.5395
14.4878
14.5586
14.5084
14.4018
14.476
14.491
14.4754
14.4723
14.4954
14.4813
14.485
14.4936
14.5129
14.4529
14.9124
14.1774
14.2264
14.4086
14.593
14.5872
14.4573
14.5005
14.3965
14.456
14.502
14.4908
14.4844
14.4931
14.5028
14.4917
14.504
14.4973
15.4016
14.3451
14.2354
14.5261
14.2521
14.2742
14.2813
14.2818
14.3464
14.3853
14.3241
14.3692
14.3665
14.3459
14.3304
14.3505
14.3298
14.3357
14.3181
14.4039
14.4276
14.3144
14.3144
14.3442
14.3067
14.4289
14.2906
14.2657
14.2783
14.2859
14.6393
14.64
14.7404
14.6587
14.7349
14.6937
14.6454
14.6896
14.7959
14.9339
14.746
14.7292
14.8477
14.9116
14.8089
14.2618
14.3462
14.3719
14.3115
14.3682
14.4225
14.4607
14.3746
14.3785
14.851
14.71
14.8267
14.7185
14.7708
14.6105
14.7549
14.6217
14.4639
14.7451
14.6652
14.4745
14.4781
14.476
14.4846
14.2088
14.2888
14.1861
14.3432
14.2991
14.2766
14.4147
14.4709
14.5135
14.4926
14.4745
14.465
14.5222
14.4783
14.4832
14.4986
14.4681
14.4902
14.4827
14.5037
14.2927
14.3793
14.3594
14.3381
14.3902
14.4806
14.5134
14.4963
14.5186
14.4606
14.5543
14.4637
14.496
14.4943
14.495
14.4938
14.4975
14.4993
14.4954
14.3492
14.368
14.3092
14.3415
14.3401
14.3487
14.3337
14.3504
14.3583
14.3544
14.3143
14.3466
14.373
14.3859
14.3341
14.3838
14.4803
14.4914
14.4802
14.4946
14.491
14.4945
14.3446
14.3605
14.3237
14.3253
14.3448
14.3221
14.3221
14.2466
14.2897
14.2252
14.1857
14.2381
14.3106
14.6279
14.6185
14.6495
14.633
14.6506
14.6175
14.6245
14.623
14.6712
14.7856
14.639
14.6295
14.7402
14.7425
14.698
14.4187
14.4782
14.4997
14.4412
14.4078
14.556
14.5208
14.5034
14.4495
14.7152
14.5554
14.7016
14.5994
14.6648
14.5273
14.656
14.8166
14.7565
14.7526
14.769
14.4597
14.4628
14.4911
14.4995
14.4009
14.369
14.3532
14.4341
14.4099
14.4122
14.4
14.4517
14.5245
14.2754
14.3731
14.4322
14.4966
14.4508
14.4627
14.5028
14.4152
14.5041
14.4674
14.5057
14.3823
14.4239
14.4242
14.4228
14.4485
14.47
14.5764
14.4814
14.4885
14.4703
14.5392
14.4873
14.4953
14.497
14.4998
14.4974
14.5048
14.5035
14.5084
14.4028
14.4244
14.3619
14.3878
14.3827
14.4057
14.3911
14.4102
14.4127
14.4198
14.3943
14.4432
14.4341
14.4562
14.4445
14.4758
14.4839
14.5132
14.4899
14.4988
14.5012
14.5036
14.3831
14.4113
14.3603
14.3632
14.3927
14.3875
14.3963
14.2688
14.3216
14.3532
14.3203
14.3851
14.4261
14.6137
14.5987
14.5975
14.6127
14.6041
14.5824
14.5972
14.5895
14.5988
14.7004
14.5823
14.5755
14.6647
14.6572
14.6217
14.5195
14.5221
14.5263
14.5395
14.4687
14.5188
14.5144
14.5169
14.4719
14.6165
14.5046
14.6071
14.5178
14.5735
14.4836
14.5635
14.6318
14.352
14.4974
14.4556
14.4537
14.5566
14.4852
14.477
14.586
14.4241
14.4491
14.3546
14.5506
14.4254
14.4437
14.4983
14.4748
14.517
14.4985
14.512
14.5086
14.5275
14.4559
14.4719
14.5184
14.4842
14.4903
14.4689
14.5273
14.5037
14.5261
14.4861
14.5282
14.5095
14.5108
14.5052
14.5095
14.5232
14.5154
14.5108
14.5121
14.4568
14.4837
14.4317
14.4563
14.4534
14.4785
14.4701
14.4891
14.494
14.4907
14.488
14.5039
14.5031
14.5184
14.5204
14.5295
14.5286
14.4583
14.4942
14.4327
14.4461
14.4814
14.4745
14.4915
14.3925
14.4564
14.4687
14.4439
14.5094
14.514
14.5654
14.521
14.5664
14.58
14.5747
14.5471
14.5578
14.5561
14.5604
14.6359
14.5477
14.549
14.6132
14.5966
14.5791
14.4886
14.4528
14.4792
14.4523
14.458
14.3969
14.446
14.3848
14.4265
14.5414
14.4646
14.5354
14.4882
14.5294
14.4564
14.5339
14.3223
14.4409
14.5499
14.4989
14.4858
14.5243
14.5031
14.489
14.4311
14.526
14.3716
14.42
14.3606
14.5121
14.5127
14.5306
14.5325
14.5271
14.5279
14.5405
14.509
14.4609
14.5428
14.5144
14.5333
14.5086
14.5196
14.5261
14.5297
14.5301
14.5406
14.5494
14.5368
14.5405
14.5506
14.5332
14.539
14.5538
14.5584
14.5372
14.5416
14.5624
14.5196
14.5381
14.5684
14.5509
14.5677
14.4896
14.5554
14.5554
14.5252
14.5874
14.5547
14.4994
14.4862
14.5276
14.533
14.5391
14.5127
14.4983
14.5268
14.538
14.5962
14.5233
14.5263
14.5822
14.5679
14.5601
14.4378
14.4285
14.4328
14.3523
14.4069
14.3991
14.4429
14.3597
14.3972
14.5324
14.4527
14.5493
14.4829
14.5389
14.4486
14.5641
14.5112
14.5188
14.4995
14.5051
14.4914
14.4811
14.5048
14.4966
14.4359
14.4479
14.3959
14.4297
14.4392
14.5352
14.5344
14.5268
14.5311
14.5371
14.5111
14.5384
14.4832
14.4983
14.5326
14.5443
14.5511
14.539
14.553
14.5638
14.5422
14.5438
14.5618
14.5726
14.5421
14.5627
14.5621
14.5465
14.5451
14.5657
14.5636
14.5364
14.5805
14.5907
14.5753
14.5922
14.6108
14.5929
14.6075
14.5447
14.608
14.5984
14.5546
14.6171
14.5696
14.4627
14.4591
14.5062
14.4839
14.5198
14.5073
14.4904
14.5171
14.5188
14.5711
14.5197
14.5212
14.5713
14.5553
14.5612
14.4264
14.4244
14.4423
14.3786
14.3784
14.4401
14.4414
14.3907
14.3572
14.5487
14.4497
14.5723
14.5017
14.5644
14.4534
14.5767
14.4967
14.486
14.4693
14.505
14.5006
14.4608
14.5084
14.5061
14.3985
14.4082
14.3863
14.3863
14.3989
14.5274
14.5389
14.532
14.5265
14.5416
14.4777
14.5242
14.4379
14.4618
14.5216
14.5568
14.5638
14.5482
14.5698
14.5748
14.5524
14.559
14.5817
14.5822
14.5501
14.5683
14.5658
14.5578
14.5558
14.573
14.5688
14.5381
14.5978
14.6061
14.6084
14.6194
14.624
14.6225
14.6268
14.5574
14.6218
14.6144
14.5591
14.6226
14.5752
14.4686
14.491
14.5142
14.4986
14.5215
14.5287
14.5124
14.5356
14.5325
14.5832
14.5501
14.5516
14.6038
14.5786
14.6035
14.4312
14.4528
14.451
14.4043
14.3488
14.4565
14.4747
14.4268
14.3758
14.5892
14.4812
14.5914
14.5561
14.6246
14.5159
14.619
14.5079
14.5434
14.4581
14.5144
14.5127
14.4639
14.5243
14.522
14.4179
14.4182
14.4657
14.4649
14.4598
14.5299
14.5484
14.5416
14.5399
14.5606
14.4592
14.5273
14.4633
14.4751
14.5402
14.5741
14.5883
14.5708
14.5973
14.594
14.5799
14.5867
14.6143
14.613
14.5651
14.58
14.5757
14.5809
14.5765
14.5878
14.5839
14.5598
14.6183
14.6319
14.6306
14.6314
14.6319
14.6316
14.6318
14.5644
14.6235
14.6223
14.5778
14.6273
14.5805
14.5148
14.5463
14.5503
14.5316
14.5566
14.5749
14.5578
14.5822
14.5791
14.6366
14.61
14.6074
14.6707
14.6397
14.6745
14.4901
14.538
14.5097
14.4657
14.4388
14.5304
14.5471
14.5175
14.5106
14.6597
14.5666
14.6471
14.6215
14.6913
14.6043
14.6724
14.58
14.615
14.4852
14.5433
14.5356
14.5201
14.5705
14.5593
14.5137
14.5165
14.543
14.5494
14.5622
14.5562
14.5807
14.5853
14.5826
14.6056
14.5137
14.559
14.5265
14.5451
14.5767
14.6064
14.6291
14.6037
14.6352
14.633
14.6272
14.6255
14.6572
14.6564
14.5915
14.6009
14.5993
14.6201
14.6071
14.6166
14.614
14.5969
14.6453
14.662
14.6341
14.6382
14.6546
14.6445
14.6507
14.5956
14.6384
14.6442
14.6182
14.6488
14.6108
14.5872
14.6327
14.6039
14.5916
14.613
14.6418
14.6338
14.646
14.6326
14.6952
14.6752
14.6594
14.7154
14.6984
14.7256
14.5886
14.6373
14.5872
14.5727
14.5688
14.6263
14.6264
14.6268
14.6109
14.7176
14.6236
14.697
14.6771
14.7443
14.6302
14.7213
14.6484
14.6807
14.5623
14.6032
14.5901
14.6082
14.64
14.6254
14.5738
14.5998
14.6044
14.5982
14.6422
14.6135
14.6364
14.6551
14.6469
14.6738
14.5823
14.6029
14.5905
14.6189
14.6254
14.6599
14.6939
14.6497
14.6823
14.6801
14.6925
14.68
14.7085
14.7051
14.6256
14.636
14.6341
14.6639
14.6435
14.6549
14.6514
14.6415
14.6825
14.705
14.6616
14.672
14.6922
14.6808
14.6939
14.6399
14.6591
14.6709
14.6609
14.6703
14.6551
14.6778
14.7375
14.6846
14.6812
14.6856
14.7357
14.727
14.7301
14.6837
14.7307
14.7283
14.7117
14.7402
14.7513
14.7722
14.6849
14.7307
14.6778
14.6819
14.649
14.7368
14.737
14.7299
14.7012
14.7746
14.6364
14.7394
14.731
14.7977
14.6803
14.7542
14.7077
14.7344
14.6571
14.6827
14.6662
14.7043
14.7282
14.7091
14.6263
14.6839
14.6927
14.6556
14.7308
14.6847
14.713
14.7399
14.724
14.7524
14.6512
14.6505
14.638
14.6806
14.672
14.73
14.7671
14.7098
14.7363
14.7295
14.7603
14.7406
14.763
14.754
14.6612
14.6717
14.67
14.6994
14.6779
14.6897
14.6868
14.6842
14.7294
14.7536
14.7041
14.72
14.7392
14.7276
14.7449
14.6785
14.6858
14.7007
14.6921
14.7019
14.6916
14.8003
14.8584
14.8093
14.7973
14.7886
14.9041
14.8707
14.876
14.7524
14.7622
14.8359
14.8116
14.8112
14.8055
14.8519
14.7739
14.8194
14.7939
14.767
14.7544
14.8285
14.8465
14.8017
14.8007
14.8216
14.7724
14.7813
14.8032
14.8549
14.883
14.8075
14.7751
14.8258
14.7475
14.7742
14.7522
14.7886
14.8199
14.7921
14.6892
14.7907
14.8009
14.7324
14.8548
14.7611
14.7906
14.8217
14.7944
14.8259
14.7085
14.6963
14.679
14.7417
14.7246
14.8043
14.8384
14.7706
14.7899
14.7779
14.8197
14.798
14.8134
14.8006
14.6925
14.7045
14.7026
14.7369
14.7078
14.7183
14.7163
14.7276
14.7783
14.8005
14.7525
14.7691
14.7863
14.7726
14.7894
14.7115
14.7196
14.7365
14.7303
14.7383
14.7281
14.9147
14.9714
14.9631
14.9196
14.9481
15.0029
14.9734
14.9897
14.8961
14.885
14.9933
14.9765
14.9533
14.9007
14.9414
14.8626
14.8998
14.8916
14.843
14.8632
14.9132
14.9399
14.8874
14.915
14.8871
14.9438
14.8406
14.8886
14.9198
14.9425
14.9132
14.8813
14.9371
14.8292
14.8645
14.8288
14.8676
14.904
14.8594
14.7706
14.8949
14.8742
14.8008
14.9201
14.823
14.8559
14.8802
14.8434
14.8782
14.7783
14.7524
14.7289
14.8114
14.772
14.8666
14.8871
14.82
14.835
14.8205
14.8578
14.8312
14.8511
14.834
14.7223
14.7381
14.7328
14.7756
14.7353
14.7635
14.7535
14.7665
14.8198
14.8329
14.7898
14.8056
14.8186
14.8033
14.8174
14.7503
14.7572
14.7749
14.7715
14.7745
14.7717
15.0237
15.0664
15.077
15.0595
15.0589
15.1372
15.1175
15.1199
15.0326
14.9895
15.099
15.0609
15.0166
14.9717
14.9955
14.9289
14.9499
14.9899
14.9223
14.9384
14.9942
15.0212
14.9416
14.9414
14.9525
14.9316
14.9884
14.9387
14.973
14.9184
15.0275
14.9775
14.9885
14.8955
14.9307
14.8807
14.9097
14.9426
14.8902
14.8191
14.92
14.8941
14.8268
14.9038
14.8529
14.892
14.8957
14.8523
14.8973
14.8365
14.7886
14.7654
14.8488
14.7985
14.9008
14.9068
14.8365
14.8621
14.8451
14.8665
14.8339
14.8681
14.8543
14.7444
14.7973
14.7782
14.8164
14.7513
14.8312
14.8036
14.7933
14.8422
14.8482
14.814
14.826
14.8344
14.8235
14.8328
14.7925
14.7924
14.8072
14.8104
14.8076
14.8195
15.069
15.0501
15.1514
15.1409
15.1459
15.1114
15.1132
15.1146
15.0598
15.0513
15.0169
15.0288
15.0523
15.0075
14.9914
14.9612
14.9648
15.0251
14.9483
14.9359
15.0017
15.0141
14.9454
14.927
14.972
14.8988
15.009
14.9278
14.959
14.8741
14.9577
14.9819
14.9679
14.9111
14.9419
14.8901
14.9069
14.9358
14.8824
14.8222
14.8845
14.8549
14.805
14.8615
14.8447
14.8972
14.8795
14.832
14.893
14.8503
14.7925
14.7636
14.8406
14.78
14.9067
14.902
14.8273
14.8716
14.8614
14.8574
14.8196
14.8722
14.8663
14.7496
14.8586
14.8237
14.8388
14.7479
14.8687
14.8291
14.8028
14.8534
14.8579
14.8324
14.8391
14.8474
14.8426
14.8462
14.8254
14.8218
14.834
14.8385
14.8345
14.8547
15.0289
15.0119
15.0566