/*--------------------------------*- C++ -*----------------------------------*\
| =========                 |                                                 |
| \\      /  F ield         | OpenFOAM: The Open Source CFD Toolbox           |
|  \\    /   O peration     | Version:  5.x                                   |
|   \\  /    A nd           | Web:      www.OpenFOAM.org                      |
|    \\/     M anipulation  |                                                 |
\*---------------------------------------------------------------------------*/
FoamFile
{
    version     2.0;
    format      ascii;
    class       surfaceScalarField;
    location    "0.2";
    object      phi;
}
// * * * * * * * * * * * * * * * * * * * * * * * * * * * * * * * * * * * * * //

dimensions      [0 3 -1 0 0 0 0];

internalField   nonuniform List<scalar> 
29271
(
-4.17934e-06
3.96365e-08
1.28059e-06
2.8675e-06
-7.78972e-06
2.86017e-07
3.69077e-07
7.23408e-06
-1.62575e-05
-4.2623e-07
-1.03282e-07
5.54947e-07
4.93177e-07
1.57389e-05
-1.64198e-05
-5.65929e-07
-1.0602e-07
-4.79836e-07
1.19956e-06
1.6372e-05
-1.75493e-05
-4.2534e-07
-2.37061e-07
2.1477e-07
1.7878e-05
1.18937e-07
-1.66744e-05
-1.84008e-07
-3.25004e-07
3.89634e-07
8.17459e-07
1.59763e-05
-1.60957e-05
-1.13429e-06
-1.09432e-06
1.15896e-06
1.25485e-06
1.59105e-05
-1.80574e-05
-1.21047e-06
4.92924e-07
-2.08916e-06
7.04184e-07
2.016e-05
-1.75667e-05
1.37535e-06
2.05845e-06
1.09352e-06
-1.30559e-06
1.4345e-05
-1.50117e-05
1.63643e-07
-3.34276e-07
1.3833e-05
1.58273e-06
-4.325e-06
4.37945e-09
1.41452e-06
2.91406e-06
-1.67161e-05
-6.6643e-07
1.80538e-09
6.71343e-07
-6.04756e-07
1.73142e-05
-1.80154e-05
5.12529e-07
-1.47668e-06
1.68755e-06
-1.45172e-06
1.87438e-05
-1.963e-05
3.31611e-07
2.12798e-06
-3.9449e-06
-1.74121e-06
2.28565e-05
-1.7493e-05
2.55474e-07
3.16037e-06
1.45571e-06
8.33359e-07
1.17881e-05
-1.90591e-05
1.02245e-06
-1.75665e-06
-1.04308e-06
2.07171e-05
1.19267e-07
-1.72519e-05
-3.71887e-07
5.70144e-07
-5.66131e-07
1.72662e-05
3.53496e-07
-1.69548e-05
-3.4368e-08
1.30943e-06
8.64628e-07
-5.28314e-07
1.53434e-05
-1.60499e-05
1.63466e-06
4.23105e-07
-8.23393e-07
-3.48349e-07
1.51639e-05
-1.64314e-05
-3.55846e-07
-2.86646e-07
1.77411e-05
-1.28276e-06
6.15601e-07
-6.19277e-06
1.68302e-07
1.75944e-06
4.50865e-06
-1.37362e-05
-9.23132e-08
4.91126e-07
1.25932e-05
7.95744e-07
-1.91536e-05
-1.38573e-07
-9.87561e-07
-1.41779e-06
2.09386e-05
7.58952e-07
-5.84262e-06
5.17439e-07
4.48131e-07
4.91798e-06
-1.7407e-06
9.8292e-07
-3.28453e-06
4.04226e-06
-4.53304e-06
2.28879e-07
1.59962e-07
4.1443e-06
4.41039e-07
4.17972e-07
-1.52463e-05
-1.00391e-06
-4.72426e-06
2.01155e-05
3.52576e-06
-1.7656e-05
2.33082e-06
-3.08835e-06
-7.60902e-06
2.24968e-05
-1.90407e-05
4.32607e-06
-5.26648e-06
-7.57217e-06
2.28476e-05
4.70571e-06
2.68006e-07
5.01977e-07
-1.50198e-05
-4.02508e-06
-1.14915e-06
1.94241e-05
-2.52085e-05
-2.54802e-05
6.71953e-05
-2.15228e-05
-2.53351e-05
-2.7035e-05
-2.96453e-05
7.93538e-06
8.8517e-06
1.17455e-05
1.25843e-05
9.48787e-06
9.14863e-06
1.3746e-05
1.35323e-05
-1.76917e-05
-4.09434e-05
5.01508e-05
-2.49011e-05
-1.66546e-05
-2.55379e-05
-9.08863e-06
1.22147e-05
1.19319e-05
1.76227e-05
1.76887e-05
-8.00446e-06
-5.3662e-05
8.28802e-05
1.13515e-05
1.24539e-05
1.43172e-05
1.49216e-05
-1.01846e-05
-3.5183e-06
-3.93383e-06
-1.3051e-05
-2.7367e-05
-8.33705e-06
-2.55577e-05
-1.0122e-05
9.60699e-06
-1.51109e-05
7.63578e-06
-1.28632e-06
9.48513e-07
-3.07823e-06
3.41585e-06
3.18623e-06
-1.9959e-05
1.48721e-06
-6.43489e-06
-2.5793e-06
2.42998e-05
-3.69251e-05
-3.62707e-06
4.0394e-05
-2.05009e-05
-2.79288e-05
-1.62475e-05
-2.08241e-05
1.2701e-05
1.19791e-05
1.79497e-05
1.75494e-05
-1.12846e-05
6.4673e-07
-1.23246e-05
-2.17224e-05
-8.25495e-06
-1.67324e-05
-8.19635e-06
-2.63479e-06
-3.11699e-06
3.78057e-06
-3.83419e-06
-1.80405e-07
-6.45668e-07
-2.56324e-06
-3.16843e-07
-6.00831e-07
-6.23258e-06
-1.602e-05
-9.13483e-06
-2.34468e-05
-1.16473e-05
9.09724e-06
2.7549e-06
-5.66514e-07
-2.27315e-06
-1.84046e-05
4.80146e-06
-7.81832e-06
-6.61703e-06
2.32631e-05
4.77537e-06
-2.7756e-05
1.96874e-06
2.19266e-05
1.24439e-05
1.15342e-05
1.68531e-05
1.42174e-05
1.99991e-06
4.89879e-06
4.45228e-06
-1.23795e-05
-1.74109e-05
-1.57837e-05
-2.05919e-05
-1.76682e-06
9.1469e-06
-1.37493e-05
-1.04009e-06
6.11454e-07
9.33996e-07
8.46267e-06
1.16953e-05
1.20517e-05
-1.03076e-05
-1.30988e-05
-1.65913e-05
-1.34574e-05
-1.613e-05
-1.50758e-06
5.26238e-06
7.49138e-06
-1.22592e-06
-3.4064e-06
5.51754e-06
-8.83107e-07
-1.05661e-05
7.05323e-06
-4.85873e-06
1.03283e-05
-2.55407e-05
5.63647e-06
-1.1182e-05
9.61136e-06
3.06218e-05
-3.98787e-06
-8.88671e-06
6.76151e-06
6.09016e-06
-7.75268e-06
1.49436e-06
-3.96766e-06
1.02259e-05
-7.55394e-06
-5.11751e-07
-1.21722e-06
9.28237e-06
7.38409e-07
2.29701e-06
-2.44353e-05
-2.47504e-06
-2.91483e-06
2.67897e-05
5.61894e-06
-2.7313e-05
2.93958e-06
-3.20521e-06
-8.60596e-06
3.05657e-05
-2.84063e-05
4.9573e-06
-5.92108e-06
-7.57529e-06
3.27311e-05
4.21424e-06
2.04915e-06
1.79889e-06
-2.4923e-05
-5.30477e-06
-2.50388e-06
2.88836e-05
-1.41781e-05
-7.71885e-06
4.29758e-05
4.98405e-06
6.14757e-06
3.67423e-06
4.91198e-06
7.61294e-06
7.13705e-06
5.56181e-06
6.08677e-06
-1.25144e-05
-1.19343e-05
2.00728e-05
1.07716e-05
9.55146e-06
1.01422e-05
9.88331e-06
-1.97636e-07
-2.18453e-05
3.94292e-05
1.23353e-05
1.17104e-05
1.47096e-05
1.25897e-05
-1.83857e-07
1.98904e-06
-1.70782e-07
-4.9598e-06
5.66887e-06
-3.42559e-06
2.52614e-06
-7.38142e-06
9.9532e-07
-3.93302e-06
1.03191e-05
5.54253e-06
-2.91337e-05
2.45189e-06
-7.88976e-06
-2.31864e-06
3.13477e-05
-1.2206e-05
-2.14772e-06
1.00997e-05
1.031e-05
9.76784e-06
8.60307e-06
8.24835e-06
-2.49812e-06
1.00434e-06
-3.49712e-05
9.2601e-07
1.00816e-06
-3.0698e-05
5.45068e-07
8.75995e-07
5.3638e-07
3.03923e-06
1.33152e-07
3.07115e-06
6.72143e-06
4.07119e-07
2.58398e-06
-8.47421e-07
-7.93909e-06
-2.81788e-05
5.71225e-06
-8.60291e-06
-3.77223e-06
3.16573e-05
3.18433e-06
-5.39011e-06
1.34551e-07
-1.78848e-06
9.21459e-06
6.80191e-06
7.25124e-06
4.43272e-06
-5.29041e-07
1.82844e-07
-5.31309e-07
-1.269e-06
5.65361e-06
-3.54678e-05
-1.55045e-06
-3.72275e-07
-1.43777e-06
5.90636e-06
5.02464e-06
5.37755e-06
8.11884e-07
-4.15017e-08
4.51216e-06
-5.54339e-06
2.55623e-07
3.17142e-07
4.06156e-07
-9.94344e-07
-1.30556e-05
4.94915e-06
-5.11445e-06
1.33505e-05
-3.4824e-05
6.1241e-06
-9.65364e-06
9.31226e-06
3.46948e-05
-1.00265e-05
-8.77154e-06
6.75567e-06
1.20376e-05
-1.19173e-05
1.29483e-06
-2.65831e-06
1.32808e-05
-1.03329e-05
4.33672e-07
-6.42691e-07
1.05427e-05
-8.19189e-07
5.86555e-07
-2.89036e-05
-1.5821e-06
1.10093e-06
2.96174e-05
2.35928e-06
-3.39593e-05
3.18751e-06
-3.48123e-06
-4.02688e-06
3.59206e-05
-3.66897e-05
3.88378e-06
-3.90298e-06
-6.0509e-06
3.84589e-05
4.30093e-06
9.5247e-07
-1.16831e-07
-3.19616e-05
-4.52218e-07
-1.1325e-06
3.27107e-05
1.39743e-06
1.1203e-06
4.86286e-05
-1.85206e-06
1.56506e-07
-3.77072e-06
-1.34855e-06
2.29725e-07
9.3927e-07
-1.83492e-06
-6.89746e-07
-2.99077e-06
-2.32716e-06
1.18697e-05
4.10204e-06
4.01758e-06
3.44323e-06
3.35568e-06
-3.23852e-07
-2.22215e-06
1.62453e-05
7.34321e-06
6.08408e-06
5.94761e-06
4.01273e-06
-2.80444e-07
2.85838e-07
-6.53901e-07
-2.14069e-06
7.57797e-07
-9.25979e-07
1.98422e-06
-1.1844e-05
9.56438e-07
-1.70809e-06
1.25957e-05
1.37686e-06
-3.35588e-05
1.92782e-06
-3.13015e-06
-2.10312e-06
3.54874e-05
-9.14994e-07
-6.08364e-06
7.19583e-06
3.27926e-06
3.08851e-06
2.37453e-06
2.28049e-06
1.43688e-06
4.25484e-07
-4.00758e-05
-8.50289e-08
1.06742e-07
-2.98504e-05
-1.10188e-07
-3.09733e-07
-2.29881e-07
-3.97501e-07
-1.79381e-07
-4.27852e-07
8.54082e-06
2.69482e-07
7.11967e-07
-6.34334e-07
-8.97296e-06
-3.45751e-05
3.03954e-06
-3.32902e-06
-2.01834e-06
3.42786e-05
2.60433e-06
6.97103e-07
-2.78687e-06
-3.51043e-07
2.67068e-06
7.87527e-07
1.93967e-06
-5.90606e-08
-3.40318e-06
-3.37092e-06
-3.99603e-06
1.91875e-07
2.90253e-06
-3.97306e-05
-2.49799e-06
-6.78528e-08
-3.17642e-06
3.42392e-06
2.07606e-06
2.53324e-06
7.74052e-06
-4.33838e-07
1.01446e-06
-8.02253e-06
1.43527e-06
5.66816e-07
1.94955e-07
-2.23581e-06
-1.45164e-05
2.61325e-06
-5.25354e-06
1.43709e-05
-3.3984e-05
6.81929e-06
-9.61356e-06
7.5904e-06
3.20904e-05
-1.25374e-05
-5.73554e-06
6.99815e-06
1.12747e-05
-1.3979e-05
1.06508e-06
-1.25496e-06
1.41693e-05
-9.87366e-06
8.18875e-07
3.76585e-08
9.01987e-06
-2.04167e-06
-7.2081e-07
-2.99412e-05
-6.679e-07
4.41735e-06
2.89542e-05
-1.21213e-07
-3.80203e-05
2.03562e-06
-2.99752e-06
-3.42792e-07
3.94462e-05
-3.86992e-05
1.33973e-06
-1.03752e-06
-2.01432e-06
3.70569e-05
3.35443e-06
-4.08224e-07
-9.96185e-07
-3.22734e-05
2.83891e-06
9.6597e-08
3.07423e-05
1.68353e-05
4.88373e-06
7.60283e-05
-6.98248e-06
-5.15786e-06
-8.23288e-06
-5.9496e-06
-5.30241e-06
-5.1491e-06
-7.0943e-06
-5.25016e-06
1.06704e-06
4.16753e-07
2.67935e-05
1.19018e-07
2.20193e-07
-4.72751e-08
1.3578e-07
-2.31628e-06
-2.67233e-06
2.1061e-05
2.36495e-06
1.56226e-06
1.71251e-06
5.30384e-07
-1.27348e-06
-2.31036e-06
-1.34627e-06
-3.13237e-06
-1.89703e-06
-6.90851e-07
3.41932e-06
-1.36131e-05
5.54321e-07
-1.19082e-06
1.42496e-05
-3.63842e-07
-3.69723e-05
1.05374e-06
2.32873e-07
-1.59372e-06
3.76433e-05
2.15688e-06
-1.5654e-05
2.67198e-05
-5.31657e-07
-3.33847e-07
-4.31876e-07
1.5422e-07
1.3205e-06
5.84631e-07
-3.94073e-05
-3.45743e-07
2.34451e-07
-2.97597e-05
-1.53314e-07
-4.0117e-07
-4.50937e-07
-1.22284e-07
-3.64129e-08
-1.67176e-07
8.50668e-06
3.52598e-07
-1.46512e-06
-1.86975e-08
-7.7212e-06
-3.35065e-05
3.85855e-07
1.27905e-07
-6.50598e-07
3.16959e-05
1.94738e-06
3.0853e-06
-5.41372e-06
1.29521e-05
-8.37567e-07
-2.4875e-06
-1.11838e-06
-3.1885e-06
-6.0764e-06
-6.69212e-06
-6.2282e-06
4.14637e-07
1.14303e-06
-3.79315e-05
-2.79428e-06
1.51881e-07
-1.52537e-06
1.79493e-06
9.98958e-07
1.68714e-06
8.26314e-06
7.64978e-08
-2.61161e-07
-7.42939e-06
3.07687e-06
3.38448e-07
2.78773e-07
-3.74188e-06
-1.42676e-05
1.1072e-06
-5.6316e-06
1.33809e-05
-3.0449e-05
7.19543e-06
-1.04401e-05
5.40068e-06
2.9436e-05
-8.80602e-06
-5.40473e-06
8.31356e-06
5.89903e-06
-1.42871e-05
6.483e-07
-6.47165e-07
1.42866e-05
-7.69941e-06
8.76558e-07
7.50092e-07
6.0755e-06
-2.69146e-06
-1.89266e-06
-2.72284e-05
5.11195e-07
5.71542e-06
2.55859e-05
-1.41943e-06
-4.05669e-05
9.46001e-07
-2.13236e-06
2.11645e-06
4.10563e-05
-3.47337e-05
-2.7784e-07
5.65291e-07
1.00782e-06
3.15275e-05
1.911e-06
-9.88381e-07
-1.33547e-06
-2.77093e-05
5.10074e-06
1.22486e-06
2.37076e-05
3.12747e-05
5.63142e-06
0.000108083
-9.23154e-06
-8.02545e-06
-9.12134e-06
-7.97077e-06
-8.78766e-06
-7.99618e-06
-9.82969e-06
-7.99853e-06
1.04368e-05
2.43851e-06
5.69501e-05
-3.3766e-06
-2.29726e-06
-3.4602e-06
-2.62312e-06
-2.8812e-07
-3.54327e-06
3.833e-05
1.54233e-07
-7.27477e-07
-1.22195e-07
-2.56629e-06
-7.53754e-07
1.73814e-06
-7.23546e-07
-3.91457e-06
-4.63412e-06
-8.47691e-08
1.60105e-06
6.74429e-06
2.65164e-08
3.22854e-09
-1.29495e-07
3.10752e-08
-1.43828e-05
2.62621e-07
-7.06787e-07
1.48271e-05
-9.93345e-07
-3.85301e-05
1.95942e-07
1.47642e-06
-1.12127e-06
3.89723e-05
5.29139e-06
-2.26304e-05
5.87509e-05
-2.39393e-06
-2.39006e-06
-2.4641e-06
-1.81258e-06
2.42718e-06
3.1218e-07
-3.44167e-05
-1.79913e-07
2.10705e-07
-3.0472e-05
-2.1482e-07
-2.39768e-08
-3.99567e-08
-2.47636e-07
5.23096e-09
8.66058e-08
7.66134e-06
2.79371e-07
-1.19221e-06
-9.37227e-07
-5.99119e-06
7.63142e-08
1.07153e-07
-1.2214e-08
-5.8332e-08
-1.1866e-07
-2.96722e-05
-1.37445e-07
1.3985e-06
-2.15253e-07
2.69441e-05
1.68223e-06
4.32109e-06
-7.64064e-06
2.85157e-05
-2.8995e-06
-3.56932e-06
-2.56381e-06
-3.32556e-06
-7.63202e-06
-7.28158e-06
-7.60269e-06
5.12888e-07
2.62178e-07
-3.5415e-05
-1.57707e-06
3.08761e-07
-1.11266e-06
1.4416e-06
4.80764e-07
1.80028e-06
7.00102e-06
1.80908e-07
-4.48584e-08
-6.41348e-06
4.69018e-06
1.75615e-08
-3.71233e-07
-4.42076e-06
-1.14597e-05
1.27561e-06
-6.84336e-06
9.39272e-06
-2.90068e-05
5.53858e-06
-9.02258e-06
4.17012e-06
2.85829e-05
-3.59853e-06
-5.72041e-06
6.21458e-06
3.10386e-06
-1.40576e-05
5.4387e-08
6.99383e-07
1.33043e-05
-4.71065e-06
4.18414e-07
5.41432e-07
3.7519e-06
-1.58881e-06
-1.74482e-06
-2.27859e-05
1.40021e-06
5.94867e-06
1.87707e-05
-2.88929e-06
-4.15635e-05
-6.68822e-07
-8.63047e-07
4.30334e-06
4.16813e-05
-2.78995e-05
-1.16691e-06
9.86413e-07
3.05613e-06
2.41897e-05
8.34218e-07
-1.46983e-06
-1.48224e-06
-1.86998e-05
5.07237e-06
1.34022e-06
1.52393e-05
3.96051e-05
8.21292e-06
0.000131376
-9.04306e-06
-9.83247e-06
-8.61955e-06
-8.4786e-06
-9.4759e-06
-8.55369e-06
-9.32239e-06
-7.78498e-06
1.96091e-05
7.24399e-06
9.28282e-05
-6.26384e-06
-5.31075e-06
-6.22015e-06
-5.33139e-06
3.19684e-06
1.64133e-06
6.28338e-05
-3.34112e-06
-4.24179e-06
-3.16682e-06
-4.70486e-06
6.55342e-07
3.22216e-06
1.84428e-06
-1.04121e-05
-3.48248e-06
8.81243e-06
8.25826e-07
7.4532e-06
-5.68933e-07
2.45135e-06
-5.12511e-06
1.25905e-06
-1.0675e-06
3.05114e-06
-1.50659e-05
-9.8519e-08
1.35271e-07
1.50297e-05
-1.61388e-06
-3.94322e-05
-6.04211e-07
2.83352e-06
-9.47324e-07
3.97641e-05
1.03835e-05
-2.28694e-05
9.491e-05
-4.54209e-06
-3.82957e-06
-3.64692e-06
-3.44169e-06
5.53069e-06
-1.17636e-07
-2.22023e-05
6.16207e-07
2.60544e-07
-2.66083e-05
5.90466e-07
1.24702e-06
5.56378e-07
3.08292e-08
7.32303e-10
6.17378e-09
6.29936e-06
1.06908e-06
4.41341e-07
7.61841e-08
-7.26976e-06
2.18206e-07
5.42764e-07
-1.24953e-06
4.44183e-07
2.78004e-07
-2.33621e-07
-2.40267e-05
-2.37857e-07
2.45906e-06
-2.35887e-07
2.05926e-05
1.44872e-06
4.8116e-06
-7.54528e-06
4.97597e-05
-4.34223e-06
-3.86635e-06
-3.98551e-06
-3.49542e-06
-8.94518e-06
-7.5035e-06
-9.24144e-06
7.76677e-07
-1.63202e-06
-3.04208e-05
-4.08342e-07
5.62311e-07
4.62648e-07
7.14355e-07
-1.824e-06
1.04812e-06
6.29429e-06
4.17703e-07
4.504e-07
-6.12518e-06
3.1444e-06
1.12073e-06
-6.68326e-07
5.27895e-07
-4.35737e-06
-8.25095e-07
-9.45666e-07
4.10325e-07
1.34119e-06
-8.01519e-06
2.55775e-06
-8.94218e-06
6.85957e-06
-2.87103e-05
2.04308e-06
-3.90324e-06
1.67661e-06
2.72619e-05
-4.61511e-06
-4.23781e-06
2.45214e-06
6.40082e-06
-1.16265e-05
-1.86164e-07
2.30713e-06
9.50784e-06
-2.29076e-06
3.85125e-07
1.25388e-06
6.5362e-07
-2.57194e-06
-1.41981e-06
-1.56468e-05
8.63904e-07
5.55674e-06
1.32179e-05
-4.30823e-06
-4.15078e-05
-6.5813e-07
3.92428e-07
5.78189e-06
4.02999e-05
-2.11669e-05
-3.65056e-06
2.34013e-06
4.83026e-06
1.86928e-05
-1.04574e-06
-1.40725e-06
-2.59075e-06
-1.3042e-05
5.61382e-06
1.3741e-06
1.00521e-05
3.90638e-05
7.6679e-06
0.000155136
-8.71524e-06
-9.02715e-06
-8.29751e-06
-8.30678e-06
-9.32265e-06
-8.57381e-06
-9.34714e-06
-8.90095e-06
2.63579e-05
1.68667e-05
0.000119377
-7.83348e-06
-8.57087e-06
-7.33457e-06
-6.97054e-06
3.43902e-06
1.30274e-05
8.90071e-05
-5.95873e-06
-6.52189e-06
-5.84838e-06
-6.4565e-06
2.5467e-06
3.14889e-06
2.80806e-06
-5.36217e-06
-3.99505e-06
4.90516e-06
5.44044e-06
2.45064e-06
-6.69736e-06
-3.95385e-06
-5.85861e-06
3.09441e-06
3.25199e-06
1.01634e-05
-1.50274e-05
6.41754e-08
8.26511e-08
1.48808e-05
-1.95366e-06
-3.95482e-05
-3.68075e-07
4.48031e-06
-4.69548e-07
3.78592e-05
1.90637e-05
-2.23782e-05
0.000126035
-5.38422e-06
-5.21551e-06
-4.85024e-06
-4.69257e-06
1.26952e-05
6.47795e-07
3.8512e-07
1.39936e-06
9.57755e-07
-1.11558e-05
1.33952e-06
1.64612e-06
7.8219e-07
4.45429e-07
1.32812e-06
2.37157e-06
6.34868e-06
-5.13825e-06
7.78393e-07
3.61206e-06
-4.20152e-06
6.64353e-07
-2.70731e-06
8.1135e-07
-2.21012e-06
4.24185e-06
-8.00129e-07
-1.78858e-05
-9.32932e-07
3.00931e-06
-1.61139e-08
1.53838e-05
4.41816e-07
6.59235e-06
-8.43307e-06
6.57798e-05
-5.7125e-06
-4.61486e-06
-5.16431e-06
-5.04099e-06
-6.04613e-06
-6.50373e-06
-3.47509e-06
1.36495e-06
-6.05793e-06
-1.56613e-05
1.71535e-06
2.30479e-06
1.77539e-06
-1.80039e-06
-4.66097e-06
-2.16053e-06
6.07992e-06
2.16757e-06
-4.42563e-07
-5.48223e-06
3.46417e-06
-2.39776e-06
2.17334e-07
-3.47402e-06
2.18938e-06
-3.93172e-06
-3.12578e-06
2.7211e-06
-1.08515e-07
4.44491e-06
-6.35505e-06
2.7269e-06
-7.84197e-06
3.03871e-06
-2.40283e-05
-3.56614e-06
8.8269e-06
-2.5473e-06
1.52569e-05
-8.49388e-06
1.37547e-06
-3.58893e-06
1.07077e-05
-6.47094e-06
3.92724e-07
2.54562e-06
3.53495e-06
2.36579e-07
3.98504e-07
6.76204e-07
-1.31116e-06
-2.20832e-06
-5.99222e-07
-1.00419e-05
-1.65044e-07
5.82197e-06
7.19251e-06
-5.67358e-06
-3.7742e-05
-6.27621e-07
1.67004e-06
9.19568e-06
3.31775e-05
-1.65344e-05
-5.4547e-06
3.6577e-06
7.94947e-06
1.3312e-05
-2.93011e-06
-3.77393e-07
-3.45314e-06
-7.09457e-06
5.72866e-06
-3.0766e-07
5.5041e-06
3.91171e-05
1.65265e-05
0.000169747
-7.87566e-06
-9.78021e-06
-7.5468e-06
-8.71697e-06
-8.71781e-06
-9.88309e-06
-8.51603e-06
-9.21827e-06
2.52037e-05
2.44791e-05
0.000139525
-8.65895e-06
-7.14486e-06
-8.22267e-06
-6.68777e-06
2.29821e-06
3.10445e-05
0.000108541
-9.2566e-06
-7.65557e-06
-9.56911e-06
-7.51821e-06
2.62536e-06
1.79066e-06
1.91013e-06
1.56688e-06
-3.5918e-06
3.16963e-06
4.19432e-06
-3.04082e-06
-1.29418e-05
-2.30602e-06
1.85699e-06
7.25393e-06
6.13692e-06
-1.43594e-05
-9.06686e-08
1.0788e-06
1.33713e-05
-3.39757e-06
-3.5907e-05
-1.79995e-07
6.32805e-06
1.53927e-07
3.30026e-05
2.48528e-05
-1.03211e-05
0.000155857
-7.10756e-06
-6.76354e-06
-7.11604e-06
-6.84005e-06
1.8469e-05
9.9409e-06
2.13072e-05
2.42585e-06
3.27948e-06
2.11466e-05
2.28957e-07
2.32644e-06
-7.8068e-06
4.72767e-06
5.97327e-06
6.05615e-06
2.52869e-06
-5.28509e-06
5.04925e-07
5.36775e-06
-6.90428e-07
-8.97248e-07
-7.7327e-06
3.78772e-06
-4.07612e-06
4.41076e-06
4.5076e-06
-1.32607e-05
-3.34999e-06
5.46578e-06
1.93272e-06
1.04827e-05
-1.27045e-06
2.06865e-05
-2.39886e-06
7.50233e-05
-8.89955e-06
-7.48262e-06
-9.6438e-06
-8.0361e-06
-1.48797e-06
-1.16583e-06
-1.1364e-06
3.09275e-06
-1.53182e-06
8.98584e-06
2.32613e-06
4.96157e-06
3.24817e-06
-3.35879e-06
-3.45198e-07
-2.4126e-06
2.88538e-06
1.19889e-06
-1.79222e-07
2.46718e-06
-7.87965e-06
-5.53829e-06
2.19257e-06
1.12267e-05
1.03755e-06
-1.99807e-06
1.62972e-06
-3.07146e-06
-5.50663e-06
-9.02542e-07
1.00045e-05
-5.74645e-06
6.19299e-07
-1.20565e-05
5.20069e-06
-6.03134e-06
1.28928e-05
-1.41203e-06
-1.81436e-07
9.08692e-07
6.84437e-07
2.44072e-06
1.35528e-07
-2.61297e-07
-2.32862e-06
-2.1931e-06
5.13927e-07
-5.25646e-06
-3.44875e-06
8.68233e-06
1.70206e-06
-6.06213e-06
-2.58174e-05
2.56331e-06
1.83897e-06
1.5017e-05
1.24603e-05
-9.08896e-06
-4.03444e-06
3.72446e-06
1.21542e-05
2.27439e-06
-5.02968e-06
1.50539e-06
-4.37314e-06
-4.03867e-06
1.07903e-05
-4.46143e-06
5.77519e-07
3.2007e-05
1.56907e-05
0.000191181
-7.39008e-06
-9.75248e-06
-6.19845e-06
-8.41746e-06
-8.65782e-06
-1.02141e-05
-8.20058e-06
-1.03013e-05
3.45564e-05
2.62226e-05
0.000147499
-1.01615e-05
-9.37527e-06
-9.29735e-06
-7.91178e-06
3.80757e-06
3.83145e-05
0.00011162
-1.16785e-05
-5.09011e-06
-8.91541e-06
-3.33978e-06
5.29577e-06
4.67452e-06
8.40891e-06
3.68229e-06
-9.2135e-07
2.85428e-06
-1.84667e-06
-1.17266e-05
8.18493e-07
9.02939e-07
1.00068e-05
-4.84024e-06
-2.79858e-05
2.04457e-06
1.0811e-05
1.08533e-06
1.88851e-05
3.12419e-05
1.46658e-05
0.000170877
-1.06857e-05
-1.04165e-05
-1.25847e-05
-1.15502e-05
2.34849e-05
2.08121e-05
3.44747e-05
1.80315e-06
5.64801e-06
6.2345e-05
-7.21514e-06
5.37449e-06
-2.42245e-06
4.92114e-06
6.77972e-06
5.71213e-06
-6.39689e-06
-3.1304e-06
-7.53895e-06
6.17548e-06
1.26939e-05
-7.13234e-06
-5.42806e-06
1.02319e-05
3.31623e-06
3.6142e-06
-4.6019e-06
3.22385e-05
2.09198e-06
7.56725e-05
-1.2084e-05
-5.41937e-06
-1.11889e-05
-3.53768e-06
2.70274e-06
2.62381e-06
6.58952e-06
3.71989e-06
2.76421e-06
4.34577e-05
9.73827e-07
4.74736e-06
2.09625e-06
-1.08028e-06
4.96182e-06
3.95623e-07
-9.34739e-06
2.38606e-06
7.91321e-07
1.55379e-05
-1.41193e-05
-1.28549e-06
1.51781e-06
1.38869e-05
4.44774e-06
-8.13293e-07
1.72255e-06
-3.30866e-06
6.49722e-07
-9.52811e-07
2.96957e-06
-1.70393e-06
1.80166e-06
-1.36815e-05
4.38103e-06
-5.26237e-06
1.45627e-05
-6.05204e-07
1.35825e-07
7.05546e-07
-2.30667e-07
2.28664e-06
8.46702e-08
-4.12299e-08
-2.35367e-06
3.44186e-07
-6.87583e-07
1.28272e-06
4.70737e-07
-1.7578e-06
3.47741e-07
-3.35156e-07
-3.41085e-06
-4.51098e-08
2.76923e-07
2.9118e-06
6.024e-07
1.89622e-06
-3.80339e-07
6.34985e-07
9.93565e-07
-2.83652e-06
-3.07913e-07
-1.01438e-07
-2.03232e-07
2.10451e-06
1.29868e-06
-2.85215e-07
-2.81331e-06
1.84072e-05
1.47625e-05
0.000171906
-7.51279e-07
-6.36951e-06
4.83436e-06
7.01178e-07
-5.26221e-06
-7.56927e-06
2.68043e-06
-2.15778e-06
3.22909e-05
2.18815e-05
0.000124161
-7.70143e-06
-5.71602e-06
-1.94876e-07
1.18559e-06
6.29461e-06
2.60839e-05
8.97812e-05
-4.56211e-06
-1.02501e-06
-1.15094e-06
1.76974e-06
7.30248e-06
1.08522e-05
8.56526e-06
-3.66602e-07
3.12367e-07
8.80987e-07
5.46009e-06
-9.55961e-06
1.94519e-06
-9.76504e-07
8.59322e-06
-8.77798e-07
-5.66323e-06
2.9915e-07
5.17256e-06
2.03108e-07
8.66207e-07
3.08628e-05
2.75474e-05
0.000148726
-9.62972e-06
-8.13602e-06
-2.36799e-06
-1.36303e-06
1.89699e-05
1.86114e-05
4.96376e-05
5.0095e-06
4.63794e-06
8.17718e-05
-2.23655e-06
5.08178e-06
-9.61144e-07
4.67157e-06
5.08652e-06
4.33748e-06
-1.92131e-05
-1.58072e-06
-7.30647e-07
3.96297e-06
2.2571e-05
-1.38757e-06
-1.23724e-06
2.25548e-06
1.13034e-06
-3.84613e-09
-7.57164e-07
1.83286e-05
4.28392e-06
6.72049e-05
-5.46695e-06
-1.48366e-06
-1.70215e-06
1.10031e-06
5.36772e-06
9.43709e-06
6.15009e-06
2.52026e-06
3.61408e-06
6.55589e-05
2.40776e-07
3.23543e-06
1.73736e-07
4.47584e-07
3.21729e-06
1.38973e-06
-2.07702e-05
2.43578e-06
2.37968e-06
2.3113e-05
-1.55527e-05
-1.15448e-06
2.3813e-07
1.64691e-05
2.23702e-06
1.42681e-07
-3.7062e-07
2.27113e-06
-5.54878e-06
1.22433e-06
3.04767e-07
3.69311e-07
7.26446e-06
-1.67757e-05
8.29258e-07
-2.25251e-06
1.81989e-05
4.5589e-07
-4.20132e-08
-1.01236e-06
5.9848e-07
2.52056e-06
-4.31385e-07
-9.06819e-07
-1.18235e-06
7.70831e-06
-1.20122e-06
-3.87838e-06
2.17243e-06
-6.50195e-06
1.70081e-06
6.50498e-06
-6.81449e-06
-2.7194e-08
-1.0731e-06
-7.82529e-06
9.2351e-06
1.85294e-06
-1.12965e-06
8.33497e-07
4.06643e-07
-2.09424e-06
1.30813e-07
-3.62624e-07
8.45852e-06
-4.23016e-06
-1.01319e-05
6.7612e-07
5.59004e-06
1.43539e-05
1.15942e-05
0.00013486
3.92387e-07
2.02152e-06
2.79516e-06
1.84613e-06
1.11671e-06
7.52979e-07
9.75657e-07
1.19713e-06
2.44294e-05
1.76463e-05
9.75529e-05
-8.54855e-07
-3.819e-07
-5.26247e-07
6.49095e-07
7.95536e-06
1.31236e-05
8.49387e-05
-1.95535e-06
-1.41429e-06
-2.37477e-06
-2.37159e-06
6.08084e-06
5.69802e-06
4.52994e-06
-1.18007e-05
1.82425e-06
2.24231e-06
1.56895e-05
-4.3325e-06
7.95508e-08
1.35191e-06
2.90605e-06
3.17883e-06
-2.25367e-06
1.044e-06
-4.82248e-06
-1.02214e-06
3.87547e-06
2.43036e-05
2.43469e-05
0.000113209
-9.45588e-07
-8.79719e-07
-5.26117e-07
8.12694e-07
1.38005e-05
1.43147e-05
6.34724e-05
3.13386e-06
3.03306e-06
9.34363e-05
-1.85118e-06
2.96057e-06
-1.25719e-06
2.79973e-06
3.62064e-06
2.82009e-06
-2.59318e-05
-1.34778e-06
-9.01669e-07
3.36984e-06
2.79453e-05
-8.18096e-07
1.24976e-06
8.55108e-07
-1.12504e-06
-1.53995e-06
1.37822e-06
7.72839e-06
7.48147e-06
7.09796e-05
-2.13554e-06
-1.33281e-06
-2.38728e-06
-1.65231e-06
5.36209e-06
3.86861e-06
3.63958e-06
9.18149e-07
1.88676e-06
8.15834e-05
-1.39599e-06
1.58161e-06
-1.49654e-06
5.57938e-07
3.04989e-06
9.16684e-07
-2.62512e-05
1.58579e-06
1.91825e-06
2.66984e-05
-1.72787e-05
-6.25775e-07
3.48202e-07
1.75563e-05
-7.7542e-06
2.07693e-06
1.62458e-06
1.15342e-05
-1.04667e-05
-6.08043e-07
4.42816e-07
-1.02903e-06
1.35477e-05
-1.95202e-05
-1.56974e-07
-4.77437e-07
2.01546e-05
-1.94843e-06
-1.15134e-06
1.44375e-07
2.9554e-06
2.96934e-07
-1.02487e-06
1.17575e-06
-4.47813e-07
1.65294e-06
-1.49021e-06
-1.17573e-06
1.33584e-06
-4.54411e-07
1.31558e-07
3.33335e-06
-7.82963e-06
2.2849e-07
-1.0243e-06
-5.5425e-07
5.84634e-06
1.06206e-06
-1.42296e-06
-1.26972e-06
6.5488e-07
3.16372e-07
6.59366e-07
-1.73797e-06
3.1183e-06
-2.75953e-06
-1.77863e-07
8.62367e-07
6.947e-07
1.20968e-05
1.07254e-05
0.000124232
-1.88894e-06
-2.78748e-07
-2.82884e-06
-7.59557e-07
-1.31383e-06
-6.03527e-07
-2.63768e-06
-1.88274e-06
1.1401e-05
1.01557e-05
9.77948e-05
-2.27804e-06
-9.59547e-07
-3.3132e-06
-3.15109e-06
3.6967e-06
9.93937e-06
7.89902e-05
-2.12151e-06
-6.91733e-07
-1.93163e-06
5.30595e-08
2.98684e-06
2.83197e-06
2.58638e-06
-1.76889e-05
2.76376e-06
1.5136e-07
1.84705e-05
-4.3784e-06
-1.89366e-06
1.45249e-06
4.81956e-06
1.3595e-06
-4.17475e-06
-2.09808e-07
-3.54753e-07
-2.78105e-07
3.65792e-06
1.50239e-05
1.31091e-05
0.000107605
-2.51037e-06
-1.06528e-06
-3.87925e-06
-4.34875e-06
7.81372e-06
8.24539e-06
7.2593e-05
2.24543e-06
2.00427e-06
9.9455e-05
-1.58852e-06
2.50401e-06
-1.05277e-06
2.28141e-06
2.96326e-06
2.37729e-06
-2.97177e-05
-8.90579e-07
-2.86473e-07
2.51033e-06
3.06298e-05
1.63032e-06
-1.18775e-06
8.14438e-07
-5.0011e-07
-1.16149e-06
4.04585e-07
5.15261e-06
2.31378e-06
7.36862e-05
-1.73496e-06
-8.80332e-09
-1.62915e-06
1.52971e-07
2.41794e-06
1.50069e-06
2.23734e-06
5.11944e-08
2.42683e-06
9.18474e-05
-2.21252e-06
1.15401e-06
-2.03848e-06
2.60164e-07
2.94509e-06
5.47751e-07
-2.8663e-05
9.35727e-07
1.52873e-06
2.8254e-05
-1.77726e-05
-2.46362e-07
1.32526e-07
1.78864e-05
-1.28533e-05
3.12314e-06
-1.48331e-06
1.35272e-05
-1.71006e-05
1.9535e-07
-5.54067e-07
8.87259e-08
1.97974e-05
-2.03996e-05
-1.11878e-06
1.00746e-06
2.05109e-05
-3.40233e-06
-1.33637e-06
1.33781e-06
3.40089e-06
8.39162e-07
-1.70306e-06
1.5026e-06
-6.38699e-07
-1.89134e-06
9.6918e-07
4.62512e-07
-1.5146e-06
2.00785e-06
-3.36039e-08
-2.51483e-07
-4.05014e-06
6.59101e-08
-1.9919e-07
1.01573e-06
3.41917e-06
-1.80056e-06
6.41826e-07
-3.11117e-06
-2.23705e-07
3.03655e-06
1.45705e-06
-1.83889e-06
7.94942e-08
8.35121e-07
6.11458e-07
1.36941e-06
-1.0566e-06
1.19663e-05
1.11511e-05
0.000114603
-2.13275e-06
-1.72903e-06
-3.18997e-06
-1.28376e-06
-1.23198e-06
-1.96251e-06
-1.08652e-06
-8.724e-07
1.0114e-05
1.19636e-05
9.84627e-05
-2.74499e-06
-3.32282e-06
-2.0108e-06
-2.70057e-06
2.11089e-06
7.44914e-06
7.43569e-05
-1.86697e-06
1.14083e-06
-1.28613e-06
1.48188e-06
1.90702e-06
1.86755e-06
1.94314e-06
-1.88131e-05
2.73517e-06
-8.49678e-07
1.90385e-05
-4.52001e-06
-1.67538e-06
1.72897e-06
4.46642e-06
-9.91726e-07
-3.15129e-06
-1.1557e-06
1.87086e-06
2.7616e-07
3.15169e-06
1.46599e-05
1.18335e-05
0.000104808
-3.21249e-06
-3.89432e-06
-2.43505e-06
-3.00359e-06
7.17978e-06
8.5612e-06
8.34755e-05
2.37266e-06
1.91255e-06
0.000101776
-1.07747e-06
2.5129e-06
-7.19105e-07
2.08275e-06
3.02995e-06
2.19374e-06
-3.1675e-05
-3.85884e-07
2.13385e-07
1.67045e-06
3.25497e-05
7.65964e-07
-1.41578e-06
7.59624e-07
-8.39633e-07
2.24152e-07
5.05673e-07
2.31694e-06
8.05607e-07
7.71124e-05
-1.4427e-06
9.70081e-07
-6.43124e-07
1.81068e-06
1.77604e-06
7.45782e-07
2.06802e-06
-5.66775e-08
2.50482e-06
9.98394e-05
-2.41302e-06
1.09691e-06
-2.15848e-06
3.6748e-07
2.73603e-06
8.09014e-07
-2.9672e-05
8.21885e-07
1.65964e-06
2.90464e-05
-1.81187e-05
1.73594e-07
-4.28462e-07
1.83736e-05
-1.39404e-05
3.24412e-06
-2.69637e-06
1.41983e-05
-2.2445e-05
1.32521e-06
-1.74197e-06
6.73327e-07
2.46933e-05
-2.04253e-05
-1.66823e-06
1.95061e-06
2.01429e-05
-3.33675e-06
-9.2194e-07
9.00035e-07
3.35866e-06
4.97607e-07
-8.94936e-07
9.21922e-07
-5.24593e-07
-2.62573e-06
6.90261e-07
-6.63192e-08
-1.3206e-06
2.93494e-06
3.87449e-07
-1.85473e-06
-3.18388e-06
2.6941e-07
-5.0937e-07
1.93674e-06
3.34183e-06
-4.0177e-06
1.16006e-06
-3.19221e-06
-8.05306e-07
5.11858e-06
1.73657e-06
-7.32792e-07
-8.62161e-07
3.81074e-07
5.14297e-07
5.51297e-08
6.44451e-07
1.0558e-05
1.27009e-05
0.000100029
-2.40366e-06
-1.45877e-06
-2.10316e-06
-8.05577e-07
-7.92151e-07
-4.40127e-07
-9.38111e-07
2.5736e-07
8.80271e-06
1.24484e-05
9.69447e-05
-2.30703e-06
-2.83591e-06
-1.8838e-06
-2.14835e-06
1.0365e-06
6.04304e-06
7.08335e-05
-8.22039e-07
1.44915e-06
1.10365e-07
1.26279e-06
1.45431e-06
2.69555e-07
1.52245e-06
-1.95137e-05
2.26369e-06
-1.6089e-06
1.98954e-05
-4.57187e-06
-1.23855e-06
1.30077e-06
4.50965e-06
-1.19168e-06
-3.18903e-06
3.22231e-07
1.65421e-06
-5.16795e-07
2.92106e-06
1.33781e-05
1.34688e-05
9.91441e-05
-2.27178e-06
-2.60446e-06
-1.61078e-06
-1.99533e-06
8.02997e-06
9.49781e-06
9.17741e-05
2.44077e-06
2.13157e-06
0.000102523
-6.24754e-07
2.52648e-06
-4.99322e-07
1.97106e-06
3.29234e-06
2.08787e-06
-3.34111e-05
2.817e-07
7.48431e-07
7.56049e-07
3.40657e-05
-1.51061e-06
-5.23707e-07
-1.87365e-08
-1.65685e-06
3.10702e-06
6.02874e-07
1.62391e-07
8.7968e-07
7.98472e-05
-2.67767e-07
2.38719e-06
2.91069e-07
2.61241e-06
1.84713e-06
1.04065e-06
1.78133e-06
-1.56479e-07
2.35356e-06
0.000106457
-2.4703e-06
9.4047e-07
-2.16821e-06
8.7109e-07
2.45347e-06
1.21866e-06
-3.0264e-05
7.53484e-07
2.10242e-06
2.93832e-05
-1.86389e-05
7.29775e-07
-8.59408e-07
1.87685e-05
-1.45288e-05
4.02552e-06
-3.72716e-06
1.51101e-05
-2.69692e-05
2.65123e-06
-3.53601e-06
1.30163e-06
2.89059e-05
-1.98704e-05
-2.88358e-06
3.14513e-06
1.96089e-05
-3.44105e-06
-3.22676e-07
3.18993e-07
3.44473e-06
4.69856e-07
1.45696e-07
-3.06158e-07
-3.09394e-07
-1.75893e-06
1.96964e-08
-6.52489e-07
-5.99839e-07
2.4652e-06
5.2637e-07
-1.86233e-06
-3.79929e-06
3.49171e-07
-8.3726e-07
1.93082e-06
4.21888e-06
-6.31388e-06
1.0242e-06
-2.39755e-06
-1.28942e-06
7.24116e-06
1.73549e-06
8.2428e-07
-1.4161e-06
-1.62631e-06
1.6731e-06
-1.66604e-06
2.21107e-06
8.7904e-06
1.42337e-05
8.84903e-05
-2.56732e-06
-1.63299e-06
-2.35532e-06
-1.59579e-06
-1.50566e-06
-1.0501e-07
-1.79486e-06
7.10753e-08
5.09972e-06
1.30477e-05
9.65286e-05
-2.51944e-06
-2.33021e-06
-2.30562e-06
-1.7857e-06
-5.83687e-07
5.97064e-06
6.69101e-05
5.35457e-08
9.52033e-07
5.40658e-07
6.36714e-07
9.71977e-07
-6.18252e-07
1.09953e-06
-2.00519e-05
1.79409e-06
-2.02438e-06
1.96985e-05
-4.03046e-06
3.9541e-07
8.17696e-07
2.81735e-06
-2.65269e-06
-2.90454e-06
1.38452e-06
1.73315e-06
-8.67863e-07
3.30741e-06
1.17121e-05
1.38198e-05
9.53534e-05
-1.93083e-06
-2.13117e-06
-1.77744e-06
-1.66808e-06
9.64247e-06
9.77145e-06
9.712e-05
2.48053e-06
2.34699e-06
0.00010384
-3.3304e-07
2.52641e-06
-2.15173e-07
1.99214e-06
3.38357e-06
2.11456e-06
-3.47388e-05
8.05368e-07
1.18839e-06
-1.2186e-07
3.53475e-05
-4.90654e-06
2.94157e-07
-9.38383e-07
-2.48978e-06
7.15465e-06
8.85894e-07
-1.00086e-06
1.30211e-06
8.12956e-05
6.19542e-07
2.83799e-06
1.29382e-06
2.95423e-06
1.6485e-06
1.25259e-06
1.46347e-06
-1.0801e-07
1.8015e-06
0.00011236
-2.29896e-06
1.03259e-06
-1.96679e-06
1.1371e-06