/*--------------------------------*- C++ -*----------------------------------*\
| =========                 |                                                 |
| \\      /  F ield         | OpenFOAM: The Open Source CFD Toolbox           |
|  \\    /   O peration     | Version:  5.x                                   |
|   \\  /    A nd           | Web:      www.OpenFOAM.org                      |
|    \\/     M anipulation  |                                                 |
\*---------------------------------------------------------------------------*/
FoamFile
{
    version     2.0;
    format      ascii;
    class       surfaceScalarField;
    location    "2.4";
    object      phi;
}
// * * * * * * * * * * * * * * * * * * * * * * * * * * * * * * * * * * * * * //

dimensions      [0 3 -1 0 0 0 0];

internalField   nonuniform List<scalar> 
29271
(
-7.41927e-06
6.98742e-07
-2.68858e-06
9.39191e-06
-6.20505e-06
1.24249e-06
-2.19774e-07
5.0745e-06
-3.67334e-05
7.49649e-06
-1.02705e-05
8.75494e-06
-1.39501e-05
4.47025e-05
-2.7799e-05
7.4032e-06
-2.92968e-06
3.49784e-06
-1.24711e-05
3.22988e-05
-2.72922e-05
2.17236e-06
3.22998e-06
-7.96767e-06
3.66837e-05
-6.82615e-06
-1.63542e-05
5.65625e-07
-3.29948e-06
4.5323e-06
-4.84062e-08
1.46041e-05
-2.29413e-05
9.78871e-06
-6.31006e-06
6.56075e-06
-5.81211e-06
1.87141e-05
-2.98771e-05
1.86322e-05
-9.11899e-06
1.35597e-05
-2.03517e-05
2.71559e-05
-3.07247e-05
1.1319e-05
-1.25445e-05
1.53351e-05
-1.95059e-05
3.6121e-05
-2.34954e-05
8.03254e-06
-1.73015e-05
3.84267e-05
-5.67441e-06
-5.95133e-06
5.00251e-07
1.53118e-06
3.90156e-06
-1.92275e-05
-6.51607e-06
-9.54214e-07
9.47682e-06
1.34692e-06
1.58741e-05
-1.90259e-05
5.60926e-06
-8.63288e-06
7.64319e-06
-3.33888e-06
1.77453e-05
-2.05575e-05
1.74025e-05
-8.64689e-06
1.08265e-05
-1.19809e-05
1.29564e-05
-2.57331e-05
2.84408e-05
-1.38975e-05
1.8177e-05
-2.70824e-05
2.00953e-05
-2.15681e-05
1.75899e-05
1.00836e-06
-7.71234e-06
1.30982e-05
-2.41603e-06
-2.27394e-05
-2.79797e-06
8.91268e-06
8.03634e-07
1.49219e-05
8.99162e-07
-1.80299e-05
-4.9551e-06
3.44327e-06
4.89205e-07
2.55349e-06
1.6499e-05
-1.43853e-05
8.46291e-06
-3.65168e-07
8.41305e-07
-1.7447e-06
7.19096e-06
-2.28292e-05
-3.16105e-06
-7.48073e-06
1.39645e-05
1.96295e-05
-1.23092e-07
-5.87429e-06
3.27087e-06
-6.33526e-07
3.31095e-06
-1.66311e-05
2.35806e-07
-1.24067e-06
1.83386e-05
-7.86713e-07
-2.69486e-05
-1.36122e-06
3.81475e-06
4.71303e-07
2.33301e-05
6.93661e-07
-9.52522e-06
-1.2975e-06
-1.82265e-06
1.26557e-05
-9.42402e-06
4.9239e-09
-8.3031e-07
1.02988e-05
-6.2361e-06
-1.59983e-06
1.61961e-06
6.30151e-06
2.19613e-07
4.63909e-06
-3.73498e-05
-1.28148e-06
4.15879e-06
2.96138e-05
1.06681e-06
-3.01179e-05
9.35916e-07
-7.85037e-07
9.41227e-07
2.7959e-05
-3.60105e-05
2.5493e-06
-1.50764e-06
-1.682e-06
3.62333e-05
4.17494e-07
-6.09229e-07
-1.86236e-06
-1.60478e-05
1.77864e-06
-6.18263e-07
1.7359e-05
-1.6963e-05
-1.35465e-05
0.000132237
-2.21834e-05
-2.86881e-05
-1.87634e-05
-2.04245e-05
-4.4479e-06
-4.18934e-06
-2.45004e-06
-1.34172e-06
5.02928e-07
6.51324e-07
3.02193e-07
-6.95149e-07
-1.40378e-05
-9.35715e-06
0.000106563
-2.55301e-05
-3.34167e-05
-1.74124e-05
-2.14369e-05
-2.0314e-06
-2.89153e-06
1.37816e-06
1.20978e-06
5.36693e-07
-6.06158e-06
0.00016724
-6.21924e-07
4.03131e-07
1.52311e-06
1.13748e-06
2.66864e-07
1.36657e-06
3.98868e-07
-3.9551e-05
-6.38119e-05
-2.25528e-05
-5.43112e-05
-5.37764e-05
-4.9286e-06
-5.13386e-06
6.43444e-05
-3.62502e-06
7.13601e-07
-9.18548e-07
3.76699e-06
8.01087e-07
-1.632e-05
2.53516e-06
-9.89322e-08
-3.06903e-06
1.61517e-05
-1.00937e-05
-2.17861e-05
0.000110984
-1.77582e-05
-1.67088e-05
-3.30738e-05
-3.01604e-05
4.16336e-07
-1.13834e-07
3.13111e-06
1.61657e-06
-1.66874e-06
-1.37379e-05
5.8704e-05
-1.15783e-05
-1.33453e-05
-1.88953e-05
-1.89294e-05
1.23434e-06
-3.25401e-06
5.37617e-05
1.27683e-06
1.07261e-06
1.33773e-06
-1.93709e-06
-1.72655e-06
-1.36934e-06
-1.43946e-05
-2.32366e-05
-1.45968e-05
-5.89862e-06
-1.1097e-05
3.0662e-07
1.91756e-06
-1.10825e-06
1.12155e-05
-1.37832e-05
3.08797e-06
-4.08392e-06
-1.99693e-06
1.46081e-05
2.16799e-06
-5.51367e-06
-3.24839e-06
7.95108e-05
2.3585e-06
3.03928e-06
2.45279e-06
2.5229e-06
-3.18251e-06
-2.62504e-06
-2.32644e-06
-1.65061e-05
-8.50302e-06
-4.02478e-05
-2.95173e-05
5.11516e-07
-2.58015e-06
4.91752e-05
1.15178e-06
8.60765e-07
6.81026e-07
-2.46609e-06
-1.68903e-06
-1.42891e-06
-5.20793e-06
-6.57656e-06
-2.24304e-05
-2.92529e-05
-1.0108e-05
1.18722e-06
-2.99549e-06
9.17375e-06
-3.15553e-06
1.60384e-06
-2.1079e-06
3.68499e-06
-2.04373e-05
2.30759e-06
-2.74763e-06
1.76756e-05
-1.73888e-05
1.51456e-06
1.04828e-06
-2.847e-06
1.50928e-05
-1.27771e-05
5.24121e-06
-7.28435e-07
8.41889e-06
-1.05005e-05
-5.45121e-07
6.29653e-07
1.04102e-05
-5.13366e-06
4.12185e-06
-1.09385e-07
1.15669e-06
-1.27964e-06
-8.4139e-06
-2.81388e-05
6.63133e-06
-6.26793e-08
3.12637e-05
2.12757e-06
-2.9394e-05
-5.45431e-07
-3.74929e-06
-4.67943e-06
3.62406e-05
-3.99811e-05
7.53088e-06
-4.95412e-06
-6.66303e-06
3.99888e-05
4.07862e-06
1.1416e-06
-3.46814e-06
-1.85062e-05
5.21848e-06
-1.16299e-06
1.67772e-05
-1.09936e-05
-1.79021e-05
0.000189618
2.17287e-06
3.55029e-06
-3.31471e-06
-4.44233e-07
-4.03658e-06
-9.38067e-06
-7.13084e-06
-9.90198e-06
-1.3623e-05
-9.20021e-06
0.000106496
4.10865e-06
2.21832e-06
3.01033e-06
2.55972e-06
-2.25509e-06
-8.5769e-06
0.000144384
3.14644e-06
4.23756e-06
8.79346e-06
1.06515e-05
-3.16433e-06
-1.00631e-06
-2.59305e-06
-6.89832e-05
4.67128e-06
-6.94487e-06
6.89998e-05
-3.84873e-06
1.00495e-06
-7.32528e-07
3.53926e-06
-1.51691e-06
-1.45214e-05
2.18753e-06
5.59636e-06
-2.95756e-06
1.12119e-05
-9.66758e-06
-2.19169e-05
0.00012233
-2.43541e-06
2.43133e-06
-1.1305e-08
2.35151e-06
-3.84759e-06
-1.60237e-05
5.97076e-05
-1.22953e-06
-3.44964e-06
5.63221e-05
-1.13158e-06
-9.46035e-07
-6.99221e-07
-2.44969e-06
-2.7348e-06
-2.34438e-06
-1.31843e-05
6.96168e-07
-5.38894e-07
-9.28879e-07
1.27264e-05
-1.51402e-05
1.13204e-06
-1.02127e-06
-1.72408e-06
1.46047e-05
2.14883e-06
-9.80781e-06
-4.31329e-06
7.38211e-05
1.65017e-06
1.82675e-06
3.28951e-06
2.59509e-06
-4.71723e-06
-3.24728e-06
-3.50317e-06
-1.95476e-07
-2.42262e-06
3.12382e-05
-3.11011e-08
2.80256e-07
1.32337e-07
-2.24584e-06
-1.80271e-06
-1.60941e-06
-9.46793e-06
9.99618e-07
-2.51134e-06
7.33454e-06
-4.41449e-06
8.81189e-07
-1.36901e-06
4.93949e-06
-1.51498e-05
2.48751e-06
-3.47241e-06
1.19629e-05
-1.36824e-05
1.36273e-06
1.61114e-07
-6.61095e-07
1.0397e-05
-5.85803e-06
2.19932e-06
-1.95241e-07
3.98043e-06
-9.73302e-06
1.59437e-07
-2.838e-07
9.85738e-06
7.84639e-07
-9.02677e-07
-2.62002e-07
3.83926e-07
1.33087e-06
-2.1635e-06
-3.0772e-05
3.06244e-06
1.09141e-06
2.74508e-05
-2.19805e-06
-4.02921e-05
-1.55907e-06
-3.22132e-08
1.37943e-06
4.2702e-05
-4.31703e-05
-5.87315e-08
-2.30369e-06
-3.4549e-06
4.6612e-05
2.37566e-06
-4.88126e-06
6.05827e-07
-1.66506e-05
4.02893e-07
5.74429e-06
1.47788e-05
2.1327e-05
-4.4931e-06
0.000188983
-3.21252e-06
-2.77848e-06
-1.1263e-06
-7.79146e-07
-3.19401e-06
-6.70545e-06
1.8966e-06
-2.99923e-07
6.74372e-08
-1.37662e-05
0.000154255
-5.99967e-07
-4.58131e-06
-2.73919e-06
-4.81278e-06
-1.1526e-06
-1.243e-05
0.000174314
1.62287e-06
4.59164e-06
-5.99262e-06
3.1092e-07
-3.27519e-06
-5.66992e-06
-7.86847e-06
-6.81141e-05
7.49409e-06
-8.75628e-06
6.82243e-05
-2.99378e-06
6.30216e-07
-1.50614e-07
2.50106e-06
-1.1625e-06
-1.15195e-05
-6.15231e-07
5.26931e-07
-1.8337e-06
1.4604e-05
-4.34439e-06
-1.70907e-05
0.000137072
-4.22573e-07
4.16876e-07
7.38197e-07
1.46778e-06
-4.27753e-06
-1.92389e-05
6.51134e-05
-5.05052e-07
-2.78817e-06
5.31321e-05
3.26299e-07
-2.58718e-06
-3.00865e-07
-2.43815e-06
-2.45716e-06
-2.76726e-06
-1.32087e-05
1.51809e-06
-7.97812e-07
-7.59997e-07
1.27434e-05
-1.52754e-05
6.92673e-07
-4.3365e-06
-5.66246e-07
1.76558e-05
1.82961e-06
-9.16361e-06
-1.80815e-06
4.78606e-05
9.0817e-06
7.37767e-06
7.20276e-06
4.81622e-06
-2.9967e-06
-3.30059e-06
-2.33951e-06
-4.24343e-07
-2.0994e-06
1.22784e-05
-5.33753e-07
-7.67297e-08
-3.56483e-07
-2.2407e-06
-1.84403e-06
-1.86718e-06
-6.20098e-06
3.72912e-07
-1.97452e-06
4.59007e-06
-5.03692e-06
1.43634e-06
-1.03348e-06
4.71259e-06
-9.07417e-06
4.92502e-06
-4.09121e-06
6.48874e-06
-7.53928e-06
1.4091e-06
-4.44758e-08
-1.13363e-07
4.18862e-06
-2.89741e-06
1.33707e-06
-2.45202e-07
1.91126e-06
-9.92195e-06
-1.3624e-07
2.36426e-07
9.82176e-06
3.19496e-07
-1.20571e-06
1.33705e-06
-4.49333e-07
8.75986e-07
6.01808e-07
-2.56974e-05
3.89884e-07
-1.32485e-06
2.51546e-05
-2.30606e-06
-4.28021e-05
-9.66538e-07
6.51786e-07
3.14712e-06
4.22758e-05
-4.67248e-05
-1.00316e-06
-2.47643e-06
2.51428e-06
4.71615e-05
5.28537e-07
-2.58674e-06
2.21057e-06
-1.34645e-05
-5.18561e-06
6.08581e-06
1.29405e-05
9.22507e-06
1.15596e-08
0.00015553
7.55903e-07
-4.67337e-07
2.94662e-06
2.52561e-06
5.22575e-06
2.55844e-06
5.14329e-06
5.52862e-06
9.35512e-07
-7.05925e-06
0.000175832
-2.27823e-06
-3.17483e-06
-3.7586e-07
-4.00043e-07
-6.65667e-07
-6.0538e-06
0.000175508
-3.26639e-06
1.54659e-06
9.22161e-07
2.85994e-06
-4.75885e-07
2.90223e-06
1.97289e-06
-5.93316e-05
3.98322e-06
9.21258e-07
5.37665e-05
-2.54737e-06
7.92169e-07
-1.14196e-06
2.89741e-06
3.63694e-06
-2.20047e-05
-2.2795e-06
-6.22582e-06
-3.53187e-06
3.0405e-05
-6.08935e-07
-4.521e-06
0.000123149
3.16306e-06
4.01867e-06
5.88834e-06
5.99427e-06
3.40101e-06
-1.15228e-05
6.5567e-05
-1.01164e-06
-3.44262e-06
5.68293e-05
-6.97792e-07
1.33959e-06
7.24831e-07
-1.53791e-06
-1.31656e-06
-4.0787e-07
-1.13805e-05
-1.65183e-06
7.72462e-07
9.9125e-07
1.0257e-05
-2.2839e-05
5.756e-06
-8.59863e-06
-4.71467e-06
2.53167e-05
5.07961e-06
-2.77298e-06
-1.61742e-06
2.96696e-05
6.31762e-06
3.64738e-06
5.14166e-06
2.84631e-06
-6.23215e-07
1.4125e-06
-6.81821e-07
-3.84663e-08
-1.65381e-06
3.7672e-06
3.26539e-07
5.4326e-07
-2.65632e-07
-1.62376e-06
-1.53405e-06
-1.53871e-06
-3.67136e-06
-4.59709e-07
-2.04291e-06
2.69289e-06
-4.0882e-06
-7.64887e-07
7.92865e-07
4.06032e-06
-3.32277e-06
4.40502e-06
-4.25099e-06
1.55103e-06
-1.39296e-06
1.02885e-06
-6.96845e-08
-2.64758e-07
-9.55246e-07
-8.5828e-07
1.10651e-06
-2.94817e-07
1.37797e-07
-9.84626e-06
4.70542e-08
-3.09406e-07
1.01086e-05
1.0545e-06
-1.63744e-06
1.6079e-06
-1.02523e-06
2.1512e-07
2.04971e-06
-2.62804e-05
-1.15639e-06
-2.27225e-06
2.74442e-05
-1.19228e-06
-4.19892e-05
-5.24494e-08
2.88867e-07
1.88047e-06
4.10646e-05
-4.82654e-05
4.12083e-07
-5.75337e-07
7.8973e-07
4.7655e-05
-1.61137e-08
-3.85903e-07
2.87653e-06
-1.27779e-05
-3.4908e-06
1.96515e-06
1.18129e-05
5.78381e-06
9.91558e-06
0.000119217
2.38012e-06
1.35047e-06
2.41585e-06
2.34021e-06
2.28996e-06
3.74042e-06
1.73197e-06
4.3643e-06
1.38458e-06
-3.86768e-06
0.000185858
-1.36544e-06
-1.45209e-06
4.86368e-07
5.72472e-07
2.22868e-06
-3.29673e-06
0.000168335
-1.87256e-07
2.50086e-06
1.63993e-06
1.45376e-06
1.68575e-06
4.92482e-07
2.03939e-06
-4.93294e-05
8.59856e-07
3.30123e-06
-4.87547e-06
5.22724e-05
1.82329e-07
-3.69623e-09
1.70005e-08
-1.9855e-07
-3.75329e-06
6.46185e-07
-2.34602e-06
5.45329e-06
6.94066e-06
-3.6911e-05
-1.77325e-06
-7.63577e-06
-2.04372e-06
4.14231e-05
6.04084e-06
1.19729e-05
9.63213e-05
4.46322e-06
4.32125e-06
5.28732e-06
4.65818e-06
3.60051e-06
-7.24344e-06
7.13831e-05
1.3332e-06
-1.86777e-06
5.49683e-05
1.48547e-06
1.2522e-06
1.27377e-06
-3.88202e-07
-8.94602e-07
-2.92614e-08
-1.13194e-05
1.43191e-06
1.46911e-06
1.90239e-07
9.5613e-06
-3.1327e-11
9.37596e-08
-5.58622e-09
-4.91681e-09
-8.77911e-08
-2.60664e-05
3.62526e-06
-4.71985e-06
-2.17303e-06
2.67795e-05
2.55448e-06
-3.08177e-07
1.85303e-07
3.15596e-05
3.89935e-06
1.798e-06
2.92148e-06
4.01961e-09
7.12225e-07
8.19708e-08
7.88716e-07
5.94155e-07
-4.76056e-07
-2.42127e-06
-1.6026e-08
2.67674e-07
-2.79566e-08
-5.63064e-07
-4.05544e-07
-7.36319e-07
-1.39896e-06
4.36484e-07
-2.18891e-06
1.87777e-06
-4.66274e-06
5.18079e-07
5.5527e-08
4.08756e-06
-2.56885e-06
5.91285e-07
-8.82407e-07
3.04523e-06
2.93762e-06
4.56011e-07
3.91467e-07
-4.3191e-07
-3.82925e-06
-1.2328e-07
7.29306e-07
-7.33545e-07
1.28117e-07
-1.03002e-05
7.92086e-07
-7.48413e-07
1.02565e-05
3.27602e-07
-2.15493e-06
1.00318e-06
8.22382e-07
-1.09732e-06
3.57007e-06
-2.9157e-05
-2.84657e-06
-7.15507e-07
3.02464e-05
-4.51598e-07
-4.03094e-05
4.62825e-07
3.01105e-07
6.54801e-07
3.93423e-05
-4.74326e-05
8.08656e-07
-9.663e-07
-2.80485e-07
4.75231e-05
3.47647e-07
3.46455e-07
4.17381e-07
-1.02737e-05
-3.5248e-07
4.32478e-07
9.42986e-06
6.03305e-06
1.28842e-05
9.28584e-05
9.60101e-07
7.23786e-07
-4.96762e-07
1.24587e-06
7.40601e-07
1.90167e-06
9.51744e-07
1.41453e-06
-1.97465e-06
3.71584e-06
0.000191048
-9.23401e-07
-8.08346e-07
3.844e-07
4.49339e-07
2.77177e-07
-3.113e-06
0.000160976
6.87253e-07
2.66943e-06
1.58504e-06
3.33366e-06
4.88425e-07
1.22761e-07
-6.65518e-07
-5.91709e-05
1.40737e-05
6.03179e-06
-1.33937e-06
4.0682e-05
6.01119e-07
8.77405e-08
9.4527e-07
-1.66943e-06
2.67342e-08
8.56544e-09
-7.77132e-06
1.21827e-06
-2.7946e-06
9.34817e-06
6.89539e-06
-4.45067e-05
-1.20586e-06
-6.74073e-06
-1.19003e-06
4.6748e-05
1.44349e-05
1.44578e-05
7.14021e-05
2.63147e-06
1.56851e-06
2.69364e-06
2.01697e-06
4.99518e-06
3.33155e-06
8.12071e-05
3.44485e-07
-6.3528e-07
5.67737e-05
5.19116e-07
-3.20716e-08
-5.46325e-07
6.13546e-07
-4.13697e-07
2.27017e-07
-9.10496e-06
1.95303e-06
2.87237e-07
-1.35028e-06
8.55946e-06
7.23671e-08
2.39107e-07
6.30167e-07
-7.39801e-07
1.03964e-07
-3.05805e-07
-2.66973e-05
-4.2995e-07
-1.20379e-07
2.74614e-07
2.55267e-05
1.4463e-06
9.57686e-06
8.79704e-07
4.18155e-05
-4.76508e-07
-2.78292e-06
-2.10026e-06
-5.28245e-06
1.21427e-06
1.81123e-06
1.36193e-06
3.31468e-07
1.26892e-07
9.94418e-06
-7.27306e-09
9.14091e-07
3.42924e-07
-5.57024e-07
5.05516e-09
-6.13175e-07
-2.30425e-06
-4.13047e-07
-9.0231e-07
3.3158e-06
-2.53454e-06
-1.90359e-06
1.446e-06
4.56553e-07
2.53498e-06
-7.30393e-07
2.79328e-07
-4.49697e-07
9.00763e-07
-3.39145e-06
-2.96852e-06
3.68481e-06
3.55463e-06
4.05033e-06
-1.76117e-06
1.70584e-06
-4.03776e-07
-3.46434e-06
6.1547e-07
1.10397e-06
-6.78257e-07
-1.04367e-06
-1.01588e-05
9.98441e-07
-7.7514e-07
9.93547e-06
-1.90032e-06
-3.47846e-06
1.73994e-06
3.64242e-06
-1.92107e-06
4.22513e-06
-2.99142e-05
-3.52185e-06
2.42328e-06
2.87087e-05
-3.65923e-07
-3.82661e-05
5.48647e-07
7.38278e-07
6.56322e-07
3.66888e-05
-4.84432e-05
1.19116e-06
-3.1952e-06
-9.31687e-07
5.06317e-05
7.47254e-07
1.56967e-07
-2.25131e-06
-1.00765e-05
2.24191e-06
-4.45311e-07
1.03742e-05
3.17786e-06
1.77764e-05
8.52302e-05
-3.07443e-06
-1.39722e-06
-3.88717e-06
-1.79358e-06
-4.60838e-07
1.6112e-08
-1.78982e-06
-9.39169e-07
-4.88414e-06
8.12047e-06
0.000193575
-1.15012e-06
-1.24382e-06
-9.13578e-08
-1.00633e-07
4.81235e-07
-2.92734e-06
0.000153302
6.67998e-07
3.70902e-06
2.40913e-06
4.18395e-06
-2.79384e-06
-4.85345e-08
-2.89255e-06
-3.63335e-05
1.83404e-06
1.33486e-06
1.37773e-06
3.22681e-05
-3.88646e-07
-9.05502e-07
4.49647e-07
-4.5916e-07
3.20208e-07
9.83454e-07
-1.05428e-05
1.24842e-06
-2.15782e-06
1.14522e-05
5.44814e-06
-4.87993e-05
-1.36653e-07
-4.59742e-06
-9.04487e-07
4.89897e-05
1.37793e-05
1.17033e-05
6.44221e-05
-5.46352e-09
-2.46224e-08
-4.53492e-07
-2.42602e-07
3.88726e-06
6.9086e-06
9.2311e-05
-1.02878e-06
-6.55818e-07
6.23983e-05
-1.1972e-06
-9.94811e-07
-6.81155e-07
-1.63133e-07
1.43567e-07
-8.73752e-08
-8.89706e-06
-8.95275e-08
-9.8764e-07
-1.05632e-07
9.05108e-06
9.85343e-07
3.28857e-08
5.88683e-07
-6.62275e-08
-1.50815e-08
-1.5256e-06
-2.13566e-05
-2.86988e-06
6.21996e-06
2.14697e-06
1.46988e-05
1.16082e-06
1.85886e-05
2.34743e-06
5.00055e-05
-5.08619e-06
-7.05808e-06
-5.66603e-06
-5.56592e-06
1.61696e-06
2.35408e-06
1.98254e-06
1.87631e-06
3.89812e-07
2.79347e-05
1.15051e-06
2.54797e-06
1.52065e-06
-3.18759e-07
5.53274e-07
-2.13075e-07
-4.75062e-06
9.07711e-07
-1.117e-06
6.18039e-06
-1.82388e-06
2.25541e-07
-4.57052e-07
5.97912e-07
1.45766e-06
-9.57207e-07
4.63556e-07
-2.049e-07
-1.30775e-07
8.29326e-07
-4.14235e-06
-4.37409e-06
6.80338e-06
4.05851e-06
2.43211e-06
-4.33455e-06
3.41844e-06
-6.77841e-07
-4.48348e-07
1.10351e-06
1.85388e-06
-2.19775e-06
-7.72886e-07
-9.21695e-06
6.59737e-07
7.21847e-07
7.83537e-06
-5.56378e-06
-3.50102e-06
2.28706e-06
6.77774e-06
-2.91276e-06
3.66963e-06
-2.72864e-05
-2.95936e-06
3.71966e-06
2.57692e-05
-1.61039e-06
-3.53249e-05
4.26096e-07
5.09638e-07
1.41343e-06
3.45862e-05
-5.45203e-05
5.07999e-06
-7.59267e-06
-3.66391e-06
5.77199e-05
2.97696e-06
6.4319e-08
-2.30843e-06
-9.55177e-06
2.34769e-06
-1.48325e-06
1.09314e-05
3.73274e-06
2.01988e-05
8.62367e-05
-4.52548e-06
-4.07793e-06
-4.62665e-06
-3.86817e-06
-1.82054e-06
-2.25306e-06
-1.53192e-06
-2.23429e-06
-4.30517e-06
1.02517e-05
0.000194161
-1.63832e-06
-1.19183e-06
-4.04126e-07
4.35167e-07
-1.61139e-06
-3.31272e-06
0.000148983
2.01814e-06
5.21714e-06
3.54699e-06
3.98479e-06
-2.80049e-06
-4.58471e-06
-2.4437e-06
-3.60345e-05
6.67255e-06
5.50846e-07
1.85427e-06
2.53454e-05
-3.0247e-06
2.69083e-07
-3.35701e-08
1.13219e-06
1.657e-06
-1.19339e-05
1.66093e-06
-1.78303e-06
1.20564e-05
2.58582e-06
-4.87406e-05
1.40372e-06
-8.44549e-07
-9.80493e-07
4.65761e-05
1.41912e-05
1.12572e-05
7.26135e-05
-2.57329e-06
-3.52621e-06
-3.73759e-06
-3.60383e-06
5.48322e-06
8.70501e-06
0.000102566
-1.29201e-06
-4.94688e-07
7.01552e-05
-9.15669e-07
-1.00175e-06
-1.21257e-06
-8.27577e-08
-1.34017e-07
-4.52936e-07
-9.23415e-06
-9.68411e-07
-1.18493e-06
1.00512e-06
9.09036e-06
1.24673e-06
-7.44543e-07
-2.06546e-07
7.72334e-07
-3.13818e-07
-7.54158e-07
-8.95446e-06
-1.34301e-06
3.10508e-06
2.18119e-06
6.10662e-06
-1.09542e-06
1.55603e-05
1.87834e-06
5.29348e-05
-5.18496e-06
-2.67331e-06
-3.77568e-06
-2.43077e-06
1.51611e-06
1.90446e-06
1.53337e-06
2.28252e-06
1.93099e-07
4.52058e-05
1.30076e-06
2.39212e-06
1.15476e-06
-3.26301e-07
2.09727e-07
-2.12529e-07
-7.74086e-06
1.74039e-06
-1.10579e-06
8.89409e-06
-1.03573e-06
7.54027e-08
-1.09158e-06
2.05267e-06
-3.16407e-06
-1.6533e-06
4.07881e-06
2.60508e-06
-1.85301e-06
-4.10044e-06
4.15145e-06
-1.4011e-06
3.3962e-06
3.1971e-07
2.16782e-06
-2.655e-06
1.63444e-07
-6.2461e-06
1.50134e-06
-5.73146e-07
5.31791e-06
-7.49686e-06
-3.5151e-06
2.89824e-06
8.11434e-06
-2.99735e-06
3.52035e-06
-2.4047e-05
-2.87423e-06
4.01393e-06
2.23843e-05
-5.05705e-07
-3.48356e-05
1.17405e-06
-2.07724e-06
7.64186e-07
3.54804e-05
-5.98874e-05
8.14625e-06
-9.2586e-06
-5.80456e-06
6.06365e-05
6.16773e-06
6.53545e-07
-1.46639e-06
-1.42138e-05
2.20851e-06
-3.79407e-06
1.66122e-05
5.70713e-06
2.05422e-05
8.96662e-05
-4.97733e-06
-4.749e-06
-4.99594e-06
-3.79952e-06
-2.07155e-06
-3.72782e-06
-1.80747e-06
-3.55012e-06
2.4143e-06
1.09101e-05
0.000186584
-1.38777e-06
-2.46667e-07
2.06091e-07
1.38767e-06
-3.33197e-06
-2.44797e-06
0.00014622
2.86647e-06
3.96892e-06
4.25074e-06
4.65243e-06
-2.04202e-06
-1.3431e-06
-1.39568e-06
-1.83145e-05
3.28177e-07
1.13014e-06
1.35242e-05
-1.18221e-05
2.17983e-06
-9.33052e-07
1.05756e-05
-9.33877e-07
-4.11368e-05
1.91467e-06
4.15244e-06
1.58111e-06
3.44224e-05
1.49003e-05
1.26457e-05
8.32457e-05
-5.43823e-06
-4.05274e-06
-4.40249e-06
-3.74255e-06
8.80654e-06
9.8454e-06
0.000109724
-1.27178e-06
-7.84052e-07
8.08937e-05
-8.79888e-07
-8.86016e-07
1.05493e-07
-4.00184e-07
-1.13916e-07
-1.4963e-07
-1.16752e-05
-2.27852e-06
-4.04909e-07
1.25488e-06
1.1832e-05
-5.81471e-06
-2.62437e-06
4.1212e-06
2.84808e-06
3.69658e-06
-2.22678e-06
1.11336e-05
1.82943e-06
6.21767e-05
-4.24924e-06
-2.70454e-06
-4.06613e-06
-2.55253e-06
1.34143e-06
1.57009e-06
1.10173e-06
1.7701e-06
6.14278e-07
5.97244e-05
1.48008e-07
1.99445e-06
3.87849e-08
2.24746e-07
9.73358e-07
6.96718e-07
-1.05834e-05
1.45291e-06
-1.15854e-06
1.12751e-05
-2.1825e-06
4.85738e-07
-2.0566e-07
1.90242e-06
-2.79155e-06
-1.15161e-06
2.10387e-06
3.66986e-06
-3.94813e-06
-2.16509e-06
3.24123e-06
-1.10538e-06
4.59165e-06
-1.14201e-06
1.43019e-06
-2.40164e-06
2.11711e-06
-5.13547e-06
3.09404e-06
-3.28802e-06
5.32945e-06
-8.65017e-06
-3.35715e-06
2.97035e-06
9.03696e-06
-3.05787e-06
4.36746e-06
-2.12126e-05
-5.03918e-06
4.19369e-06
2.07485e-05
7.68843e-07
-3.63382e-05
4.64786e-06
-5.42389e-06
-6.56914e-07
3.70023e-05
-6.05948e-05
8.3305e-06
-8.85713e-06
-5.56519e-06
5.95822e-05
7.10449e-06
-1.0704e-06
-6.72624e-07
-1.78647e-05
1.04784e-06
-9.01516e-07
1.94614e-05
5.75066e-06
2.08435e-05
9.07053e-05
-5.27518e-06
-4.58277e-06
-5.29106e-06
-3.89462e-06
-1.50262e-06
-3.47216e-06
-1.15363e-06
-2.46126e-06
6.93074e-06
1.07246e-05
0.000172812
-3.72149e-07
3.04772e-07
5.41835e-07
1.39299e-06
-2.02496e-07
2.80852e-06
0.000137452
2.5792e-06
3.65711e-06
3.55899e-06
3.35756e-06
-3.29906e-07
-1.88857e-07
4.58122e-07
-8.41104e-06
5.21166e-07
2.90409e-06
4.78328e-06
-8.76763e-06
1.37432e-06
4.24376e-07
6.97048e-06
-2.32055e-06
-2.98754e-05
1.26068e-06
3.45913e-06
1.13941e-07
2.73622e-05
1.29122e-05
1.36697e-05
9.2714e-05
-4.23557e-06
-4.24104e-06
-3.16703e-06
-3.56308e-06
9.05099e-06
1.09603e-05
0.00011335
1.42497e-07
-7.85394e-08
8.71117e-05
1.08327e-06
8.5739e-07
1.35442e-06
5.23006e-07
1.03188e-06
7.27643e-07
-1.25653e-05
-1.57328e-06
6.43812e-07
-5.89495e-07
1.42268e-05
-7.5799e-07
8.97417e-07
1.05922e-06
-1.39377e-06
-2.60208e-08
2.21141e-07
1.02991e-05
1.51816e-06
7.12369e-05
-4.16955e-06
-1.72789e-06
-4.22304e-06
-2.3526e-07
1.1715e-06
9.45421e-07
1.03104e-06
1.96868e-06
1.53846e-06
7.10775e-05
-3.10344e-07
2.44864e-06
2.40376e-08
1.08041e-06
2.08783e-06
1.06855e-06
-1.26917e-05
1.50249e-06
-4.86859e-07
1.35662e-05
-2.10446e-06
4.23173e-07
-5.80759e-07
2.26205e-06
-4.07158e-06
-1.2278e-07
1.57096e-06
4.14175e-06
-5.60951e-06
-1.37641e-06
1.64074e-06
-3.4337e-07
7.22701e-06
-2.89877e-06
7.2266e-07
-1.31693e-06
3.49283e-06
-5.60442e-06
3.87767e-06
-4.13277e-06
5.85953e-06
-9.43337e-06
-3.92714e-06
3.23397e-06
1.01265e-05
-2.84009e-06
5.48362e-06
-2.07199e-05
-7.18749e-06
4.2041e-06
2.10597e-05
-5.40666e-07
-3.70168e-05
7.36866e-06
-6.75276e-06
1.08152e-06
3.58601e-05
-5.7953e-05
7.60288e-06
-7.7682e-06
-5.15607e-06
5.59429e-05
7.33142e-06
-4.1129e-06
2.02849e-07
-2.11264e-05
3.39255e-07
2.84286e-06
2.18544e-05
-1.11794e-07
2.1072e-05
9.47782e-05
-5.37931e-06
-4.98814e-06
-5.30608e-06
-4.81104e-06
-5.6033e-07
-2.19898e-06
-4.33542e-07
-1.35575e-06
1.8083e-06
1.26918e-05
0.000162656
-1.45109e-06
-3.53089e-07
-2.04327e-06
-6.08391e-07
-2.66993e-07
1.24748e-05
0.000122848
1.25818e-06
1.14236e-06
1.30737e-06
-1.34382e-06
7.99696e-07
-2.0697e-08
1.06112e-06
-3.78278e-06
-3.51564e-06
1.34832e-06
5.68311e-06
-6.35683e-06
7.15364e-07
-1.12061e-06
6.76027e-06
-2.74898e-07
-2.64665e-05
-3.34332e-07
2.27949e-06
-1.21573e-06
2.6012e-05
1.20251e-05
1.43755e-05
0.000100826
-3.63531e-06
-4.21156e-06
-2.58576e-06
-3.008e-06
7.087e-06
1.24285e-05
0.000118551
1.40315e-06
1.42942e-06
9.32952e-05
1.72201e-06
1.57655e-06
1.76621e-06
1.37764e-06
2.59554e-06
1.50773e-06
-1.57725e-05
2.55446e-07
1.33502e-06
-1.57204e-06
1.71573e-05
3.25881e-07
2.45562e-06
-4.15751e-07
-5.23968e-06
3.12703e-07
2.56122e-06
1.24814e-05
1.04038e-06
7.27086e-05
-4.28118e-06
8.59434e-07
-5.34595e-07
4.61091e-07
1.05861e-06
1.17048e-06
6.48131e-07
2.4858e-06
2.4344e-06
8.06284e-05
7.72827e-07
3.05808e-06
1.60387e-06
1.18203e-06
2.42307e-06
1.39898e-06
-1.50314e-05
1.86511e-06
1.06211e-06
1.60194e-05
-2.6768e-06
4.26255e-07
-8.24686e-07
3.07523e-06
-3.88893e-06
4.63215e-07
9.19205e-07
3.54689e-06
-9.1313e-06
-9.41722e-07
-3.54326e-07
1.42189e-06
1.14399e-05
-3.80771e-06
-1.01679e-06
8.03603e-07
4.02089e-06
-6.15574e-06
3.60054e-06
-3.92946e-06
6.48465e-06
-1.10787e-05
-4.45531e-06
3.54604e-06
1.19879e-05
-2.33405e-06
5.66248e-06
-2.14961e-05
-7.58683e-06
3.79655e-06
2.1958e-05
-2.18485e-06
-3.29369e-05
8.89703e-06
-7.70933e-06
4.98633e-06
2.89478e-05
-5.4047e-05
5.08812e-06
-5.42867e-06
-1.64041e-06
5.11095e-05
4.91841e-06
-4.93576e-06
-4.82481e-07
-2.16234e-05
9.52239e-07
5.21318e-06
2.08762e-05
-7.49564e-06
2.14383e-05
0.0001034
-5.03015e-06
-5.66366e-06
-4.59535e-06
-4.80174e-06
-3.27526e-07
-1.46397e-06
3.89611e-08
-7.208e-07
-4.69292e-06
1.60896e-05
0.000162349
-4.6191e-06
-4.29335e-06
-4.27971e-06
-5.39373e-06
1.66418e-07
1.95101e-05
0.00011314
-3.4404e-06
-3.97881e-06
-5.32644e-06
-4.16132e-06
1.08231e-06
7.00074e-08
1.09383e-06
-7.83717e-06
3.99372e-07
-1.71055e-06
9.31477e-06
-7.39789e-06
-1.59756e-07
-4.63023e-07
8.01697e-06
1.36905e-06
-2.59944e-05
-2.98257e-06
5.39588e-07
8.55539e-07
2.62128e-05
1.15209e-05
1.43738e-05
0.000106867
-3.05237e-06
-3.19058e-06
-2.45721e-06
-1.79754e-06
6.59926e-06
1.34611e-05
0.000126101
2.09292e-06
2.16579e-06
0.000102035
2.19482e-06
2.28043e-06
2.28805e-06
1.64551e-06
3.0495e-06
1.65283e-06
-1.82134e-05
1.02451e-06
1.74203e-06
-1.86792e-06
1.94077e-05
-3.12036e-06
-5.58548e-07
-2.89572e-06
5.61433e-07
5.77135e-06
2.41853e-07
1.40441e-05
1.83963e-06
6.81203e-05
7.29387e-07
-4.05495e-07
9.95217e-07
-1.60208e-06
7.6541e-07
1.8104e-06
7.85598e-07
2.79989e-06
2.48123e-06
8.83559e-05
2.0231e-06
3.65026e-06
2.56044e-06
1.733e-06
2.56163e-06
1.96815e-06
-1.77657e-05
2.37193e-06
1.69516e-06
1.86643e-05
-3.86454e-06
5.65024e-07
-1.25779e-06
4.5573e-06
-3.06613e-06
1.26224e-06
4.03624e-07
3.23989e-06
-1.37591e-05
-2.38603e-07
-1.50376e-06
1.83756e-06
1.61451e-05
-4.53575e-06
-1.97394e-06
1.27192e-06
5.23778e-06
-6.71234e-06
2.6375e-06
-2.63983e-06
6.71467e-06
-1.25981e-05
-4.65417e-06
4.44879e-06
1.28034e-05
-2.44536e-06
5.05096e-06
-2.21122e-05
-5.53167e-06
3.23725e-06
2.18011e-05
-2.37128e-06
-2.5804e-05
6.2273e-06
-6.99529e-06
5.50937e-06
2.34339e-05
-4.53857e-05
-6.87903e-07
-1.23599e-06
5.48297e-06
3.68964e-05
4.93026e-06
-5.11872e-06
-1.49516e-06
-2.01897e-05
6.27527e-07
6.27077e-06
1.99053e-05
-5.90679e-06
2.02771e-05
0.00010764
-4.30761e-06
-5.07856e-06
-4.02769e-06
-3.66121e-06
2.1818e-07
-1.61987e-06
8.81049e-07
-1.01467e-06
-4.29899e-06
1.48598e-05
0.000166546
-5.15174e-06
-6.88484e-06
-3.54605e-06
-5.0811e-06
2.58153e-08
1.78001e-05
0.000108705
-7.16683e-06
-3.95668e-06
-5.51587e-06
-2.98405e-06
1.04401e-06
-1.87619e-07
1.07673e-06
-1.03407e-05
1.92181e-06
-2.95911e-06
1.14038e-05
-8.78145e-06
-9.76335e-07
3.08106e-07
9.45248e-06
2.05029e-06
-2.59851e-05
-4.71362e-06
1.78165e-07
3.48675e-06
2.49836e-05
1.27157e-05
1.21041e-05
0.000113065
-3.50915e-06
-2.41333e-06
-2.96582e-06
-1.85169e-06
1.00375e-05
1.12692e-05
0.00013237
3.07701e-06
1.43618e-06
0.000112181
2.88576e-06
3.3268e-06
3.03652e-06
1.03557e-06
2.00158e-06
8.91837e-07
-2.03947e-05
1.74604e-06
2.24098e-06
-2.3993e-06
2.1884e-05
-7.74557e-06
-2.2183e-06
-6.39226e-07
4.00569e-06
9.44867e-06
-2.85126e-06
1.3944e-05
1.63074e-06
6.58076e-05
5.59422e-07
-1.80588e-06
-3.98314e-07
-2.4778e-06
6.61757e-07
1.48e-06
8.22852e-07
3.24134e-06
2.08987e-06
9.29913e-05
2.51241e-06
4.19298e-06
2.78967e-06
1.77875e-06
2.15118e-06
1.82155e-06
-2.05144e-05
3.00225e-06
1.30064e-06
2.08891e-05
-5.58842e-06
8.19581e-07
-1.55779e-06
6.32663e-06
-3.73433e-06
1.59374e-06
-8.84755e-07
4.65608e-06
-1.80737e-05
8.80897e-07
-1.89495e-06
1.99202e-06
1.91856e-05
-6.24345e-06
-2.03369e-06
1.16915e-06
7.10799e-06
-6.53029e-06
1.85577e-06
-1.64731e-06
6.32184e-06
-1.27737e-05
-4.67129e-06
4.85443e-06
1.25905e-05
-2.4225e-06
4.65836e-06
-2.13176e-05
-4.83908e-06
3.07935e-06
2.08415e-05
-6.69161e-07
-2.14665e-05
4.73278e-06
-4.93432e-06
2.50793e-06
1.98292e-05
-2.90409e-05
4.13709e-07
-1.21065e-06
2.44338e-06
2.34546e-05
3.93987e-06
-5.41144e-06
2.99376e-08
-1.97863e-05
-1.1357e-06
6.64784e-06
1.96557e-05
-2.79823e-06
1.93757e-05
0.000107388
-4.06215e-06
-3.9756e-06
-3.86148e-06
-2.92689e-06
7.48511e-07
-1.87839e-06
8.09605e-07
-1.17942e-06
-1.67928e-06
1.21236e-05
0.000162103
-3.25871e-06
-3.34346e-06
-1.34172e-06
-8.55918e-07
1.48231e-08
1.05485e-05
0.000101241
-3.60537e-06
-1.41486e-06
-1.48243e-06
-6.8958e-07
1.2162e-06
-1.01535e-07
1.29956e-06
-1.21999e-05
2.83598e-06
-3.90997e-06
1.32887e-05
-1.00135e-05
-7.76927e-07
1.72328e-08
1.07731e-05
3.27919e-07
-2.35711e-05
-6.18649e-06
1.83156e-06
5.59208e-06
2.2006e-05
1.57395e-05
1.01614e-05
0.000118586
-3.88467e-06
-3.0707e-06
-2.89722e-06
-2.19352e-06
1.62141e-05
8.30472e-06
0.000135714
4.22477e-06
5.52165e-08
0.000122138
3.77846e-06
4.46202e-06
3.93733e-06
-4.55769e-08
6.09737e-07
-2.15947e-07
-2.33129e-05
2.41352e-06
2.65175e-06
-2.74656e-06
2.52189e-05
-1.09337e-05
-2.99842e-06
1.71537e-06
5.38513e-06
1.21327e-05
-5.30112e-06
1.4422e-05
7.15664e-07
6.86015e-05
-1.5012e-06
-2.91212e-06
-1.54387e-06
-3.10692e-06
3.54745e-07
4.77236e-07
4.61953e-07
3.49484e-06
1.58425e-06
9.62743e-05
2.64938e-06
4.34054e-06
2.80663e-06
1.51051e-06
1.55102e-06
1.50657e-06
-2.24639e-05
3.1262e-06
5.58394e-07
2.23294e-05
-7.21834e-06
6.15649e-07
-1.18968e-06
7.79237e-06
-5.82956e-06
7.83727e-07
-1.4388e-06
7.2003e-06
-2.02183e-05
1.32655e-06
-2.14233e-06
1.78122e-06
2.08372e-05
-7.96474e-06
-1.90679e-06
1.26314e-06
8.6084e-06
-6.19219e-06
1.56333e-06
-1.51073e-06
6.13959e-06
-1.21734e-05
-3.86694e-06
4.41277e-06
1.16276e-05
-2.04044e-06
4.37014e-06
-2.06376e-05
-5.04106e-06
2.67592e-06
2.0673e-05
8.2106e-07
-1.87139e-05
4.80155e-06
-4.39313e-06
-8.08526e-07
1.8293e-05
-2.00945e-05
1.83329e-06
-2.34644e-06
-1.24219e-06
1.8307e-05
3.54287e-06
-5.0783e-06
7.02293e-07
-1.95302e-05
-1.40898e-06
6.10898e-06
1.92062e-05
-1.68291e-06
1.96096e-05
0.000104679
-3.96416e-06
-3.44758e-06
-3.95847e-06
-2.20949e-06
7.81299e-07
-1.84912e-06
9.40388e-07
-1.51014e-06
-1.76239e-06
1.25184e-05
0.000149716
-9.27369e-07
-4.89569e-07
7.08678e-07
6.565e-07
-3.1466e-07
3.75616e-07
9.25038e-05
8.03273e-07
1.32574e-06
1.7586e-06
1.51015e-06
9.11838e-07
-3.41272e-07
9.45143e-07
-1.42841e-05
3.40067e-06
-4.6591e-06
1.52278e-05
-1.19572e-05
-1.30763e-06
-1.00029e-07
1.33648e-05
-4.98e-07
-2.07656e-05
-6.99521e-06
1.6999e-06
6.75907e-06
1.97998e-05
1.82818e-05
1.07896e-05
0.000121589
-3.56002e-06
-3.17843e-06
-3.02089e-06
-2.70612e-06
2.09353e-05
7.28141e-06
0.000138298
4.73127e-06
-7.6688e-07
0.000127146
4.23766e-06
4.91274e-06
4.27036e-06
-6.88118e-07
1.64273e-07
-5.58395e-07
-2.69588e-05
2.99894e-06
2.85238e-06
-2.53821e-06
2.8377e-05
-1.33659e-05
-2.47904e-06
2.09782e-06
5.5985e-06
1.44393e-05
-6.29066e-06
1.54303e-05
2.87488e-07
7.47757e-05
-2.6222e-06
-3.41161e-06
-2.56367e-06
-3.42562e-06
2.12258e-07
4.05698e-07
3.02708e-07
3.45377e-06
1.21484e-06
0.000100271
2.62642e-06
4.37016e-06