/*--------------------------------*- C++ -*----------------------------------*\
| =========                 |                                                 |
| \\      /  F ield         | OpenFOAM: The Open Source CFD Toolbox           |
|  \\    /   O peration     | Version:  5.x                                   |
|   \\  /    A nd           | Web:      www.OpenFOAM.org                      |
|    \\/     M anipulation  |                                                 |
\*---------------------------------------------------------------------------*/
FoamFile
{
    version     2.0;
    format      ascii;
    class       volScalarField;
    location    "5.3";
    object      p;
}
// * * * * * * * * * * * * * * * * * * * * * * * * * * * * * * * * * * * * * //

dimensions      [0 2 -2 0 0 0 0];

internalField   nonuniform List<scalar> 
10571
(
268.613
266.108
270.338
270.839
266.958
283.031
277.542
274.947
270.417
257.614
270.454
282.522
282.079
285.996
276.323
257.344
258.67
280.111
290.099
276.206
247.448
267.802
280.415
265.605
169.197
123.689
119.729
191.266
161.022
72.2478
43.4733
44.7934
42.5082
109.265
64.2388
58.7484
43.0158
87.1894
35.5524
87.2844
51.9718
18.844
57.575
65.7893
88.4523
43.3318
102.596
91.108
24.2009
22.3196
8.86187
12.8823
11.6833
12.472
9.5273
7.92452
9.28479
20.431
6.39512
7.1388
7.41509
12.1975
10.0917
10.187
6.13041
5.53758
8.03911
8.61977
11.0878
6.54812
7.00283
8.52822
9.19779
7.12852
9.09902
8.64068
8.95262
6.91748
8.1408
8.28182
8.57939
8.72405
7.3306
7.17011
6.87045
7.10017
9.81537
9.70614
7.41892
8.21947
7.27754
11.0807
9.1599
7.38622
7.45894
7.61241
7.22176
7.08468
6.74288
7.38257
7.35377
7.0636
6.84535
7.6988
7.27478
7.07677
7.12117
7.05627
6.89994
6.98883
7.03612
7.952
7.20566
7.19465
7.08865
6.65634
6.77219
7.2143
7.19359
7.16311
6.77385
7.04695
6.99659
6.74794
6.82884
7.01286
7.10429
7.10918
7.07312
6.94383
6.95151
7.05491
6.99715
6.86766
6.86557
6.92706
6.76078
6.65495
7.08723
6.99104
6.95079
6.83627
6.94327
7.06777
7.07545
7.08213
6.85094
6.99916
6.92153
6.85493
6.88286
6.98853
6.95181
6.90694
6.94554
6.88285
6.86089
6.99758
6.95284
6.85097
6.87219
6.93142
6.79711
6.63814
6.98962
6.99128
6.89211
6.84765
6.92472
6.71173
6.98402
7.01149
6.95249
6.89957
6.99503
6.9548
6.91961
6.93972
6.99262
6.92299
6.95608
6.8777
6.69999
6.67418
6.96625
6.90708
6.86389
6.88953
6.89653
6.73099
6.56199
6.95902
6.9713
6.8832
6.87688
7.01915
6.87581
6.97748
6.97089
6.91377
6.95472
7.00695
6.98442
6.95484
6.95923
6.99912
6.94448
6.94682
6.88803
6.80896
6.69519
6.97151
6.89929
6.87946
6.91788
6.88859
6.77496
6.72081
6.96748
6.98211
6.93433
6.87553
6.87123
6.9908
6.99558
6.93557
6.98865
7.01291
6.98171
6.97248
6.97401
7.00218
6.97314
6.96894
6.93397
6.95652
7.00259
6.93278
6.9043
6.94905
6.91225
6.79511
7.03293
6.99066
6.99529
6.87201
6.79977
7.00346
7.01497
6.9612
7.02349
7.01053
7.00789
7.03236
7.00135
6.98969
6.97857
6.99033
6.9619
6.99607
7.01212
6.94936
6.92864
6.96605
6.93032
6.83305
7.05231
6.99649
7.01052
6.93129
6.93694
7.05271
7.01327
7.03037
7.01338
6.99395
7.01157
7.04412
7.00269
6.9511
6.96769
6.98322
6.96775
7.02042
6.96554
6.91124
6.95459
6.97382
6.93971
6.90894
6.98418
6.99733
7.00013
6.98873
6.95114
7.00068
7.00578
7.0078
6.99579
6.98871
6.995
7.00057
6.97432
6.90811
6.95982
6.96637
6.96067
7.00899
6.92292
6.86148
6.98584
6.96559
6.94391
6.93202
6.92202
7.00412
6.98985
7.00337
6.96617
6.99366
7.00079
7.01485
6.98865
6.96528
6.97657
6.98394
6.96824
6.843
6.94354
6.94997
6.95003
6.99425
6.90317
6.8206
7.00747
6.95631
6.96128
6.95107
6.92829
6.99187
6.98001
6.98969
6.98011
6.99911
7.00156
7.02237
6.98437
6.89137
6.96116
6.97596
6.98054
6.75466
6.93776
6.93816
6.95173
6.98343
6.93571
6.85139
7.02561
6.96976
6.97921
6.97816
7.01598
6.98474
6.97481
6.96166
6.98818
7.00647
6.99772
7.0008
6.98268
6.85989
6.96098
6.97104
6.95981
6.72354
6.95495
6.94815
6.96331
6.97501
7.10838
7.04947
7.0301
6.99261
6.98517
7.00665
7.05949
6.98326
6.97983
6.92276
6.98963
7.01726
7.00303
6.93598
6.98826
6.95284
6.98161
6.97061
6.90983
6.91113
6.99632
6.98007
6.96968
6.98873
7.0816
7.0509
7.01723
7.00485
6.96875
7.01439
7.04633
6.99299
6.98896
6.92788
7.00057
7.03722
6.99579
6.90824
7.00505
7.01508
7.0034
6.98426
6.91817
7.01802
7.0309
6.99929
6.98853
7.00671
7.056
7.02164
7.01306
7.013
6.94704
6.97364
7.03785
6.99556
6.99153
6.95847
6.98605
7.03318
7.02294
6.96719
7.02685
7.02807
7.01364
7.00856
7.01218
7.0204
7.02521
7.00902
6.99843
6.99742
7.04058
7.01734
7.01497
6.99988
6.95777
6.91368
7.03399
7.00352
6.98051
6.97819
6.95271
7.02331
7.02119
7.02431
7.04236
7.03322
7.01712
7.02462
7.05694
7.01499
7.0168
7.02473
7.02574
7.05373
7.0436
7.02507
7.01776
6.99304
6.95886
6.87532
7.03722
7.02048
6.99656
7.0153
6.96325
7.02124
7.01894
7.04409
7.0487
7.03848
7.01906
7.03143
7.06256
7.02113
7.01277
7.0431
7.05729
7.06492
7.0478
7.03388
7.02073
7.02068
7.02027
6.98263
7.03735
7.03883
7.02535
7.06579
7.17231
7.02342
7.02079
7.06481
7.04935
7.04264
7.01916
7.03262
7.05669
7.02842
7.00567
7.04684
7.06459
7.08239
7.05104
7.0414
7.01396
7.03511
7.01423
7.05789
7.03879
7.04651
7.0066
7.04453
7.19581
7.03031
7.01613
7.07407
7.04808
7.04499
7.01738
7.03143
7.05986
7.03529
6.99806
7.03159
7.04109
7.06242
7.05334
7.04581
7.01178
7.03351
6.98636
7.03197
7.04316
7.04413
7.03658
7.0015
7.07815
7.03567
7.0303
7.04992
7.04456
7.04694
7.0151
7.02361
7.05647
7.04132
6.99532
7.01441
7.0173
7.04193
7.05787
7.04702
7.02193
7.03403
6.97749
7.02081
7.05619
7.04818
7.09792
7.03442
7.04461
7.03825
7.04684
7.0512
7.03934
7.052
7.01767
7.01263
7.03769
7.04832
7.00199
7.00339
6.99219
7.02884
7.06804
7.04841
7.02651
7.05471
6.99242
7.00525
7.06586
7.04574
7.1087
7.06222
7.02525
7.04075
7.04989
7.05134
7.04022
7.06164
7.03015
7.01315
7.02908
7.06036
7.02309
7.01201
7.00185
7.02921
7.08598
7.05467
7.03352
7.05656
7.02587
7.00941
7.06581
7.03545
7.06804
7.04749
7.01546
7.04352
7.04454
7.04601
7.05452
7.07492
7.05111
7.03646
7.04375
7.07215
7.04967
7.03898
7.03111
7.04679
7.10582
7.07034
7.06074
7.07435
7.07247
7.04733
7.06765
7.03184
7.03974
7.0343
7.03551
7.0554
7.04621
7.04994
7.07564
7.08699
7.07139
7.0653
7.06876
7.08294
7.06509
7.05194
7.03372
7.04678
7.10835
7.08356
7.08629
7.10726
7.10045
7.06323
7.07665
7.04067
7.04292
7.03747
7.05183
7.06593
7.05655
7.06313
7.08982
7.09361
7.08531
7.08161
7.08396
7.09051
7.07732
7.0574
7.02648
7.03978
7.10483
7.09403
7.08048
7.10017
7.0756
7.05017
7.08571
7.06229
7.05686
7.04749
7.05322
7.06652
7.06515
7.07515
7.09596
7.09532
7.09339
7.08349
7.08494
7.09357
7.08378
7.07093
7.0395
7.0462
7.10268
7.09846
7.09205
7.08413
7.05439
7.0386
7.09482
7.07469
7.06759
7.05553
7.05284
7.0596
7.07024
7.08056
7.10008
7.09239
7.09547
7.08643
7.08599
7.09273
7.08549
7.07465
7.05161
7.05721
7.09825
7.09684
7.08902
7.07378
7.04809
7.03447
7.09707
7.07912
7.07428
7.06401
7.05803
7.05823
7.07432
7.08526
7.10189
7.08366
7.09173
7.09011
7.08946
7.08802
7.08438
7.07338
7.05538
7.06997
7.09576
7.09351
7.08452
7.06507
7.04933
7.0416
7.09979
7.08207
7.07586
7.07175
7.06918
7.0725
7.09549
7.09215
7.09934
7.07094
7.07601
7.08726
7.09009
7.08363
7.07753
7.06787
7.05324
7.07558
7.09386
7.08973
7.07694
7.06112
7.05323
7.05667
7.09431
7.08451
7.07713
7.07799
7.08122
7.09054
7.09792
7.09476
7.08634
7.06661
7.0525
7.07449
7.08661
7.08192
7.07199
7.05861
7.04851
7.0759
7.08925
7.0844
7.07483
7.06344
7.05871
7.07889
7.08879
7.08445
7.07728
7.08268
7.09152
7.0917
7.09484
7.09324
7.07295
7.08222
7.03668
7.06075
7.08261
7.08046
7.07892
7.05838
7.0611
7.07962
7.08677
7.07412
7.07531
7.06894
7.06989
7.0984
7.08541
7.08232
7.07837
7.08815
7.10115
7.08999
7.09079
7.09199
7.08068
7.0954
7.06444
7.06465
7.08213
7.07902
7.08176
7.07351
7.08126
7.09972
7.08362
7.06902
7.07764
7.07299
7.08337
7.10395
7.08627
7.08441
7.08252
7.09453
7.10657
7.09262
7.09172
7.09365
7.08372
7.09305
7.08323
7.06859
7.08285
7.07369
7.08154
7.06885
7.08755
7.13937
7.08818
7.07658
7.08291
7.07773
7.09342
7.11503
7.09189
7.08977
7.08634
7.0978
7.10708
7.09835
7.09604
7.09721
7.10348
7.08572
7.08588
7.08192
7.10322
7.07392
7.07987
7.06753
7.07612
7.11584
7.09534
7.08556
7.08987
7.08274
7.10071
7.11211
7.0992
7.09616
7.09029
7.0991
7.10566
7.10622
7.10218
7.10112
7.12654
7.08415
7.08383
7.10242
7.14749
7.07998
7.08297
7.08611
7.08572
7.11356
7.10171
7.09272
7.09615
7.0918
7.10742
7.1123
7.10495
7.10147
7.09595
7.1024
7.10811
7.11286
7.10968
7.10528
7.11304
7.08715
7.07564
7.09875
7.14034
7.08934
7.09149
7.09481
7.10042
7.11603
7.10488
7.09496
7.09879
7.10158
7.10886
7.11582
7.10815
7.10516
7.10156
7.10665
7.11283
7.11721
7.11686
7.11034
7.09003
7.09421
7.05655
7.06422
7.09209
7.09911
7.09681
7.09365
7.09699
7.11309
7.10591
7.09644
7.09691
7.10323
7.10933
7.1179
7.11011
7.10712
7.10788
7.11287
7.12014
7.11779
7.12091
7.11656
7.08998
7.10333
7.08041
7.05736
7.08672
7.10458
7.10504
7.09849
7.08037
7.11161
7.10589
7.09744
7.08577
7.10104
7.11133
7.11882
7.10716
7.10861
7.11437
7.11687
7.12763
7.11599
7.12197
7.12412
7.10533
7.10934
7.11186
7.09622
7.10131
7.09366
7.11857
7.10744
7.08612
7.1205
7.10671
7.09628
7.08876
7.10246
7.11347
7.12051
7.09877
7.10508
7.11888
7.11997
7.13345
7.11337
7.11906
7.12891
7.11242
7.1125
7.11395
7.10792
7.10712
7.1095
7.11457
7.10116
7.09093
7.12792
7.11367
7.09981
7.09078
7.09892
7.10442
7.11557
7.09888
7.09544
7.11562
7.1156
7.13221
7.1086
7.11469
7.12755
7.10928
7.11619
7.11017
7.10087
7.10028
7.12317
7.10408
7.08737
7.0761
7.11808
7.12986
7.11891
7.08928
7.08556
7.08649
7.09673
7.10489
7.09051
7.10735
7.10478
7.11975
7.10401
7.10806
7.11838
7.10469
7.11446
7.104
7.09268
7.08994
7.12069
7.09147
7.07417
7.05326
7.09441
7.1325
7.12475
7.08418
7.07414
7.06911
7.0786
7.11819
7.09119
7.10076
7.0948
7.10391
7.1004
7.1021
7.10695
7.09653
7.11046
7.09822
7.08646
7.08625
7.11333
7.08889
7.06797
7.04485
7.07379
7.1223
7.1161
7.07525
7.06938
7.06162
7.06755
7.12422
7.09
7.0971
7.09088
7.09332
7.09956
7.10043
7.09979
7.0902
7.10744
7.09567
7.08128
7.08474
7.10813
7.09198
7.0714
7.05217
7.06259
7.11125
7.10532
7.07411
7.07624
7.06136
7.06127
7.09997
7.0858
7.09679
7.09281
7.09036
7.09552
7.09909
7.09941
7.09592
7.10765
7.09846
7.08315
7.08573
7.10669
7.09735
7.07881
7.06383
7.06142
7.10437
7.09818
7.07855
7.0886
7.07343
7.06739
7.07078
7.09329
7.10125
7.09788
7.09478
7.09518
7.10004
7.10228
7.1074
7.11117
7.10565
7.08958
7.0948
7.10877
7.10468
7.08647
7.08196
7.07144
7.10488
7.0991
7.09045
7.09737
7.08755
7.08568
7.06896
7.10552
7.10488
7.1038
7.10319
7.09965
7.10335
7.10612
7.11975
7.11702
7.11458
7.09598
7.10777
7.11358
7.11198
7.0936
7.1016
7.09479
7.11135
7.10704
7.10401
7.10366
7.10317
7.10364
7.09193
7.11101
7.11055
7.10551
7.11021
7.10746
7.10864
7.11002
7.13068
7.12314
7.12359
7.10391
7.11899
7.11966
7.11909
7.10065
7.11275
7.11487
7.11935
7.11629
7.11457
7.11023
7.11752
7.11949
7.1133
7.11656
7.11364
7.10525
7.11862
7.11773
7.11488
7.1142
7.14059
7.12848
7.13046
7.11565
7.12562
7.12534
7.12516
7.10703
7.1172
7.12705
7.12736
7.12508
7.12175
7.11555
7.12163
7.13004
7.12296
7.12236
7.11668
7.11468
7.12662
7.1215
7.12144
7.11922
7.14689
7.13263
7.13465
7.13051
7.12656
7.13077
7.13006
7.11269
7.11833
7.12933
7.13467
7.13288
7.12664
7.11846
7.12432
7.1302
7.13012
7.1281
7.12507
7.1275
7.13243
7.12344
7.1269
7.1262
7.14715
7.1376
7.13818
7.13841
7.1234
7.136
7.13338
7.11612
7.11681
7.12651
7.14165
7.14001
7.13092
7.11967
7.11947
7.12247
7.13841
7.13525
7.12839
7.12605
7.12714
7.13279
7.12967
7.12651
7.14124
7.14399
7.14105
7.13867
7.11974
7.14314
7.13744
7.11718
7.10782
7.11587
7.14937
7.14694
7.13467
7.1181
7.1103
7.11394
7.14787
7.13968
7.12642
7.11623
7.12036
7.14241
7.13045
7.12231
7.13399
7.15643
7.14619
7.13372
7.10982
7.15266
7.14393
7.11673
7.09238
7.10269
7.1594
7.15516
7.14055
7.11486
7.09478
7.10093
7.15892
7.14509
7.12267
7.10498
7.10563
7.14841
7.13145
7.11803
7.13131
7.16491
7.14799
7.12927
7.09413
7.16891
7.15036
7.11459
7.07245
7.08369
7.17361
7.16839
7.1487
7.11136
7.07783
7.08025
7.17304
7.15497
7.11921
7.09641
7.09052
7.15507
7.13214
7.115
7.13581
7.17727
7.15639
7.12729
7.07622
7.18616
7.15855
7.11023
7.04898
7.04999
7.19254
7.18545
7.16008
7.10759
7.0524
7.04891
7.19235
7.17257
7.12491
7.08779
7.07295
7.17674
7.14597
7.11908
7.15
7.1985
7.17472
7.13496
7.06328
7.20606
7.17274
7.10339
7.00644
6.98513
7.2223
7.21018
7.17564
7.10002
7.01667
6.97823
7.21931
7.19563
7.13551
7.07746
7.04266
7.20345
7.16835
7.12928
7.17915
7.22472
7.20267
7.15356
7.06036
7.23041
7.19218
7.0887
6.93168
6.84307
7.25098
7.23864
7.19463
7.08965
6.94631
6.80227
7.25438
7.22464
7.1472
7.05408
6.97395
7.23145
7.19499
7.13916
7.22459
7.25484
7.23526
7.18281
7.0643
7.26102
7.21726
7.0711
6.83213
6.45256
7.28209
7.27277
7.21858
7.07187
6.84462
6.33432
7.29995
7.26217
7.15589
7.02878
6.81867
7.26878
7.21458
7.15578
7.27519
7.29126
7.26882
7.22321
7.09032
7.29816
7.25511
7.05218
6.72583
5.37017
7.31861
7.31161
7.24264
7.05993
6.72251
5.58818
-3.48128
7.3482
7.30302
7.17107
6.97976
6.41631
7.31393
7.23768
7.17711
7.30336
7.33291
7.30955
7.26246
7.11664
7.33938
7.29632
7.11329
6.71111
4.78243
0.12513
7.35083
7.34631
7.26733
7.09421
6.70356
5.51388
0.469667
7.40427
7.33258
7.19487
6.96041
5.79988
7.35723
7.26647
7.20639
7.33628
7.38061
7.35513
7.30033
7.17278
7.37031
7.32063
7.15932
6.8592
5.50673
1.48951
7.36153
7.34052
7.28139
7.14118
6.84627
5.54359
1.64364
7.41173
7.33982
7.22211
7.03811
6.12467
1.92501
7.38963
7.29389
7.25394
7.36549
7.42392
7.38712
7.31694
7.23411
7.39385
7.33566
7.1957
7.01216
5.98253
1.73632
7.35483
7.30737
7.28707
7.19549
7.05678
6.08382
1.4259
7.37907
7.32298
7.26747
7.13872
6.42499
7.38679
7.31496
7.30345
7.38136
7.45525
7.41229
7.31366
7.26755
7.42373
7.34508
7.21692
7.10739
6.70796
7.37134
7.31939
7.28733
7.2538
7.20605
6.59863
-1.88871
7.37121
7.31099
7.31152
7.25981
7.14582
7.36804
7.33288
7.34223
7.37829
7.44447
7.38822
7.28352
7.23893
7.40725
7.30723
7.20001
7.14764
7.1887
7.39
7.33927
7.27559
7.2688
7.28331
7.27448
7.36111
7.31735
7.3113
7.31645
7.35156
7.36375
7.33893
7.35324
7.30851
7.39825
7.32504
7.21252
7.13278
7.34911
7.20534
7.10842
7.14216
7.23315
7.36296
7.30533
7.22129
7.22858
7.27141
7.35944
7.32995
7.28839
7.2738
7.29981
7.3519
7.34136
7.31461
7.3358
7.18713
7.33214
7.24464
7.09257
6.94097
7.27296
7.12097
7.0315
7.08672
7.18357
7.30885
7.2487
7.1593
7.18092
7.23453
7.3406
7.28369
7.24438
7.24445
7.27255
7.32755
7.30499
7.28717
7.31436
7.18956
7.28827
7.21243
7.09756
6.99856
7.21526
7.08926
7.05076
7.11142
7.1941
7.24745
7.19687
7.10647
7.15941
7.21905
7.32229
7.22832
7.20172
7.23227
7.25777
7.31582
7.2673
7.26731
7.3018
7.27444
7.28952
7.24481
7.18197
7.14352
7.2044
7.11844
7.12656
7.16899
7.24115
7.20187
7.16705
7.09342
7.16841
7.23568
7.32624
7.17571
7.16962
7.23894
7.26818
7.32716
7.23807
7.26554
7.30255
7.37624
7.32236
7.3039
7.27866
7.29351
7.22026
7.16318
7.19567
7.26274
7.33471
7.16158
7.14407
7.1151
7.20559
7.28883
7.35971
7.1404
7.17023
7.26742
7.30075
7.3574
7.23266
7.28644
7.32648
7.47417
7.37179
7.36383
7.34895
7.38281
7.2438
7.22569
7.23621
7.30804
7.39336
7.16992
7.14731
7.15412
7.20415
7.30132
7.39566
7.14307
7.1783
7.28047
7.34116
7.39956
7.27716
7.34101
7.37858
7.52901
7.43227
7.40989
7.39306
7.41839
7.29197
7.25484
7.26323
7.32005
7.40695
7.24014
7.17135
7.18117
7.24485
7.33346
7.41504
7.168
7.22928
7.32225
7.37162
7.42713
7.34395
7.39712
7.42463
289.701
282.268
286.524
282.415
284.081
284.271
287.996
284.686
310.06
300.285
298.034
308.353
295.599
286.417
277.669
287.148
285.078
278.08
280.025
284.06
281.733
282.802
285.12
278.678
290.644
291.983
325.059
338.032
341.088
314.29
301.6
331.155
321.586
302.473
298.191
317.694
307.427
293.394
290.119
306.156
301.064
285.9
289.659
294.862
295.964
302.742
309.651
301.092
349.852
356.707
355.415
343.833
337.147
345.257
337.362
328.554
316.043
332.97
322.648
320.109
313.134
329.05
318.703
303.542
301.978
307.666
307.65
313.628
301.756
310.396
338.109
342.683
337.523
322.658
330.908
333.181
326.484
333.471
327.937
327.976
316.167
323.422
312.896
308.528
308.577
308.251
298.204
301.353
317.567
327.62
329.165
318.666
320.467
309.689
314.68
301.224
266.358
213.601
268.469
267.868
270.947
249.019
228.343
250.043
271.247
269.265
250.023
252.775
246.537
266.883
243.075
270.993
193.974
268.846
271.883
276.667
201.586
209.329
199.018
215.135
264.146
268.491
265.094
246.822
235.295
253.118
229.911
260.201
210.695
276.167
276.023
284.682
187.074
170.245
178.144
259.546
242.899
191.747
181.453
164.879
278.305
262.315
160.219
162.549
146.868
239.892
248.536
172.826
160.364
165.279
257.565
145.384
262.951
255.938
263.631
143.5
122.243
148.74
155.561
260.857
266.805
256.214
196.416
182.596
193.312
180.567
167.406
261.206
158.128
277.457
269.477
165.403
183.677
189.238
274.02
273.25
209.266
214.377
206.571
199.422
134.318
63.9466
160.143
141.61
157.925
68.0007
56.0889
58.3041
172.014
169.955
81.9982
83.2433
79.0737
160.735
64.5137
108.29
43.8399
122.661
109.111
84.2453
59.1261
50.053
46.6073
35.6229
137.907
158.904
129.201
55.6414
30.138
48.0924
29.48
120.971
44.2846
93.1494
66.2519
76.9029
21.9815
8.31036
9.75883
94.0598
87.2342
51.1998
27.5923
30.2834
68.5536
56.3565
8.79026
10.6722
9.14405
83.9295
85.8244
19.946
27.5594
22.6397
55.0255
8.08016
21.9058
43.8906
49.3948
9.47791
12.6123
7.48959
9.7205
89.9486
78.6339
88.4833
12.2636
17.3218
11.588
15.4243
25.5124
35.7857
7.52223
66.8538
74.0523
7.26277
8.39109
8.02181
113.806
98.3345
19.9143
34.1276
10.8863
16.7472
24.9757
12.0879
23.4233
18.4627
19.4741
11.5556
10.7255
10.8376
19.3704
18.776
10.0655
8.78016
9.24798
14.4733
8.72349
10.5453
7.14656
18.2867
13.7296
17.6008
8.18473
9.11771
7.01305
8.42733
10.431
13.0843
10.2684
8.40923
9.31456
8.30863
8.83494
15.3305
9.61416
7.17407
6.15711
5.91217
7.17587
7.77407
7.76545
13.6134
13.1842
10.9581
11.8424
11.4663
6.38598
6.47282
7.71339
7.69023
7.97999
11.0674
10.4962
10.1199
9.98038
9.63495
6.73251
7.77907
9.59672
6.39785
6.14607
7.51052
6.1567
7.40431
6.96645
9.22769
7.90866
8.40234
11.7849
10.8589
10.2669
10.326
10.5415
6.78302
7.42379
6.26639
6.27207
7.42317
7.5507
7.5395
9.28406
6.64454
7.46395
7.26865
7.70496
9.62425
7.74328
6.93995
9.49639
8.22739
9.66989
7.51382
6.95607
7.46955
8.87567
9.28352
8.04875
8.17686
8.37133
9.1336
8.26263
7.28714
7.2469
6.94173
7.40196
6.85923
7.19759
6.9461
7.2545
7.10079
9.09135
8.2742
8.53778
8.172
8.05967
7.73554
7.69366
8.6443
7.49834
7.22254
7.40849
7.40399
7.20726
7.23011
7.22304
10.5596
10.763
7.3973
8.1603
8.87332
7.30656
7.57271
7.16699
7.15846
7.33148
9.61751
8.90934
8.91519
8.72172
7.86425
7.38846
7.28272
6.87243
7.36528
7.19052
7.29071
7.20107
7.29444
7.18296
10.1782
8.60419
9.12406
7.40552
7.13178
6.93218
7.31057
6.99646
7.3326
7.24348
7.43096
7.38003
7.31143
7.34223
7.35674
7.18429
7.46734
7.30975
7.16527
7.31444
7.07696
6.92699
6.9818
6.83402
6.83386
6.79332
6.88647
6.94185
6.91049
7.39404
7.68136
6.85236
6.88974
7.16777
7.53297
7.03844
7.16193
7.11395
6.94899
7.137
6.99741
7.0795
7.00673
7.09562
6.99946
7.15162
7.31797
7.15148
6.96805
6.86912
7.16868
6.9339
7.03139
6.88493
7.13601
7.18761
7.14852
7.08209
7.1377
7.10558
6.98904
7.16963
7.01686
6.88795
6.94205
7.10967
7.27396
7.08391
7.07146
7.23625
7.8886
7.13718
7.15763
6.66084
6.86162
7.24169
7.17475
7.11672
7.21374
7.14459
7.14746
7.03757
7.14579
7.09042
6.40772
6.84813
6.79921
6.95906
6.76314
6.97514
6.91921
7.03318
7.18999
7.1433
7.2552
7.27008
7.12872
7.17327
7.18342
7.14581
7.21016
7.12734
7.10168
7.13859
7.16418
6.96406
6.96899
6.85288
6.87878
6.86571
6.86057
6.90272
6.86708
6.74702
6.76206
6.81913
6.80521
6.75496
6.81797
6.80221
7.07966
7.04661
6.99271
7.06452
6.99079
7.01622
6.9849
7.03094
6.97979
6.85019
7.04402
6.90002
6.81388
6.89841
6.88998
6.93055
6.86846
6.94575
7.06056
7.09399
7.07383
7.04006
7.05948
7.03531
7.04692
6.84867
6.88891
6.94737
7.01536
6.83279
6.97094
7.06593
6.74405
6.81247
6.90688
7.08505
6.72483
6.85281
7.04124
7.17681
7.0248
7.00858
7.10798
7.09535
6.68415
6.4145
6.81253
6.87427
6.71844
6.77035
6.7792
6.61387
6.71287
6.68834
6.80204
6.70964
6.77146
7.10426
7.05349
7.00261
7.08702
7.05069
7.03249
6.99295
7.04329
7.02048
6.72741
6.95537
6.92036
6.8332
6.78668
6.91786
6.90393
6.84108
7.10314
7.07043
7.11797
7.11703
7.01808
7.07402
7.06803
7.05567
7.07541
7.04188
7.02349
7.03749
7.00141
6.97278
6.97314
6.88059
6.90807
6.88668
6.89331
6.91909
6.89611
6.84329
6.8486
6.87201
6.86539
6.83902
6.8643
6.88483
7.02045
7.00719
6.98181
7.00634
6.96797
6.99378
6.98169
6.99471
6.95628
6.94567
6.81789
6.93334
6.92237
6.95391
6.82603
6.88585
6.969
7.02664
6.87677
6.91874
6.912
7.13116
6.84641
7.124
7.01842
7.02703
7.00048
7.00737
7.00458
6.9777
6.96396
6.84018
6.87215
6.74142
6.82798
6.79598
6.82707
6.99322
6.67683
6.77642
6.723
6.95439
6.54076
6.77858
6.97952
7.04272
6.97723
6.95739
6.99708
6.85182
6.81499
6.86502
6.73674
6.83236
6.82447
6.84693
6.77977
6.61086
6.71497
6.5367
6.77188
6.57348
6.76399
7.01384
6.98454
6.9702
7.01653
6.99386
6.96556
6.96553
7.00085
6.98394
6.81858
6.90288
6.89944
6.86309
6.84435
6.89125
6.89383
7.09205
6.98949
7.27605
6.73574
6.74483
6.79857
7.04181
7.02033
7.0472
7.0375
6.97239
7.03179
7.02133
6.99408
7.01054
6.98586
6.97855
6.98886
6.92544
6.97754
6.98213
6.90641
6.9389
6.90389
6.92004
6.95036
6.9157
6.8916
6.88506
6.92843
6.92542
6.9154
6.91854
6.94394
7.00331
7.00518
6.98844
6.99342
6.9566
6.99883
6.99761
6.99751
6.96637
6.94741
6.87451
6.88292
6.95148
6.94932
6.91663
6.90824
6.88652
6.88108
6.92192
6.7787
6.83071
7.09539
6.80228
7.10267
7.00847
6.99381
6.96526
7.01018
6.98732
6.95469
6.77141
6.77831
6.79264
6.74191
6.6824
6.77549
6.76425
6.95844
6.51216
6.79421
6.67817
6.9999
6.50902
6.83931
6.94532
6.97651
6.96498
6.9462
6.9751
6.80288
6.81731
6.89325
6.75718
6.80821
6.84068
7.01409
6.77117
6.60044
6.75664
6.61317
6.82934
6.73454
6.96016
6.97012
6.96755
6.96984
6.99474
6.97745
6.96023
6.96727
6.99526
6.97789
6.87371
6.87976
6.8936
6.8811
6.88806
6.87197
6.8804
7.37422
6.97408
7.43942
6.88125
7.05781
7.00139
7.00196
6.98827
7.02054
7.01224
6.98227
7.02183
7.01199
6.9792
6.97975
6.97844
6.99822
6.98272
6.91973
6.98793
6.99705
6.93844
6.95962
6.93361
6.96206
6.97765
6.95707
6.95723
6.94961
6.97338
6.97927
6.9771
6.96529
6.98595
7.00786
7.00922
7.0016
6.99995
6.97926
7.01265
7.00201
6.99831
6.99055
6.95972
6.95046
6.93424
6.96562
6.97064
6.98047
6.94918
6.9586
6.96467
7.00908
6.98138
6.94592
7.00832
6.9815
6.94885
6.78298
6.83616
6.83146
6.85396
6.84111
6.94639
6.85826
7.10794
6.58458
6.98198
6.81577
7.12181
6.84671
7.02973
6.95836
6.99032
6.98556
6.97661
7.01824
6.8296
6.87396
7.24654
6.81064
6.89137
6.89855
7.40803
7.00975
6.93177
7.0663
6.90541
7.12425
7.05348
7.1164
6.97471
7.00999
6.95308
7.00067
6.98376
6.98862
6.93971
7.01338
6.99803
6.88371
6.87402
6.86885
6.86684
6.8883
6.88817
6.87535
6.7279
6.98977
7.00202
7.01979
7.01473
6.99696
7.00848
7.01061
7.00774
6.98391
7.01003
7.02324
7.01192
6.95194
7.00769
7.01479
6.99303
6.99636
6.98974
7.01626
7.01017
7.01791
6.99274
6.99528
7.00667
7.00838
7.00893
6.99947
7.01011
7.00942
7.00771
7.00541
6.99544
6.99561
7.01366
7.0088
6.99109
6.99405
6.97967
7.00803
6.95906
6.98728
6.99186
7.02262
6.9721
7.01223
7.05185
7.01024
6.99124
6.96025
7.0131
7.00115
6.97379
7.04196
7.09323
6.99219
7.01887
6.93295
6.99851
7.03861
7.01289
7.0129
7.04654
7.0517
6.89124
6.786
6.61369
6.90084
7.04941
7.06437
6.96993
7.05658
7.02913
7.06336
7.00645
7.09007
7.08258
6.91361
6.9103
6.90336
6.89478
6.94067
6.94097
6.93703
6.90051
7.01147
7.06665
7.00053
6.99635
7.03074
7.01431
7.00214
7.03935
7.03259
7.0179
7.0509
7.02471
7.00292
7.01614
7.0103
7.02318
7.01496
7.02224
7.02043
7.01356
7.01814
7.02584
7.01656
7.0235
7.02348
7.0136
7.01617
7.01215
7.00276
6.9927
7.00806
6.98114
6.98895
7.00189
7.00213
6.96798
6.98155
7.00343
7.01724
6.97855
7.00855
7.00955
7.00448
6.98296
7.06149
7.04201
7.01182
7.00966
6.98482
6.99796
7.01205
6.98317
7.00685
6.99531
7.00663
7.00492
6.99979
7.01129
7.02967
6.9947
6.9899
6.98364
6.83418
6.90549
6.87994
6.90948
6.90707
7.04902
7.0021
7.02539
7.07887
7.10502
7.0216
7.02506
7.05409
7.09006
6.95801
6.97748
6.96894
6.96908
6.97237
6.98807
6.98598
6.94413
7.12085
7.1054
7.02264
7.01042
7.03301
7.00755
7.00758
7.04017
7.01536
7.00692
7.02402
7.01207
7.02021
7.00105
6.99212
7.01454
7.00853
7.01193
7.007
7.00049
7.00534
7.00864
7.00332
7.0027
6.99915
6.99291
7.00181
6.98921
6.98107
6.97342
6.99348
6.95425
6.97449
6.9899
6.9875
6.94518
6.96781
7.0093
6.99151
6.98896
6.98919
7.00208
6.97526
6.98392
7.02666
7.01548
6.9786
6.99758
6.96699
6.9634
6.97805
6.94887
7.00179
6.99346
7.01955
6.99819
6.99104
6.95391
6.93095
6.93991
6.9217
6.89866
6.92829
6.9116
6.92406
6.94393
6.9172
6.94598
6.90679
7.00617
7.02348
7.05588
6.94881
6.98666
6.99478
7.02579
6.97939
6.98735
6.99039
7.00197
6.98512
6.99877
6.9919
6.95896
7.05139
7.0226
6.99956
7.00152
6.99138
6.99863
6.9994
7.01565
7.0045
7.00128
7.01189
7.00183
7.00865
6.98429
6.97685
7.00007
6.99267
6.99913
6.99386
6.98605
6.99336
6.99398
6.9875
6.99151
6.99067
6.98777
6.97815
6.97428
6.97105
6.95855
6.98051
6.943
6.95848
6.98336
6.97377
6.93598
6.9535
6.98982
6.95748
6.97204
6.96625
6.97913
6.94217
6.96203
7.00474
6.99049
6.94247
6.96252
6.92595
6.91125
6.93682
6.88954
6.99449
6.98978
6.99855
6.99152
6.98059
6.89981
6.88869
6.90891
6.88617
6.89524
6.95163
6.92417
6.93976
6.9567
6.93281
6.89387
6.90785
6.96801
6.9731
7.00459
6.9149
6.95854
6.96329
6.99358
6.98769
7.01673
6.99883
6.99631
6.99344
7.02384
7.00653
6.97357
7.00885
7.00449
6.99616
6.99856
6.99645
6.99692
6.99959
7.00863
7.00192
7.00105
7.00952
7.00246
7.02089
6.97145
6.96398
6.98886
6.98043
6.98773
6.98589
6.97556
6.98291
6.98809
6.99043
6.9864
6.98514
6.99149
6.97853
6.98494
6.93079
6.88527
6.96617
6.91185
6.95219
6.93449
6.95324
6.87114
6.94056
6.97331
6.93147
6.95328
6.97512
6.97412
6.92817
6.95498
6.98698
6.98346
6.88373
6.90133
6.8541
6.8551
6.871
6.82652
6.98693
6.97387
6.99108
6.98372
6.97086
6.8829
6.91559
6.91344
6.89834
6.94813
6.96293
6.95013
6.96494
6.97495
6.96947
6.94348
6.99806
6.95933
6.96692
6.99112
6.96576
6.97283
6.98315
6.99037
6.99655
7.02174
7.00916
6.97809
6.99685
7.01003
7.00111
6.9848
7.00258
7.00239
6.99885
7.00115
7.00109
7.00035
7.00264
7.01595
7.00367
6.99845
7.01787
7.00079
7.01665
6.95757
6.9557
6.98459
6.97249
6.97931
6.98647
6.97231
6.97823
6.982
6.98929
6.98298
6.97891
6.9836
6.98855
6.98396
6.83841
6.80533
6.94035
6.82038
6.92142
6.85101
6.93288
6.78293
6.90375
6.97631
6.934
6.96016
6.97471
6.97023
6.94272
6.96168
6.97605
6.96851
6.82292
6.83879
6.80005
6.79228
6.83418
6.77961
6.97894
6.97209
6.97536
6.97462
6.97878
6.92754
7.00896
7.03262
7.00245
7.11811
6.98517
6.98124
6.99345
7.00512
6.99001
7.0652
7.1008
6.98899
7.00304
6.99238
7.05221
7.00198
7.02383
6.99473
6.99374
6.97879
6.97978
6.93446
6.98781
6.93393
6.95148
6.98844
7.00617
7.01228
7.00587
7.00584
7.01284
7.01375
7.01467
7.03194
7.00178
7.00014
7.03968
7.00646
6.97658
6.96043
6.97268
6.99104
6.97661
6.98015
6.99698
6.98458
6.98442
6.97642
6.97505
6.98431
6.97577
6.96829
6.97147
6.95125
6.7969
6.83188
6.93277
6.78763
6.90555
6.90358
6.94666
6.84278
6.91685
6.9526
6.94189
6.95321
6.93567
6.93011
6.9243
6.92918
6.96043
6.95269
6.78066
6.91913
6.83321
6.81873
6.9599
6.91482
6.96967
6.98143
6.98159
6.96675
6.97855
7.06334
7.17488
7.10608
7.09928
7.1425
7.01264
7.01542
7.01521
7.02782
7.05563
7.10313
7.09174
7.01589
7.03474
7.00571
7.0546
7.02011
7.03782
7.01699
6.98209
6.88941
6.93056
6.91975
6.97576
6.85473
6.92016
6.9968
7.01858
7.02691
7.01538
7.01684
7.02763
7.01911
7.02095
7.02282
7.00787
6.99552
7.00248
6.99462
6.9045
6.98815
7.00308
7.00362
6.99439
6.9905
7.01043
7.00372
6.99768
6.97807
6.96721
6.99528
6.98492
6.97439
6.92963
6.92967
6.89595
6.96195
6.96992
6.91245
6.94559
6.99128
6.99198
6.97063
6.97651
6.9078
6.90072
6.90269
6.89664
6.89221
6.87444
6.88352
6.94519
6.93584
6.9036
6.99858
6.97013
6.99164
7.05116
7.02239
6.97193
6.97909
7.00072
6.98194
6.98331
7.10071
7.09527
7.06834
7.07279
7.06893
7.02901
7.05386
7.00021
7.00911
7.01897
7.07249
7.05829
7.02027
7.03648
7.02416
7.04046
7.0191
7.03287
7.02012
6.97633
6.86628
6.92027
6.94329
6.97652
6.90346
6.9394
6.99612
7.03291
7.03161
7.03103
7.03241
7.03942
7.04133
7.04883
6.99918
6.99671
7.01154
7.00243
7.0214
6.93358
7.01472
7.0224
7.01729
7.01183
7.00532
7.02433
7.01857
7.01297
6.99555
6.98979
7.01615
7.00789
7.01306
6.95017
6.98563
7.0091
7.02902
7.00806
7.00339
6.99906
7.02405
7.01633
7.01697
7.00866
6.90239
6.87276
6.90173
6.96295
6.95845
6.9193
6.95477
6.94409
6.9424
7.0446
7.06137
7.06307
7.04852
7.05503
7.05606
6.97779
6.98128
6.99753
6.97159
6.97559
7.05427
7.054
7.04523
7.04476
7.04613
6.98617
6.97506
6.94328
6.95955
6.93757
7.05086
7.04769
7.01961
7.03027
7.01398
7.03588
7.0211
7.0277
7.01176
6.97429
6.94436
6.9616
6.96949
6.96744
6.98546
6.97567
6.96981
7.02566
7.02118
7.03808
7.0477
7.02748
7.02826
7.03248
7.00904
7.0339
7.02444
7.01626
7.02632
6.99929
7.02751
7.03091
7.0312
7.02384
7.01998
7.03699
7.02794
7.02572
7.01953
7.03693
7.03583
7.02893
7.05461
7.02155
7.04826
7.03405
7.03498
7.02038
7.02051
7.01155
7.03076
7.02217
7.0212
7.01098
7.0181
6.97575
7.01312
7.04424
7.04651
7.01605
7.05899
6.99592
7.08149
7.04201
7.04446
7.03964
7.03736
7.03803
7.03222
6.97081
6.97176
7.02843
6.973
6.97003
7.03832
7.04256
7.04116
7.03859
7.04218
6.93154
6.91282
6.88039
6.90271
6.88045
7.04676
7.04642
7.02438
7.02709
7.01422
7.03497
7.02796
7.02793
7.01803
6.9593
7.01766
6.98198
6.994
6.95916
7.04369
7.00161
6.95145
7.02013
7.02114
7.0201
7.0226
7.02147
7.01647
7.01828
7.02098
7.0196
7.01906
7.02438
7.01757
7.03846
7.03346
7.03564
7.04087
7.03114
7.02996
7.0432
7.03356
7.03273
7.03544
7.06193
7.04648
7.03941
7.06279
7.06385
7.06724
7.03619
7.03825
7.02326
7.02194
7.00949
7.03583
7.02433
7.02378
7.00886
7.05545
7.03667
7.07917
7.06086
7.06138
7.04869
7.07664
7.11492
7.09985
7.03665
7.03784
7.03242
7.03826
7.04027
7.03605
6.97698
6.9771
7.06071
6.99283
7.00222
7.04085
7.04338
7.04597
7.04266
7.04507
6.8956
6.85144
6.90719
6.92148
6.90469
7.04484
7.04331
7.03178
7.03031
7.02289
7.03781
7.03195
7.03263
7.02468
6.98097
7.0537
7.01547
7.05133
7.03459
7.04698
7.05455
7.01748
7.02432
7.02621
7.0154
7.01785
7.02213
7.01594
7.01871
7.02501
7.01894
7.01981
7.02316
7.02078