/*--------------------------------*- C++ -*----------------------------------*\
| =========                 |                                                 |
| \\      /  F ield         | OpenFOAM: The Open Source CFD Toolbox           |
|  \\    /   O peration     | Version:  5.x                                   |
|   \\  /    A nd           | Web:      www.OpenFOAM.org                      |
|    \\/     M anipulation  |                                                 |
\*---------------------------------------------------------------------------*/
FoamFile
{
    version     2.0;
    format      ascii;
    class       volScalarField;
    location    "3.05";
    object      p;
}
// * * * * * * * * * * * * * * * * * * * * * * * * * * * * * * * * * * * * * //

dimensions      [0 2 -2 0 0 0 0];

internalField   nonuniform List<scalar> 
10571
(
188.017
199.191
197.261
184.219
172.298
197.662
186.11
177.338
173.12
158.136
201.94
200.168
190.163
188.451
188.254
178.823
202.787
193.991
192.655
191.481
188.466
195.414
194.282
193.373
168.824
195.388
189.968
163.813
157.646
193.254
177.168
163.594
146.551
149.937
187.782
185.136
183.119
174.622
155.489
148.491
177.582
179.921
177.143
180.109
162.535
191.249
190.229
185.374
132.465
152.034
139.89
124.216
140.773
164.777
160.17
142.115
141.551
149.241
106.364
125.534
128.069
113.794
119.836
146.197
83.8251
48.7309
47.6739
115.148
123.118
115.256
121.531
120.606
87.0061
111.874
108.802
111.149
67.823
129.878
110.281
93.3084
60.9923
76.2995
58.0523
49.8884
44.2316
31.2432
28.3462
45.8431
30.7237
24.5378
23.0843
25.2912
32.7593
28.2963
25.6913
25.8674
29.2203
28.1259
42.9554
64.2746
25.1419
57.6489
46.4115
29.0762
21.116
29.6448
36.0763
31.6345
27.7328
23.368
23.9312
25.8504
32.0959
26.1109
25.8421
25.321
25.3673
26.7835
25.8773
25.6295
24.9998
24.1442
23.2375
23.3453
25.4432
24.4691
24.2531
22.2056
25.3186
25.9388
25.1897
24.3158
24.2277
23.4628
24.7677
25.2467
25.0058
25.0999
23.9587
25.0792
25.3568
25.1776
25.2283
25.8566
25.5782
25.4236
24.9874
24.3716
24.1756
24.5251
24.9084
24.4708
24.4461
24.6748
25.4334
25.1579
25.1416
24.3766
24.2088
24.0839
24.824
24.8784
24.9887
25.0838
24.1919
24.7788
24.9482
25.1165
25.2103
25.0618
25.2447
25.1724
25.0985
24.9289
24.207
24.5367
24.778
25.0915
24.4481
24.7339
24.8539
25.071
25.1846
25.1399
24.5815
24.4252
24.439
24.8446
24.729
25.1996
25.1028
24.6252
24.8222
24.8252
25.0053
25.165
25.0922
24.9585
24.9244
24.9241
24.8385
24.1769
24.6005
24.8584
25.0223
24.3897
24.7511
24.7837
24.94
25.0142
25.1619
24.668
24.5618
24.5565
24.8132
24.7729
25.0996
25.1115
24.701
24.806
24.7874
24.9059
25.0336
24.823
24.7916
24.832
24.7693
24.473
24.7029
24.7678
24.8199
24.4296
24.7492
24.7619
24.7338
24.5738
24.6931
24.6251
24.5915
24.7572
24.6956
24.9194
24.6994
24.7518
24.7408
24.7832
24.8344
24.7575
24.7279
24.7881
24.7392
24.627
24.7151
24.7035
24.6666
24.5395
24.7566
24.7679
24.4275
24.6418
24.7263
24.6808
24.5923
24.7444
24.5542
24.7351
24.7185
24.719
24.7026
24.6848
24.732
24.7535
24.7348
24.7605
24.7299
24.703
24.7271
24.7053
24.6265
24.6128
24.7516
24.7719
24.3605
24.5912
24.7208
24.7242
24.624
24.8054
24.6334
24.6423
24.739
24.7526
24.7616
24.6673
24.6886
24.7798
24.7711
24.777
24.7454
24.7475
24.7339
24.7384
24.6496
24.6532
24.7747
24.8744
24.7227
24.611
24.7304
24.7437
24.6985
24.8675
24.8866
24.6921
24.7575
24.7956
24.8611
24.7909
24.7769
24.802
24.8328
24.8446
24.757
24.7478
24.7316
24.7556
24.7272
24.6753
24.8141
24.919
25.0636
24.7891
24.7478
24.7587
24.7674
24.8435
24.9918
24.8139
24.751
24.8123
24.926
24.9049
24.8904
24.8008
24.8726
24.9091
24.7634
24.7396
24.7003
24.7473
24.8022
24.6901
24.8291
24.8653
25.0819
24.9126
24.764
24.7621
24.8105
24.848
24.9447
24.8909
24.705
24.7935
24.9217
24.9597
24.9517
24.7912
24.8753
24.9265
24.7589
24.7267
24.6973
24.7328
24.8452
24.691
24.8257
24.8384
24.9983
24.9212
24.7689
24.7424
24.8323
24.9285
24.9234
24.9213
24.7012
24.7626
24.9063
24.9492
24.953
24.7819
24.866
24.9176
24.7472
24.7038
24.6878
24.7317
24.8483
24.6948
24.8046
24.8367
24.9162
24.8865
24.7939
24.7489
24.8493
24.9682
24.9177
24.9236
24.7409
24.7446
24.8856
24.9175
24.9329
24.7765
24.8582
24.9049
24.746
24.6966
24.6493
24.7487
24.8395
24.7075
24.7752
24.8351
24.8647
24.8586
24.8194
24.7667
24.8417
24.9085
24.8892
24.9032
24.7753
24.7302
24.8733
24.8919
24.8943
24.7688
24.8543
24.8917
24.7621
24.7407
24.6858
24.7747
24.834
24.7386
24.7723
24.834
24.8334
24.845
24.8447
24.7945
24.8095
24.851
24.856
24.8715
24.8002
24.7256
24.8638
24.87
24.8688
24.7721
24.8627
24.8825
24.7993
24.855
24.7573
24.805
24.8411
24.8324
24.7987
24.822
24.8221
24.8454
24.8712
24.8303
24.7889
24.8361
24.8434
24.8597
24.8142
24.7279
24.864
24.8613
24.8626
24.8006
24.8787
24.8814
24.8381
24.8653
24.8056
24.8303
24.8585
24.8861
24.8223
24.8148
24.8316
24.8565
24.8825
24.8544
24.7753
24.8394
24.8506
24.8654
24.8318
24.761
24.8733
24.865
24.8697
24.8487
24.9012
24.8882
24.8756
24.9011
24.8662
24.8638
24.882
24.892
24.8402
24.8248
24.8519
24.8752
24.9014
24.8638
24.7929
24.8582
24.8696
24.8843
24.8799
24.8555
24.8908
24.8773
24.8881
24.9553
24.9283
24.902
24.9153
24.9363
24.9154
24.9004
24.9083
24.9029
24.8656
24.856
24.8797
24.8984
24.9271
24.8801
24.8354
24.884
24.8991
24.912
24.9306
24.9099
24.9098
24.8973
24.9144
25.0021
24.9411
24.9173
24.9478
24.9568
24.9532
24.9344
24.9349
24.9371
24.9106
24.8982
24.9081
24.9216
24.949
24.9108
24.869
24.9109
24.9349
24.9415
24.9418
24.9208
24.9278
24.9192
24.9432
24.9663
24.9435
24.9333
24.969
24.9799
24.992
24.9551
24.9569
24.9877
24.9773
24.9311
24.9317
24.9443
24.9785
24.9397
24.8862
24.9339
24.9652
24.9682
24.9464
24.9298
24.9471
24.9393
24.9698
24.9505
24.9483
24.9499
24.9885
24.9871
24.9706
24.9619
24.9753
24.9978
25.0199
24.9669
24.958
24.9667
25.0205
24.9715
24.9188
24.9508
24.9811
24.9888
24.9746
24.9552
24.9658
24.9534
24.9897
24.9563
24.9573
24.9635
25.0038
24.9975
24.9897
24.9764
24.9872
24.9848
25.0001
24.9832
24.9723
24.9876
25.0888
25.0305
24.9743
24.9628
24.9801
24.9982
25.0209
24.9852
24.977
24.9582
24.9989
24.9754
24.9669
24.9703
24.9953
25.0047
24.9953
24.9868
24.9932
25.0202
24.9919
24.9789
24.9723
24.999
25.0707
25.0497
24.9859
24.9626
24.9666
24.9943
25.0492
24.9968
24.9794
24.9569
24.9961
24.9896
24.9717
24.9705
24.9799
24.9903
24.9752
24.9773
24.9853
25.0387
24.9843
24.9634
24.9627
24.9925
25.0067
25.0171
24.9711
24.9534
24.9517
24.9805
25.0424
24.9849
24.9742
24.9544
24.9842
24.993
24.9714
24.9671
24.9597
24.9621
24.9369
24.9672
24.9753
24.9936
24.9614
24.939
24.9446
24.9762
25.0112
25.0049
24.9643
24.9388
24.9383
24.9594
25.0156
24.9702
24.9648
24.95
24.9656
24.9877
24.9658
24.9612
24.9322
24.9087
24.8949
24.9236
24.9514
24.945
24.9125
24.9244
24.9206
24.9563
25.0001
24.9678
24.9556
24.9246
24.9181
24.9375
25.015
24.9625
24.9528
24.9353
24.9419
24.9816
24.9577
24.9482
24.8996
24.8811
24.8529
24.8779
24.9228
24.9264
24.8582
24.911
24.899
24.9372
24.9679
24.921
24.9495
24.9139
24.8851
24.9162
25.0174
24.9565
24.9417
24.907
24.9175
24.9784
24.9478
24.9291
24.8781
24.8981
24.8194
24.8673
24.9051
24.8974
24.8518
24.8863
24.883
24.9195
24.9502
24.8941
24.9459
24.9098
24.8598
24.9044
25.0065
24.9575
24.9325
24.8857
24.9064
24.9809
24.9479
24.9178
24.8573
24.9366
24.8718
24.8611
24.8959
24.9225
24.8696
24.8699
24.8735
24.9105
24.9432
24.894
24.9457
24.9104
24.8536
24.913
24.9906
24.9596
24.9294
24.8858
24.9116
24.9887
24.959
24.932
24.8576
24.9986
24.9326
24.8343
24.8744
24.9662
24.8746
24.8735
24.8637
24.9136
24.9368
24.9045
24.9364
24.9143
24.8889
24.9559
24.9742
24.9395
24.9358
24.9261
24.999
24.991
24.9659
24.9608
24.8843
24.9924
24.9421
24.8752
24.8632
24.9607
24.8739
24.8976
24.8623
24.9073
24.925
24.909
24.8998
24.9126
24.9075
24.9743
24.9561
24.9011
24.9052
24.9386
24.9941
24.9735
24.9477
24.9536
24.9163
24.9602
24.9227
24.9138
24.8731
24.9354
24.8701
24.9006
24.8325
24.8684
24.9045
24.8911
24.8523
24.8826
24.8645
24.901
24.936
24.8729
24.8619
24.9064
24.9198
24.9374
24.9011
24.9111
24.9156
24.9372
24.9261
24.9075
24.898
24.9036
24.8632
24.8494
24.817
24.8215
24.8793
24.8591
24.8189
24.8517
24.8288
24.8086
24.9204
24.8563
24.8369
24.8551
24.8509
24.898
24.8468
24.8265
24.901
24.9262
24.9332
24.8796
24.8703
24.8693
24.837
24.7639
24.7972
24.7818
24.8637
24.8359
24.799
24.8289
24.7981
24.7391
24.9174
24.8523
24.8138
24.8283
24.8097
24.8804
24.8296
24.7984
24.8678
24.9161
24.9169
24.825
24.7802
24.8376
24.8002
24.682
24.7476
24.7568
24.8636
24.8289
24.794
24.8053
24.7623
24.7209
24.9316
24.8645
24.8128
24.8169
24.7935
24.8883
24.8423
24.8482
24.8236
24.8992
24.8737
24.7668
24.7126
24.818
24.768
24.6238
24.7097
24.7261
24.8758
24.8429
24.8111
24.7876
24.7365
24.7256
24.9442
24.8835
24.8418
24.8128
24.7919
24.9147
24.9151
24.8804
24.7828
24.8781
24.8238
24.7205
24.675
24.8151
24.7454
24.6053
24.7116
24.7086
24.895
24.8706
24.825
24.7732
24.7337
24.7192
24.9557
24.8983
24.8346
24.8104
24.8019
24.9595
24.935
24.8921
24.7533
24.8563
24.7819
24.6825
24.6816
24.8183
24.6964
24.6052
24.6946
24.7124
24.9182
24.8972
24.8079
24.7702
24.7409
24.7081
24.9664
24.8687
24.8168
24.8049
24.818
24.979
24.9206
24.8783
24.7332
24.8394
24.7522
24.6569
24.6948
24.8291
24.6222
24.583
24.66
24.7673
24.9346
24.9115
24.7814
24.7646
24.7415
24.7498
24.9641
24.8354
24.8014
24.7938
24.8251
24.9581
24.8888
24.8539
24.7335
24.8208
24.7281
24.6478
24.7176
24.8345
24.547
24.5635
24.653
24.7469
24.9352
24.901
24.742
24.7511
24.7316
24.7562
24.9556
24.8037
24.7828
24.7764
24.8152
24.9198
24.8497
24.8261
24.7326
24.7992
24.6979
24.6531
24.7213
24.8122
24.4617
24.5499
24.6677
24.778
24.9305
24.8706
24.6775
24.7217
24.7117
24.7403
24.9248
24.7575
24.7578
24.7563
24.7901
24.8773
24.8083
24.7876
24.6962
24.7679
24.6553
24.6183
24.6672
24.7683
24.3728
24.5177
24.6314
24.7275
24.905
24.8008
24.5983
24.6723
24.6832
24.7137
24.8621
24.7055
24.7244
24.7315
24.7625
24.8015
24.7693
24.7527
24.6664
24.7326
24.6104
24.5864
24.5961
24.6991
24.2864
24.4769
24.5896
24.6757
24.8596
24.7096
24.5188
24.6119
24.6549
24.6878
24.7854
24.6417
24.6912
24.6993
24.7286
24.7285
24.7218
24.7143
24.635
24.6854
24.5654
24.554
24.5811
24.6071
24.2042
24.4379
24.559
24.6454
24.7689
24.6038
24.4141
24.5486
24.631
24.6712
24.6918
24.5547
24.6549
24.6665
24.6958
24.647
24.6773
24.6807
24.6396
24.6331
24.5293
24.5489
24.5973
24.4912
24.1491
24.4237
24.541
24.6404
24.6208
24.4613
24.3306
24.5153
24.6207
24.6675
24.5342
24.5003
24.6244
24.6451
24.6774
24.5847
24.6483
24.6632
24.674
24.5934
24.525
24.5677
24.6291
24.391
24.1602
24.4686
24.5383
24.6534
24.53
24.3759
24.3329
24.5377
24.6391
24.6799
24.4421
24.5092
24.626
24.6464
24.6825
24.5779
24.6431
24.6679
24.7045
24.5811
24.5536
24.6133
24.6724
24.296
24.267
24.5353
24.5605
24.6852
24.4695
24.3755
24.4406
24.5862
24.6719
24.7061
24.4536
24.5356
24.6393
24.6666
24.7043
24.6039
24.6545
24.6891
24.719
24.588
24.608
24.6467
24.7045
24.2928
24.3894
24.6309
24.5946
24.7408
24.3848
24.3533
24.5677
24.6449
24.6987
24.7359
24.4614
24.5783
24.649
24.686
24.7266
24.641
24.6709
24.7051
24.7032
24.682
24.6803
24.6484
24.7223
24.3932
24.5436
24.7155
24.6485
24.8041
24.1793
24.2926
24.6292
24.6817
24.6994
24.7492
24.492
24.6101
24.6495
24.6848
24.7311
24.6635
24.6769
24.7032
24.7237
24.8721
24.7776
24.6705
24.7601
24.7041
24.7406
24.7539
24.6786
24.8194
24.4714
24.4662
24.6764
24.6886
24.6766
24.7353
24.559
24.6306
24.6426
24.6684
24.7115
24.6629
24.6683
24.6838
24.8305
25.094
24.9019
24.7356
24.8146
25.0658
24.8215
24.6968
24.6131
24.7471
24.789
24.7226
24.6985
24.6589
24.6337
24.6907
24.6148
24.6464
24.6257
24.6409
24.6693
24.6584
24.6494
24.6517
24.9137
25.1211
24.8956
24.7347
24.7833
25.0601
24.7109
24.5619
24.5105
24.6263
24.8233
24.7768
24.6725
24.6188
24.5778
24.6184
24.6428
24.6448
24.6021
24.6069
24.6078
24.6466
24.6243
24.6138
24.8082
24.9331
24.7147
24.5857
24.6161
24.9077
24.599
24.4392
24.3815
24.4739
24.7893
24.7504
24.6267
24.5724
24.5048
24.5056
24.6568
24.6359
24.5806
24.5632
24.5232
24.6361
24.5993
24.5757
24.6257
24.7044
24.5244
24.4088
24.4293
24.7815
24.5388
24.4206
24.2351
24.2568
24.7662
24.7222
24.5977
24.5132
24.3842
24.3112
24.6764
24.6294
24.5585
24.4932
24.3968
24.6366
24.5789
24.5367
24.511
24.6585
24.4762
24.3693
24.2786
24.726
24.5266
24.4186
23.9989
23.8988
24.7602
24.7117
24.5898
24.4403
24.205
23.9232
24.7132
24.6443
24.541
24.3937
24.1906
24.6553
24.5661
24.4851
24.5026
24.67
24.543
24.4232
24.14
24.7232
24.5509
24.3965
23.6397
23.1725
24.7775
24.7237
24.6214
24.3522
23.9005
23.0553
24.7699
24.6742
24.5262
24.2474
23.8286
24.6937
24.5607
24.4142
24.5517
24.7116
24.6529
24.4774
24.007
24.7237
24.6207
24.3242
23.192
21.5042
24.8076
24.7431
24.6415
24.2412
23.4532
21.0582
24.8425
24.6812
24.4615
24.026
23.1275
24.774
24.5657
24.3234
24.5904
24.719
24.7374
24.5034
23.9069
24.6754
24.6571
24.1742
22.7699
17.4835
24.7888
24.7257
24.628
24.0721
22.9613
18.6592
-13.0588
24.9122
24.7139
24.3476
23.8225
21.6407
24.9371
24.5723
24.2671
24.6413
24.6469
24.6769
24.4913
23.9026
24.508
24.5606
24.1268
22.6824
15.405
-0.948501
24.6516
24.5662
24.5838
24.0702
22.7956
18.1262
1.90314
24.879
24.8253
24.3432
23.7892
19.668
25.0724
24.7663
24.4062
24.6251
24.5282
24.6095
24.4762
24.0749
24.3057
24.3246
24.1689
23.2854
18.9537
5.65697
24.3776
24.3694
24.4279
24.1088
23.1862
18.8515
6.17489
24.6854
24.6254
24.472
24.0418
20.7824
7.03583
24.9447
25.0008
24.7631
24.5334
24.428
24.5161
24.4186
24.3454
24.169
24.0873
24.0936
23.7621
20.6734
8.1549
24.1646
24.1551
24.2859
24.0971
23.7231
20.1714
5.34306
24.5055
24.4879
24.5364
24.3179
22.013
24.7728
24.9167
24.9184
24.4984
24.3865
24.4706
24.3621
24.5661
24.0902
23.9845
24.06
24.0539
23.1199
24.174
24.0907
24.2261
24.0915
23.888
21.7846
-2.91439
24.4444
24.4459
24.4992
24.4495
23.5688
24.6434
24.7886
24.8139
24.706
24.4646
24.5328
24.5562
24.8459
24.1878
24.142
24.2629
24.4458
24.6587
24.3405
24.1905
24.2768
24.1902
24.2955
24.0311
24.5044
24.4781
24.5346
24.5079
24.4455
24.5994
24.6964
24.7204
24.793
24.6533
24.6535
24.7249
25.0577
24.4435
24.3845
24.4949
24.7146
24.9949
24.5566
24.431
24.4104
24.4524
24.5637
24.6294
24.6303
24.5802
24.6299
24.6513
24.6737
24.6795
24.7201
24.7594
24.8658
24.7669
24.7588
24.8078
24.9887
24.6191
24.5765
24.6069
24.7202
24.8594
24.7168
24.6119
24.5511
24.6257
24.678
24.7138
24.7535
24.6454
24.7173
24.7158
24.7227
24.7764
24.7767
24.799
24.8757
24.8011
24.7923
24.7985
24.8893
24.6916
24.6582
24.6513
24.7212
24.7802
24.8138
24.7005
24.64
24.7
24.6776
24.6943
24.8136
24.6634
24.7298
24.7181
24.732
24.7988
24.7928
24.8086
24.8472
24.8145
24.7741
24.769
24.8219
24.7237
24.6607
24.6643
24.6956
24.7394
24.846
24.7236
24.7006
24.6963
24.6701
24.6891
24.8051
24.6372
24.7325
24.7135
24.7462
24.7684
24.7995
24.8292
24.8418
24.8034
24.7602
24.7568
24.8046
24.7104
24.68
24.6723
24.6913
24.7437
24.8108
24.6717
24.6549
24.6898
24.6807
24.6935
24.7492
24.628
24.7107
24.717
24.7671
24.7683
24.7895
24.8406
24.8727
24.7995
24.7681
24.7725
24.8302
24.6965
24.694
24.6839
24.7135
24.7831
24.7543
24.6268
24.655
24.6654
24.6846
24.7315
24.721
24.6475
24.6821
24.7446
24.8277
24.7621
24.782
24.8692
24.9038
24.7864
24.7856
24.8027
24.8682
24.6892
24.7052
24.7049
24.7395
24.8355
24.7302
24.6347
24.6613
24.6854
24.7122
24.7914
24.7625
24.6686
24.7347
24.8017
24.9026
24.7265
24.8497
24.9682
208.1
201.332
208.155
204.83
193.763
193.216
189.107
183.907
201.506
204.75
207.089
204.062
211.376
204.296
196.585
230.827
215.427
188.91
185.281
197.422
196.195
183.287
178.194
195.565
188.032
184.175
200.388
202.029
203.246
200.291
201.868
203.172
202.436
199.777
192.647
192.891
189.241
192.898
195.636
188.066
187.968
203.237
215.569
188.175
186.136
233.05
215.303
219.081
205.503
208.162
212.905
207.156
201.733
212.889
200.94
192.787
191.347
193.468
192.774
190.535
190.878
192.347
191.68
191.547
189.72
191.876
190.335
202.855
211.041
203.281
212.463
213.59
201.425
207.536
202.861
195.952
194.925
197.801
196.668
194.734
193.246
197.289
194.723
193.436
193.285
195.26
193.912
196.236
198.847
196.854
196.716
195.708
196.364
194.534
195.314
193.957
200.601
202.963
195.527
201.467
196.026
189.497
200.711
190.771
186.717
184.532
181.897
181.535
177.613
177.696
169.809
199.638
199.292
199.767
199.187
199.028
200.886
201.489
198.892
197.398
165.557
179.676
165.686
164.632
160.502
166.327
155.057
158.601
152.405
199.126
199.465
199.864
197.981
199.021
198.649
166.873
158.278
148.95
150.342
149.85
203.002
205.744
199.486
199.995
199.433
168.266
183.314
154.29
151.376
163.954
205.683
197.876
197.009
200.473
197.429
195.389
193.404
194.881
194.662
189.893
192.549
190.299
188.421
185.837
189.854
188.174
180.141
196.497
194.742
194.903
194.523
194.521
194.205
194.004
193.666
194.04
193.333
192.626
193.413
191.45
188.766
166.811
172.563
182.789
174.153
153.692
162.05
155.432
168.794
164.796
150.304
150.31
147.461
159.54
148.414
195.772
181.601
194.979
195.657
192.621
175.984
174.174
183.39
179.807
155.094
149.341
148.723
150.455
150.537
141.131
145.544
150.309
149.158
194.866
194.36
192.956
182.714
175.107
174.959
148.887
149.328
149.865
148.091
147.982
185.169
178.597
157.732
153.72
141.857
149.729
152.418
148.763
149.368
149.33
176.044
137.12
183.573
179.129
184.708
140.178
154.688
143.234
154.446
175.138
182.434
179.988
157.727
155.741
162.848
162.301
147.7
187.507
161.654
191.383
192.055
173.114
176.253
179.159
189.213
191.488
174.823
172.6
177.593
166.825
140.69
116.638
133.961
139.267
135.663
113.08
113.736
116.486
131.297
133.455
114.971
115.925
117.662
134.463
103.912
153.963
141.536
150.278
162.237
160.59
136.584
128.043
144.317
141.074
145.492
136.782
144.431
118.739
121.689
134.367
135.051
149.102
144.91
153.083
122.168
133.793
134.416
107.229
110.646
145.595
146.426
142.053
139.384
140.223
99.6801
89.587
80.2744
67.1434
42.225
146.41
139.393
129.177
132.678
106.22
86.4309
37.6432
82.8638
91.3659
96.2369
34.6751
32.585
40.9517
38.0055
120.326
119.031
121.148
53.3687
75.2995
60.9169
72.9348
82.6718
105.315
49.7719
121.045
125.167
51.1981
49.0535
53.5844
120.885
125.618
49.017
52.085
53.5155
59.3932
88.2189
52.9597
88.2428
85.1158
101.162
55.3943
51.6871
72.8532
97.0141
77.324
48.1935
63.9635
34.8437
58.568
31.2946
128.426
79.8831
100.94
121.522
117.554
60.7284
64.358
76.0629
88.1591
57.4274
112.112
62.6662
31.2545
31.8956
34.5342
28.3598
72.389
33.3933
119.283
94.5324
95.4634
85.0397
71.3782
76.0801
79.4972
78.6831
32.9768
29.9164
33.7926
48.8274
34.1135
45.6858
39.2538
33.4956
61.1697
36.4885
24.5162
27.3027
24.3904
32.2832
33.7259
29.1227
30.3151
28.1527
33.0637
32.3125
31.3555
29.5138
27.7245
25.993
27.5192
24.4405
24.3818
24.7309
24.6834
24.4707
28.6099
28.8632
26.3578
26.4107
26.2121
25.7671
25.7378
25.8648
25.9383
25.1812
24.8522
25.3525
24.7928
28.6157
22.9989
31.2986
27.5409
31.6892
24.1108
22.6345
22.8659
29.3913
24.859
24.3056
23.4871
25.0186
25.1639
25.6953
35.0562
24.7055
29.6308
35.5433
51.985
22.9793
22.6641
24.1403
25.5838
26.8496
21.9973
26.5642
25.9398
26.2647
26.33
27.2537
27.5974
26.437
49.3964
45.9158
49.0971
25.9189
25.8981
27.2379
28.3952
28.4124
27.8664
27.7606
26.5044
32.996
33.3989
25.2933
28.2752
32.1665
26.1497
25.2603
25.2975
25.6386
25.1722
33.1992
30.297
31.4321
29.4954
27.0413
27.5309
25.441
26.395
25.2111
25.4101
25.6002
25.4587
25.0945
25.1779
25.1216
25.102
25.2085
27.737
26.6128
26.5009
26.4006
26.3847
26.1752
26.0968
25.8384
25.914
25.4853
25.5684
25.5928
25.2816
24.0434
24.413
24.1953
23.8623
23.8193
24.6015
24.3154
24.3892
24.6806
25.1937
25.1685
24.9288
25.045
25.5271
25.168
24.2468
24.5909
23.4161
23.9109
23.8929
24.496
23.9645
24.3301
24.3097
25.687
26.406
26.1884
24.9649
25.2495
24.8121
25.0608
25.6317
25.2025
24.343
24.3258
24.2994
24.576
24.2317
24.2368
25.2949
26.2625
26.2014
24.9868
24.8104
24.9346
24.9171
25.1165
25.2219
25.1164
25.1041
25.0919
25.0655
25.0928
24.3668
26.0453
24.2163
24.0957
23.8921
25.3477
25.1374
24.89
24.8785
24.7754
25.0501
24.7918
25.0799
25.0741
25.0538
25.0428
25.0777
25.0564
25.0375
24.9702
23.8069
23.572
24.8105
24.9573
23.8629
24.0071
24.5379
24.913
25.2645
25.2172
25.2856
25.202
25.2049
25.1852
25.2051
25.1935
25.7579
25.3239
25.8346
25.8666
25.5355
25.5731
25.6039
25.5656
25.7234
25.413
25.4122
25.4795
25.2977
24.386
24.3912
24.7347
24.4121
24.5599
24.776
24.4795
24.6265
24.8256
24.8938
24.9239
24.8156
24.897
24.9911
24.9983
24.6384
24.6306
24.0774
24.4329
24.3349
24.2713
24.1906
24.3941
24.3345
25.1477
24.4448
25.0588
25.0079
25.114
24.7586
25.2485
25.3232
25.1304
25.3332
25.1506
25.165
25.1294
25.1725
25.1228
24.5831
24.4426
24.3831
24.5951
24.5717
24.4918
25.1178
24.9715
25.1542
25.1998
25.0845
25.0999
25.0427
25.118
25.1188
25.098
25.1151
25.1034
25.0809
25.0849
24.2746
24.3086
24.5011
24.3935
24.4558
24.9715
25.0874
24.8861
25.1367
24.9112
25.1416
24.9444
25.0776
25.0568
25.0425
25.0741
25.0703
25.0469
25.0416
24.1926
24.3721
24.306
24.5347
24.9042
24.4521
24.5237
24.7936
24.9449
25.1309
25.0818
25.1161
25.049
25.0743
24.9918
25.0421
24.9849
25.1822
25.0469
25.0452
25.0617
25.0528
25.1941
25.0321
25.308
25.3328
25.0787
25.1219
25.1307
25.156
25.1767
25.0267
25.0289
25.0342
24.9952
24.4227
24.3585
24.7513
24.5065
24.6362
24.6761
24.4399
24.5687
24.8601
24.9315
24.8987
24.8518
24.9286
25.0281
25.0175
24.5957
24.5216
24.3498
24.2636
24.3723
24.1586
24.4893
24.084
24.445
25.0809
24.9561
25.1915
25.0933
25.048
25.0158
25.058
25.226
25.1428
25.0119
25.1128
25.1628
25.1233
25.1704
25.1297
24.6078
24.6248
24.5373
24.6046
24.6333
24.5503
25.1285
25.1429
25.0468
25.1455
25.1279
25.0867
25.0823
25.1069
25.1048
25.0885
25.1461
25.1142
25.1198
25.1019
24.5013
24.5445
24.6379
24.5784
24.6157
25.0103
25.1663
25.0111
25.1496
25.0614
25.0884
25.0442
25.0777
25.0544
25.0647
25.102
25.0957
25.0902
25.116
24.5099
24.6187
24.5938
24.9674
24.9433
24.6746
24.6395
24.889
24.8651
25.0167
24.9228
24.966
24.9627
24.9726
24.8706
24.9082
25.0952
25.0972
25.1283
25.0764
25.1227
25.1065
24.935
24.8797
24.969
24.9762
24.8884
24.8749
24.8782
24.9352
24.9314
24.8537
24.8596
24.8607
24.8677
24.3713
24.7369
24.6454
24.3723
24.556
24.6746
24.4998
24.6243
24.8153
24.8786
24.7942
24.7892
24.8291
24.9687
24.9072
24.4379
24.3598
24.6683
23.9556
24.5619
24.3277
24.8768
24.0411
24.6828
24.9844
24.9732
24.9414
24.9259
24.9047
24.8751
24.87
24.8969
24.8045
24.5825
24.627
24.5542
24.5342
24.6235
24.563
25.0927
25.0189
25.1101
24.7302
24.9639
24.9095
25.0508
25.124
25.1305
25.1095
25.1378
25.1185
25.1265
25.1099
24.6119
24.6468
24.6786
24.6259
24.6531
25.0763
25.0532
25.0895
24.9995
24.9887
24.9281
25.0464
25.1117
25.1194
25.1156
25.105
25.104
25.1097
25.1154
24.6909
24.713
24.6797
24.8027
24.7903
24.6968
24.6934
24.7569
24.7301
24.9285
24.8421
24.8768
24.8447
24.8658
24.8184
24.8417
24.9087
24.8288
24.7863
24.7999
24.8157
24.7816
24.7537
24.7735
24.7942
24.8046
24.7449
24.7484
24.7678
24.8073
25.0088
24.9078
24.7103
24.6918
24.69
24.7244
24.7669
24.7158
24.769
24.7943
24.7518
24.7497
24.7622
24.8302
24.7537
24.3827
24.4913
24.9239
24.256
24.7491
24.5699
24.8152
24.4774
24.7562
24.8222
24.7853
24.7976
24.7317
24.752
24.7143
24.7136
24.7474
24.7243
24.5051
24.6295
24.5769
24.508
24.6416
24.5954
24.9198
25.0278
24.6256
24.8346
24.6845
24.6382
24.661
24.7196
24.6458
24.6771
24.9599
24.8416
24.7964
24.6659
24.7987
24.7313
24.7436
24.6956
24.7386
24.6992
24.7083
24.694
24.7341
24.6925
24.8028
24.7929
24.8012
24.7294
24.7446
24.7694
24.7656
24.7852
24.7559
24.7431
24.7278
24.749
24.7451
24.7167
24.7393
24.7395
24.7527
24.7264
24.7363
24.7512
24.7717
24.7945
24.7331
24.7257
24.7529
24.7123
24.7202
24.7221
24.7051
24.7315
24.7374
24.7302
24.7159
24.7284
24.7016
24.6719
24.634
24.7088
24.7328
24.62
24.7402
24.6731
24.6868
24.6909
24.7258
24.6827
24.642
24.6341
24.6325
24.6398
24.5925
24.5851
24.6905
24.6517
24.5207
24.6607
24.6244
24.5456
24.6861
24.6669
24.754
24.7216
24.6227
24.6909
24.6786
24.6586
24.6933
24.7228
24.6774
24.703
24.7245
24.7463
24.6819
24.6954
24.69
24.7565
24.7673
24.6918
24.7408
24.7022
24.7276
24.6924
24.7504
24.7099
24.6917
24.7515
24.7414
24.6617
24.6672
24.7443
24.7308
24.695
24.7465
24.753
24.7244
24.7455
24.7616
24.7356
24.7568
24.7464
24.7593
24.7475
24.7597
24.7752
24.7597
24.709
24.7106
24.716
24.7015
24.6992
24.7182
24.6959
24.6965
24.7047
24.7269
24.7367
24.7024
24.7257
24.6595
24.6601
24.7327
24.7432
24.672
24.7329
24.7117
24.7355
24.6804
24.7472
24.7056
24.6196
24.5582
24.5409
24.6329
24.6184
24.55
24.5065
24.6237
24.6099
24.599
24.6994
24.692
24.6346
24.7126
24.7123
24.6271
24.6435
24.5754
24.6005
24.6315
24.698
24.7126
24.7252
24.7122
24.7189
24.6764
24.6572
24.6447
24.6831
24.6639
24.7745
24.7777
24.6992
24.77
24.7269
24.7487
24.7065
24.7861
24.7425
24.6722
24.755
24.7491
24.7193
24.7119
24.7872
24.786
24.7171
24.7655
24.7756
24.7558
24.7768
24.7912
24.7719
24.7962
24.7838
24.8041
24.7999
24.8112
24.8353
24.8074
24.722
24.7325
24.7199
24.7069
24.6993
24.721
24.7185
24.7034
24.7116
24.727
24.7531
24.7277
24.7338
24.6791
24.7061
24.7259
24.6988
24.6942
24.7277
24.6915
24.7483
24.705
24.7056
24.6841
24.6414
24.5527
24.5124
24.6828
24.6812
24.6205
24.5732
24.6289
24.683
24.6573
24.7317
24.7308
24.6907
24.7466
24.7443
24.6176
24.6595
24.6873
24.6712
24.7128
24.7185
24.7228
24.7373
24.7301
24.7249
24.7244
24.7188
24.7519
24.7768
24.7748
24.7765
24.7682
24.7187
24.797
24.7635
24.7592
24.7233
24.7952
24.7733
24.789
24.8339
24.844
24.8486
24.852
24.8804
24.8942
24.8363
24.787
24.7948
24.788
24.8145
24.8027
24.7997
24.8246
24.8381
24.864
24.8587
24.863
24.879
24.8808
24.7419
24.7501
24.722
24.7241
24.7055
24.7226
24.7283
24.7065
24.7433
24.7449
24.7609
24.7523
24.7567
24.7395
24.771
24.7101
24.7275
24.7142
24.6928
24.6898
24.7456
24.7242
24.6917
24.6981
24.7424
24.7145
24.6698
24.767
24.7985
24.7798
24.7523
24.7599
24.8191
24.7283
24.758
24.7574
24.7417
24.7723
24.7664
24.7605
24.7918
24.8653
24.8347
24.8552
24.741
24.7253
24.7579
24.7488
24.7325
24.8301
24.8305
24.8588
24.8712
24.8638
24.7519
24.7275
24.7221
24.7742
24.7704
24.7309
24.7097
24.7488
24.7536
24.9061
24.9152
24.9297
24.9486
24.9424
24.9339
24.9478
24.9283
24.7918
24.78
24.8067
24.8299
24.7961
24.8009
24.8197
24.8831
24.8806
24.877
24.8965
24.8746
24.9235
24.7545
24.7558
24.7229
24.7339
24.7107
24.7221
24.7413
24.7174
24.7594
24.7661
24.7631
24.7629
24.7724
24.7976
24.8161
24.7318
24.7334
24.7322
24.693
24.7036
24.7334
24.7397
24.6945
24.7043
24.8425
24.8346
24.8228
24.8299
24.8699
24.8628
24.8601
24.8594
24.8821
24.7434
24.7855
24.766
24.739
24.7907
24.765
24.8826
24.8964
24.9286
24.9058
24.917
24.7503
24.7357
24.7654
24.7501
24.7366
24.9015
24.8908
24.9087
24.9205
24.9112
24.7148
24.7133
24.7032
24.7283
24.7357
24.6933
24.695
24.7228
24.7309
24.9572
24.934
24.9502
24.9631
24.9588
24.9295
24.9459
24.9568
24.7594
24.7444
24.7904
24.8052
24.7884
24.779
24.7934
24.8977
24.8704
24.8701
24.8938
24.8655
24.9232
24.7533
24.7464
24.7197
24.749
24.7221
24.7174
24.7604
24.7244
24.7613
24.776
24.7527
24.7563
24.7766
24.826
24.8266
24.7306
24.7293
24.7417
24.687
24.6985
24.7169
24.7286
24.6764
24.6886
24.8811
24.8714
24.8759
24.8503
24.8828
24.8649
24.8796
24.8891
24.8862
24.735
24.7904
24.7637
24.7366
24.7925
24.7668
24.9135
24.9227
24.9064
24.9145
24.9208
24.7551
24.7464
24.7795
24.7689
24.7717
24.9323
24.9311
24.9243
24.9373
24.9363
24.7261
24.752
24.6926
24.7304
24.7355
24.7206
24.7017
24.7463
24.7483
24.9484
24.9255
24.9392
24.9303
24.939
24.9213
24.9314
24.9458
24.7367
24.7495
24.7785
24.7888
24.7769
24.7821
24.7909
24.8918
24.8659
24.8624
24.8876
24.8611
24.911
24.7329
24.714
24.7182
24.7577
24.7291
24.7221
24.7515
24.7315
24.7529
24.776
24.7443
24.7523
24.7767
24.8224
24.8182
24.7327
24.7404
24.7
24.6742
24.6804
24.6956
24.6774
24.6825
24.6764
24.8771
24.8537
24.8749
24.8442
24.8691
24.8437
24.8683
24.8788
24.8697
24.7445
24.8024
24.7781
24.7532
24.8115
24.7889
24.9078
24.9128
24.8691
24.9012
24.9013
24.7863
24.8025
24.8081
24.7996
24.8315
24.9371
24.9305
24.9173
24.9271
24.9146
24.7818
24.8071
24.7077
24.7626
24.759
24.7588
24.7141
24.7775
24.7714
24.9262
24.9164
24.9259
24.9052
24.9165
24.9073
24.9171
24.9107
24.7656
24.7805
24.7882
24.7967
24.774
24.7931
24.8025
24.8859
24.8584
24.8552
24.883
24.857
24.8983
24.7041
24.692
24.7259
24.7417
24.7375
24.7336
24.7323
24.7419
24.7546
24.7808
24.7537
24.7594
24.7872
24.8151
24.8157
24.7478
24.7535
24.6741
24.6913
24.6758
24.7073
24.6641
24.7024
24.6761
24.8595
24.8367
24.8611
24.8357
24.8536
24.8315
24.8541
24.8623
24.8566
24.7605
24.8178
24.7954
24.7719
24.8308
24.8061
24.888
24.887
24.8509
24.8769
24.8724
24.8091
24.8473
24.8316
24.818
24.8578
24.9094
24.8964
24.887
24.8898
24.879
24.8268
24.8426
24.7168
24.791
24.7767
24.7891
24.7198
24.803
24.7799
24.9024
24.8971
24.9038
24.8797
24.8858
24.8871
24.8907
24.879
24.792
24.8017
24.7998
24.8102
24.7685
24.8107
24.8189
24.8803
24.8584
24.8578
24.8802
24.8622
24.8858
24.6927
24.7168
24.7396
24.7263
24.7445
24.7642
24.7291
24.7544
24.7676
24.7959
24.7737
24.7814
24.8071
24.8193
24.8264
24.7934
24.8252
24.677
24.7464
24.6859
24.8048
24.7429
24.8045
24.715
24.8508
24.8309
24.8502
24.8359
24.8507
24.8332
24.8507
24.8543
24.8557
24.7951
24.8476
24.826
24.8395
24.8612
24.8463
24.8649
24.861
24.8435
24.8577
24.8537
24.8288
24.8649
24.8566
24.8399
24.8682
24.8751
24.8678
24.8638
24.8669
24.8651
24.8543
24.8618
24.7236
24.8149
24.7853
24.8081
24.7284
24.8256
24.794
24.8706
24.8799
24.8793
24.8639
24.8597
24.8747
24.8707
24.8638
24.811
24.8225
24.8259
24.8296
24.7858
24.8444
24.8421
24.8805
24.8676
24.8704
24.8835
24.8744
24.881
24.7571
24.7894
24.7909
24.7398
24.775
24.8018
24.7658
24.7895
24.7988
24.8198
24.8206
24.8172
24.8336
24.8357
24.8469
24.8571
24.8863
24.7964
24.8406
24.7471
24.8618
24.8164
24.8543
24.7872
24.8536
24.8368
24.8507
24.8489
24.8597
24.844
24.8565
24.8598
24.8666
24.8772
24.8784
24.8593
24.8927
24.8944
24.8729
24.8535
24.854
24.8493
24.8539
24.8562
24.8517
24.8697
24.8785
24.8606
24.871
24.864
24.8656
24.8607
24.8646
24.8693
24.8662
24.8697
24.7404
24.8353
24.8053
24.8212
24.7598
24.8435
24.8207
24.8536
24.8723
24.8672
24.8618
24.8513
24.8723
24.8661
24.8643
24.8389
24.86
24.8631
24.8561
24.8199
24.8861
24.8715
24.8887
24.8825
24.8892
24.8965
24.8906
24.8837
24.8203
24.8645
24.8166