/*--------------------------------*- C++ -*----------------------------------*\
| =========                 |                                                 |
| \\      /  F ield         | OpenFOAM: The Open Source CFD Toolbox           |
|  \\    /   O peration     | Version:  5.x                                   |
|   \\  /    A nd           | Web:      www.OpenFOAM.org                      |
|    \\/     M anipulation  |                                                 |
\*---------------------------------------------------------------------------*/
FoamFile
{
    version     2.0;
    format      ascii;
    class       volVectorField;
    location    "3.05";
    object      Us;
}
// * * * * * * * * * * * * * * * * * * * * * * * * * * * * * * * * * * * * * //

dimensions      [0 1 -1 0 0 0 0];

internalField   nonuniform List<vector> 
10571
(
(-0.0347778 0.0282091 -0.0405968)
(0.0840166 -0.102697 0.024658)
(0.0540197 0.0472548 0.0522928)
(0.0752431 0.0189682 0.0522657)
(0.0234602 0.0453039 -0.0377702)
(0.121432 -0.0888097 0.0123353)
(0.160043 -0.334101 0.0170566)
(0.00919524 -0.29706 0.061131)
(0.0975174 -0.307932 0.0844903)
(0.0282049 -0.31831 0.105787)
(0.0198577 -0.0312327 -0.0273571)
(0.135582 -0.135119 0.00902369)
(0.040598 -0.35222 -0.0253175)
(0.0105968 -0.394042 -0.0576651)
(0.10831 -0.381733 -0.0603721)
(0.129537 -0.32589 0.0130457)
(0.00587443 -0.0979955 -0.0519556)
(-0.0101495 -0.196633 -0.0677032)
(0.0220532 -0.211656 -0.115436)
(0.124126 -0.207086 -0.118896)
(0.121301 -0.210319 -0.0901553)
(-0.0379499 -0.0694292 -0.113118)
(0.0276286 -0.0827031 -0.129525)
(0.120726 -0.0816821 -0.143601)
(-0.129398 -0.00578611 0.0459643)
(0.0806975 -0.0566272 0.175993)
(0.0552226 -0.0660258 0.219398)
(0.00551733 -0.105078 0.238592)
(-0.115097 -0.0678376 0.0623857)
(0.121395 -0.0650797 0.257836)
(-0.00380533 -0.442803 0.233821)
(0.0503461 -0.410286 0.218649)
(-0.0124196 -0.258625 0.201027)
(-0.0428302 -0.140836 0.0242132)
(0.00552675 -0.0558454 0.0464743)
(0.0582217 -0.15751 0.118352)
(-0.0863127 -0.292472 0.202941)
(-0.0283233 -0.268111 0.136562)
(-0.00708441 -0.171535 0.109787)
(-0.0494847 -0.11431 -0.0262279)
(-0.0649096 -0.148511 -0.00633381)
(-0.0748645 -0.17442 0.048855)
(-0.00181866 -0.167337 0.0350498)
(0.0187902 -0.179717 -0.00399372)
(0.0502079 -0.0870799 -0.0375965)
(-0.08825 -0.0887008 -0.0221719)
(0.019028 -0.106197 -0.0243409)
(0.0708246 -0.0598498 -0.0281188)
(-0.146751 -0.0145788 0.0818291)
(0.0219636 -0.122704 0.256013)
(-0.0638037 -0.222447 0.418097)
(-0.209919 -0.1244 0.378537)
(-0.199048 -0.0933464 0.162364)
(0.0130541 -0.15497 0.431321)
(-0.144196 -0.355994 0.338397)
(-0.11836 -0.226691 0.343464)
(-0.17496 -0.12032 0.342765)
(-0.136888 -0.102783 0.259543)
(-0.00237741 -0.0754168 0.0521495)
(-0.0358247 -0.215207 0.253509)
(-0.0989798 -0.236806 0.203426)
(-0.107893 -0.161579 0.150479)
(-0.120858 -0.0828837 0.12219)
(-0.098787 0.0173169 0.140872)
(-0.0173198 -0.144802 -0.0477212)
(-0.0298255 -0.147047 -0.0252605)
(-0.0354519 -0.126434 -0.0309302)
(-0.0446842 -0.113213 0.0154874)
(-0.009044 0.0094726 0.0174774)
(-0.0474074 -0.0806492 -0.089546)
(0.0241895 -0.0950638 -0.0641245)
(0.0421387 -0.0440685 -0.0119624)
(-0.125305 -0.0361031 0.150293)
(-0.0803349 -0.291226 0.331053)
(-0.252081 -0.319041 0.561579)
(-0.251323 -0.318861 0.597256)
(-0.166911 -0.157404 0.2855)
(-0.111171 -0.245425 0.452406)
(-0.221892 -0.219097 0.429431)
(-0.199075 -0.109134 0.41043)
(-0.192508 -0.0753122 0.357107)
(-0.0831353 0.0243046 0.124899)
(-0.00558006 0.00741492 0.0198234)
(-0.152337 -0.180971 0.337767)
(-0.102604 -0.16353 0.279441)
(-0.132952 -0.0563105 0.210178)
(-0.133955 -0.0400881 0.125733)
(-0.122156 0.0266839 0.0618246)
(-0.0430599 -0.0880519 -0.178424)
(-0.00988625 0.0390009 -0.095952)
(-0.0172902 -0.0391084 -0.058881)
(-0.0405371 -0.0407447 -0.00900768)
(-0.0242956 0.0247857 0.00502538)
(-0.0351843 -0.036442 -0.208473)
(0.00766826 -0.0564485 -0.153726)
(0.0134503 -0.0272696 -0.0825052)
(-0.0131381 -0.192204 0.00982693)
(-0.169113 -0.325802 0.466972)
(-0.278963 -0.297662 0.535787)
(-0.203218 -0.307318 0.596248)
(0.0602638 -0.0834814 -0.036866)
(-0.177457 -0.214611 0.475082)
(-0.256711 -0.104014 0.404684)
(-0.200716 -0.0351454 0.340279)
(-0.0822209 -0.0280165 0.336595)
(0.0157373 0.0428815 -0.300455)
(-0.0389099 -0.0202226 0.170663)
(-0.208732 -0.114723 0.331006)
(-0.213486 0.00686274 0.226624)
(-0.14217 0.054686 0.100635)
(0.084535 0.0701786 -0.332734)
(0.0696308 0.0798887 -0.366139)
(-0.228548 0.0444342 0.0544944)
(-0.106646 0.143697 0.00992878)
(-0.00696746 0.121168 -0.300957)
(-0.0500141 0.0558374 -0.625414)
(-0.143582 0.128779 -0.264443)
(-0.142608 -0.0244846 -0.531417)
(-0.134008 0.0257932 -0.564285)
(-0.0595412 0.0920225 -0.63227)
(-0.0272472 -0.0329417 -0.226362)
(-0.190459 -0.471061 0.370928)
(-0.0671573 -0.25804 0.229014)
(0.0324247 -0.122892 -0.139178)
(0.121294 -0.109995 -0.214961)
(-0.261371 -0.163653 0.420178)
(-0.194363 -0.0378744 0.351037)
(-0.10014 0.00774837 0.184947)
(0.109305 0.00940678 -0.153094)
(0.107156 0.00732036 -0.218653)
(-0.00351004 0.00196198 -0.0017688)
(-0.133387 -0.0713177 0.335049)
(-0.267804 -0.0274316 0.314206)
(-0.198252 0.0693952 0.220717)
(-0.0884367 0.0783769 0.0702341)
(0.0837649 0.0669712 -0.27712)
(-0.000900607 0.0399879 -0.237376)
(-0.00211499 0.000427917 -0.00100517)
(-0.20491 0.0832956 0.142411)
(-0.0998198 0.156858 -0.0149256)
(-0.11847 0.0437465 -0.536586)
(5.21613e-17 -5.32357e-17 5.3224e-16)
(0.0229079 -0.0373914 -0.681021)
(-0.181582 -0.0559971 -0.539191)
(-0.141818 0.0574514 -0.561474)
(-0.0851801 0.0770278 -0.587869)
(0 0 0)
(0 0 0)
(0.0101106 -0.151758 0.0882086)
(0 0 0)
(0 0 0)
(0 0 0)
(0 0 0)
(0.0524535 0.0419374 -0.21811)
(0.0778622 0.0320428 -0.145914)
(0 0 0)
(0 0 0)
(0 0 0)
(-0.168846 -0.0608405 0.389942)
(-0.102713 0.0285011 0.35448)
(-0.0932968 -0.11672 -0.425004)
(0 0 0)
(0.0536983 -0.0835737 -0.644246)
(0 0 0)
(0.0071373 -0.0683622 0.207139)
(-0.165705 -0.0372964 -0.519242)
(-0.107542 0.0327438 -0.500161)
(-0.0381921 -0.00360208 -0.541015)
(0.0309777 -0.0241329 -0.634235)
(0 0 0)
(-0.182524 -0.0529103 -0.518416)
(-0.135127 0.050977 -0.520111)
(-0.0989361 0.0539682 -0.516034)
(0 0 0)
(0 0 0)
(0 0 0)
(0 0 0)
(0 0 0)
(0 0 0)
(0 0 0)
(0 0 0)
(0 0 0)
(0 0 0)
(0 0 0)
(0 0 0)
(0 0 0)
(0 0 0)
(0 0 0)
(0 0 0)
(0 0 0)
(0 0 0)
(0 0 0)
(1.22435e-16 1.2236e-16 4.51264e-16)
(-0.110264 0.00277081 -0.488877)
(-0.0080877 -0.0379685 -0.623704)
(0 0 0)
(0 0 0)
(-0.214171 -0.0441461 -0.438837)
(-0.163938 0.0925441 -0.492192)
(-0.0613282 0.0853161 -0.480375)
(0 0 0)
(0 0 0)
(0 0 0)
(0 0 0)
(0 0 0)
(0 0 0)
(0 0 0)
(0 0 0)
(0 0 0)
(0 0 0)
(0 0 0)
(0 0 0)
(0 0 0)
(0 0 0)
(0 0 0)
(0 0 0)
(0 0 0)
(0 0 0)
(0 0 0)
(0 0 0)
(-0.050308 -0.00508109 -0.507284)
(0 0 0)
(0 0 0)
(-0.219383 -0.00397589 -0.467614)
(-0.14463 0.0553993 -0.428342)
(0 0 0)
(0 0 0)
(0 0 0)
(0 0 0)
(0 0 0)
(0 0 0)
(0 0 0)
(0 0 0)
(0 0 0)
(0 0 0)
(0 0 0)
(0 0 0)
(0 0 0)
(0 0 0)
(0 0 0)
(0 0 0)
(0 0 0)
(0 0 0)
(0 0 0)
(4.50923e-17 4.34099e-18 4.45004e-16)
(0 0 0)
(0 0 0)
(-0.110798 -0.146257 -0.360535)
(0 0 0)
(0 0 0)
(0 0 0)
(0 0 0)
(0 0 0)
(0 0 0)
(0 0 0)
(0 0 0)
(0 0 0)
(0 0 0)
(0 0 0)
(0 0 0)
(0 0 0)
(0 0 0)
(0 0 0)
(0 0 0)
(0 0 0)
(0 0 0)
(0 0 0)
(0 0 0)
(0 0 0)
(0 0 0)
(0 0 0)
(0 0 0)
(0 0 0)
(-0.00503342 -0.00725225 -0.533302)
(0 0 0)
(0 0 0)
(0 0 0)
(0 0 0)
(0 0 0)
(0 0 0)
(0 0 0)
(0 0 0)
(0 0 0)
(0 0 0)
(0 0 0)
(0 0 0)
(0 0 0)
(0 0 0)
(0 0 0)
(0 0 0)
(0 0 0)
(0 0 0)
(0 0 0)
(0 0 0)
(0 0 0)
(0 0 0)
(0 0 0)
(0 0 0)
(0 0 0)
(0 0 0)
(0 0 0)
(0 0 0)
(0 0 0)
(0 0 0)
(0 0 0)
(0 0 0)
(0 0 0)
(0 0 0)
(0 0 0)
(0 0 0)
(0 0 0)
(0 0 0)
(0 0 0)
(0 0 0)
(0 0 0)
(0 0 0)
(0 0 0)
(0 0 0)
(0 0 0)
(0 0 0)
(0 0 0)
(0 0 0)
(0 0 0)
(0 0 0)
(0 0 0)
(0 0 0)
(0 0 0)
(0 0 0)
(0 0 0)
(0 0 0)
(0 0 0)
(0 0 0)
(0 0 0)
(0 0 0)
(0 0 0)
(0 0 0)
(0 0 0)
(0 0 0)
(0 0 0)
(0 0 0)
(0 0 0)
(0 0 0)
(0 0 0)
(0 0 0)
(0 0 0)
(0 0 0)
(0 0 0)
(0 0 0)
(0 0 0)
(0 0 0)
(0 0 0)
(0 0 0)
(0 0 0)
(0 0 0)
(0 0 0)
(0 0 0)
(0 0 0)
(0 0 0)
(0 0 0)
(0 0 0)
(0 0 0)
(0 0 0)
(0 0 0)
(0 0 0)
(0 0 0)
(0 0 0)
(0 0 0)
(0 0 0)
(0 0 0)
(0 0 0)
(0 0 0)
(0 0 0)
(0 0 0)
(0 0 0)
(0 0 0)
(0 0 0)
(0 0 0)
(0 0 0)
(0 0 0)
(0 0 0)
(0 0 0)
(0 0 0)
(0 0 0)
(0 0 0)
(0 0 0)
(0 0 0)
(0 0 0)
(0 0 0)
(0 0 0)
(0 0 0)
(0 0 0)
(0 0 0)
(0 0 0)
(0 0 0)
(0 0 0)
(0 0 0)
(0 0 0)
(0 0 0)
(0 0 0)
(0 0 0)
(0 0 0)
(0 0 0)
(0 0 0)
(0 0 0)
(0 0 0)
(0 0 0)
(0 0 0)
(0 0 0)
(0 0 0)
(0 0 0)
(0 0 0)
(0 0 0)
(0 0 0)
(0 0 0)
(0 0 0)
(0 0 0)
(0 0 0)
(0 0 0)
(0 0 0)
(0 0 0)
(0 0 0)
(0 0 0)
(0 0 0)
(0 0 0)
(0 0 0)
(0 0 0)
(0 0 0)
(0 0 0)
(0 0 0)
(0 0 0)
(0 0 0)
(0 0 0)
(0 0 0)
(0 0 0)
(0 0 0)
(0 0 0)
(0 0 0)
(0 0 0)
(0 0 0)
(0 0 0)
(0 0 0)
(0 0 0)
(0 0 0)
(0 0 0)
(0 0 0)
(0 0 0)
(0 0 0)
(0 0 0)
(0 0 0)
(0 0 0)
(0 0 0)
(0 0 0)
(0 0 0)
(0 0 0)
(0 0 0)
(0 0 0)
(0 0 0)
(0 0 0)
(0 0 0)
(0 0 0)
(0 0 0)
(0 0 0)
(0 0 0)
(0 0 0)
(0 0 0)
(0 0 0)
(0 0 0)
(0 0 0)
(0 0 0)
(0 0 0)
(0 0 0)
(0 0 0)
(0 0 0)
(0 0 0)
(0 0 0)
(0 0 0)
(0 0 0)
(0 0 0)
(0 0 0)
(0 0 0)
(0 0 0)
(0 0 0)
(0 0 0)
(0 0 0)
(0 0 0)
(0 0 0)
(0 0 0)
(0 0 0)
(0 0 0)
(0 0 0)
(0 0 0)
(0 0 0)
(0 0 0)
(0 0 0)
(0 0 0)
(0 0 0)
(0 0 0)
(0 0 0)
(0 0 0)
(0 0 0)
(0 0 0)
(0 0 0)
(0 0 0)
(0 0 0)
(0 0 0)
(0 0 0)
(0 0 0)
(0 0 0)
(0 0 0)
(0 0 0)
(0 0 0)
(0 0 0)
(0 0 0)
(0 0 0)
(0 0 0)
(0 0 0)
(0 0 0)
(0 0 0)
(0 0 0)
(0 0 0)
(0 0 0)
(0 0 0)
(0 0 0)
(0 0 0)
(0 0 0)
(0 0 0)
(0 0 0)
(0 0 0)
(0 0 0)
(0 0 0)
(0 0 0)
(0 0 0)
(0 0 0)
(0 0 0)
(0 0 0)
(0 0 0)
(0 0 0)
(0 0 0)
(0 0 0)
(0 0 0)
(0 0 0)
(0 0 0)
(0 0 0)
(0 0 0)
(0 0 0)
(0 0 0)
(0 0 0)
(0 0 0)
(0 0 0)
(0 0 0)
(0 0 0)
(0 0 0)
(0 0 0)
(0 0 0)
(0 0 0)
(0 0 0)
(0 0 0)
(0 0 0)
(0 0 0)
(0 0 0)
(0 0 0)
(0 0 0)
(0 0 0)
(0 0 0)
(0 0 0)
(0 0 0)
(0 0 0)
(0 0 0)
(0 0 0)
(0 0 0)
(0 0 0)
(0 0 0)
(0 0 0)
(0 0 0)
(0 0 0)
(0 0 0)
(0 0 0)
(0 0 0)
(0 0 0)
(0 0 0)
(0 0 0)
(0 0 0)
(0 0 0)
(0 0 0)
(0 0 0)
(0 0 0)
(0 0 0)
(0 0 0)
(0 0 0)
(0 0 0)
(0 0 0)
(0 0 0)
(0 0 0)
(0 0 0)
(0 0 0)
(0 0 0)
(0 0 0)
(0 0 0)
(0 0 0)
(0 0 0)
(0 0 0)
(0 0 0)
(0 0 0)
(0 0 0)
(0 0 0)
(0 0 0)
(0 0 0)
(0 0 0)
(0 0 0)
(0 0 0)
(0 0 0)
(0 0 0)
(0 0 0)
(0 0 0)
(0 0 0)
(0 0 0)
(0 0 0)
(0 0 0)
(0 0 0)
(0 0 0)
(0 0 0)
(0 0 0)
(0 0 0)
(0 0 0)
(0 0 0)
(0 0 0)
(0 0 0)
(0 0 0)
(0 0 0)
(0 0 0)
(0 0 0)
(0 0 0)
(0 0 0)
(0 0 0)
(0 0 0)
(0 0 0)
(0 0 0)
(0 0 0)
(0 0 0)
(0 0 0)
(0 0 0)
(0 0 0)
(0 0 0)
(0 0 0)
(0 0 0)
(0 0 0)
(0 0 0)
(0 0 0)
(0 0 0)
(0 0 0)
(0 0 0)
(0 0 0)
(0 0 0)
(0 0 0)
(0 0 0)
(0 0 0)
(0 0 0)
(0 0 0)
(0 0 0)
(0 0 0)
(0 0 0)
(0 0 0)
(0 0 0)
(0 0 0)
(0 0 0)
(0 0 0)
(0 0 0)
(0 0 0)
(0 0 0)
(0 0 0)
(0 0 0)
(0 0 0)
(0 0 0)
(0 0 0)
(0 0 0)
(0 0 0)
(0 0 0)
(0 0 0)
(0 0 0)
(0 0 0)
(0 0 0)
(0 0 0)
(0 0 0)
(0 0 0)
(0 0 0)
(0 0 0)
(0 0 0)
(0 0 0)
(0 0 0)
(0 0 0)
(0 0 0)
(0 0 0)
(0 0 0)
(0 0 0)
(0 0 0)
(0 0 0)
(0 0 0)
(0 0 0)
(0 0 0)
(0 0 0)
(0 0 0)
(0 0 0)
(0 0 0)
(0 0 0)
(0 0 0)
(0 0 0)
(0 0 0)
(0 0 0)
(0 0 0)
(0 0 0)
(0 0 0)
(0 0 0)
(0 0 0)
(0 0 0)
(0 0 0)
(0 0 0)
(0 0 0)
(0 0 0)
(0 0 0)
(0 0 0)
(0 0 0)
(0 0 0)
(0 0 0)
(0 0 0)
(0 0 0)
(0 0 0)
(0 0 0)
(0 0 0)
(0 0 0)
(0 0 0)
(0 0 0)
(0 0 0)
(0 0 0)
(0 0 0)
(0 0 0)
(0 0 0)
(0 0 0)
(0 0 0)
(0 0 0)
(0 0 0)
(0 0 0)
(0 0 0)
(0 0 0)
(0 0 0)
(0 0 0)
(0 0 0)
(0 0 0)
(0 0 0)
(0 0 0)
(0 0 0)
(0 0 0)
(0 0 0)
(0 0 0)
(0 0 0)
(0 0 0)
(0 0 0)
(0 0 0)
(0 0 0)
(0 0 0)
(0 0 0)
(0 0 0)
(0 0 0)
(0 0 0)
(0 0 0)
(0 0 0)
(0 0 0)
(0 0 0)
(0 0 0)
(0 0 0)
(0 0 0)
(0 0 0)
(0 0 0)
(0 0 0)
(0 0 0)
(0 0 0)
(0 0 0)
(0 0 0)
(0 0 0)
(0 0 0)
(0 0 0)
(0 0 0)
(0 0 0)
(0 0 0)
(0 0 0)
(0 0 0)
(0 0 0)
(0 0 0)
(0 0 0)
(0 0 0)
(0 0 0)
(0 0 0)
(0 0 0)
(0 0 0)
(0 0 0)
(0 0 0)
(0 0 0)
(0 0 0)
(0 0 0)
(0 0 0)
(0 0 0)
(0 0 0)
(0 0 0)
(0 0 0)
(0 0 0)
(0 0 0)
(0 0 0)
(0 0 0)
(0 0 0)
(0 0 0)
(0 0 0)
(0 0 0)
(0 0 0)
(0 0 0)
(0 0 0)
(0 0 0)
(0 0 0)
(0 0 0)
(0 0 0)
(0 0 0)
(0 0 0)
(0 0 0)
(0 0 0)
(0 0 0)
(0 0 0)
(0 0 0)
(0 0 0)
(0 0 0)
(0 0 0)
(0 0 0)
(0 0 0)
(0 0 0)
(0 0 0)
(0 0 0)
(0 0 0)
(0 0 0)
(0 0 0)
(0 0 0)
(0 0 0)
(0 0 0)
(0 0 0)
(0 0 0)
(0 0 0)
(0 0 0)
(0 0 0)
(0 0 0)
(0 0 0)
(0 0 0)
(0 0 0)
(0 0 0)
(0 0 0)
(0 0 0)
(0 0 0)
(0 0 0)
(0 0 0)
(0 0 0)
(0 0 0)
(0 0 0)
(0 0 0)
(0 0 0)
(0 0 0)
(0 0 0)
(0 0 0)
(0 0 0)
(0 0 0)
(0 0 0)
(0 0 0)
(0 0 0)
(0 0 0)
(0 0 0)
(0 0 0)
(0 0 0)
(0 0 0)
(0 0 0)
(0 0 0)
(0 0 0)
(0 0 0)
(0 0 0)
(0 0 0)
(0 0 0)
(0 0 0)
(0 0 0)
(0 0 0)
(0 0 0)
(0 0 0)
(0 0 0)
(0 0 0)
(0 0 0)
(0 0 0)
(0 0 0)
(0 0 0)
(0 0 0)
(0 0 0)
(0 0 0)
(0 0 0)
(0 0 0)
(0 0 0)
(0 0 0)
(0 0 0)
(0 0 0)
(0 0 0)
(0 0 0)
(0 0 0)
(0 0 0)
(0 0 0)
(0 0 0)
(0 0 0)
(0 0 0)
(0 0 0)
(0 0 0)
(0 0 0)
(0 0 0)
(0 0 0)
(0 0 0)
(0 0 0)
(0 0 0)
(0 0 0)
(0 0 0)
(0 0 0)
(0 0 0)
(0 0 0)
(0 0 0)
(0 0 0)
(0 0 0)
(0 0 0)
(0 0 0)
(0 0 0)
(0 0 0)
(0 0 0)
(0 0 0)
(0 0 0)
(0 0 0)
(0 0 0)
(0 0 0)
(0 0 0)
(0 0 0)
(0 0 0)
(0 0 0)
(0 0 0)
(0 0 0)
(0 0 0)
(0 0 0)
(0 0 0)
(0 0 0)
(0 0 0)
(0 0 0)
(0 0 0)
(0 0 0)
(0 0 0)
(0 0 0)
(0 0 0)
(0 0 0)
(0 0 0)
(0 0 0)
(0 0 0)
(0 0 0)
(0 0 0)
(0 0 0)
(0 0 0)
(0 0 0)
(0 0 0)
(0 0 0)
(0 0 0)
(0 0 0)
(0 0 0)
(0 0 0)
(0 0 0)
(0 0 0)
(0 0 0)
(0 0 0)
(0 0 0)
(0 0 0)
(0 0 0)
(0 0 0)
(0 0 0)
(0 0 0)
(0 0 0)
(0 0 0)
(0 0 0)
(0 0 0)
(0 0 0)
(0 0 0)
(0 0 0)
(0 0 0)
(0 0 0)
(0 0 0)
(0 0 0)
(0 0 0)
(0 0 0)
(0 0 0)
(0 0 0)
(0 0 0)
(0 0 0)
(0 0 0)
(0 0 0)
(0 0 0)
(0 0 0)
(0 0 0)
(0 0 0)
(0 0 0)
(0 0 0)
(0 0 0)
(0 0 0)
(0 0 0)
(0 0 0)
(0 0 0)
(0 0 0)
(0 0 0)
(0 0 0)
(0 0 0)
(0 0 0)
(0 0 0)
(0 0 0)
(0 0 0)
(0 0 0)
(0 0 0)
(0 0 0)
(0 0 0)
(0 0 0)
(0 0 0)
(0 0 0)
(0 0 0)
(0 0 0)
(0 0 0)
(0 0 0)
(0 0 0)
(0 0 0)
(0 0 0)
(0 0 0)
(0 0 0)
(0 0 0)
(0 0 0)
(0 0 0)
(0 0 0)
(0 0 0)
(0 0 0)
(0 0 0)
(0 0 0)
(0 0 0)
(0 0 0)
(0 0 0)
(0 0 0)
(0 0 0)
(0 0 0)
(0 0 0)
(0 0 0)
(0 0 0)
(0 0 0)
(0 0 0)
(0 0 0)
(0 0 0)
(0 0 0)
(0 0 0)
(0 0 0)
(0 0 0)
(0 0 0)
(0 0 0)
(0 0 0)
(0 0 0)
(0 0 0)
(0 0 0)
(0 0 0)
(0 0 0)
(0 0 0)
(0 0 0)
(0 0 0)
(0 0 0)
(0 0 0)
(0 0 0)
(0 0 0)
(0 0 0)
(0 0 0)
(0 0 0)
(0 0 0)
(0 0 0)
(0 0 0)
(0 0 0)
(0 0 0)
(0 0 0)
(0 0 0)
(0 0 0)
(0 0 0)
(0 0 0)
(0 0 0)
(0 0 0)
(0 0 0)
(0 0 0)
(0 0 0)
(0 0 0)
(0 0 0)
(0 0 0)
(0 0 0)
(0 0 0)
(0 0 0)
(0 0 0)
(0 0 0)
(0 0 0)
(0 0 0)
(0 0 0)
(0 0 0)
(0 0 0)
(0 0 0)
(0 0 0)
(0 0 0)
(0 0 0)
(0 0 0)
(0 0 0)
(0 0 0)
(0 0 0)
(0 0 0)
(0 0 0)
(0 0 0)
(0 0 0)
(0 0 0)
(0 0 0)
(0 0 0)
(0 0 0)
(0 0 0)
(0 0 0)
(0 0 0)
(0 0 0)
(0 0 0)
(0 0 0)
(0 0 0)
(0 0 0)
(0 0 0)
(0 0 0)
(0 0 0)
(0 0 0)
(0 0 0)
(0 0 0)
(0 0 0)
(0 0 0)
(0 0 0)
(0 0 0)
(0 0 0)
(0 0 0)
(0 0 0)
(0 0 0)
(0 0 0)
(0 0 0)
(0 0 0)
(0 0 0)
(0 0 0)
(0 0 0)
(0 0 0)
(0 0 0)
(0 0 0)
(0 0 0)
(0 0 0)
(0 0 0)
(0 0 0)
(0 0 0)
(0 0 0)
(0 0 0)
(0 0 0)
(0 0 0)
(0 0 0)
(0 0 0)
(0 0 0)
(0 0 0)
(0 0 0)
(0 0 0)
(0 0 0)
(0 0 0)
(0 0 0)
(0 0 0)
(0 0 0)
(0 0 0)
(0 0 0)
(0 0 0)
(0 0 0)
(0 0 0)
(0 0 0)
(0 0 0)
(0 0 0)
(0 0 0)
(0 0 0)
(0 0 0)
(0 0 0)
(0 0 0)
(0 0 0)
(0 0 0)
(0 0 0)
(0 0 0)
(0 0 0)
(0 0 0)
(0 0 0)
(0 0 0)
(0 0 0)
(0 0 0)
(0 0 0)
(0 0 0)
(0 0 0)
(0 0 0)
(0 0 0)
(0 0 0)
(0 0 0)
(0 0 0)
(0 0 0)
(0 0 0)
(0 0 0)
(0 0 0)
(0 0 0)
(0 0 0)
(0 0 0)
(0 0 0)
(0 0 0)
(0 0 0)
(0 0 0)
(0 0 0)
(0 0 0)
(0 0 0)
(0 0 0)
(0 0 0)
(0 0 0)
(0 0 0)
(0 0 0)
(0 0 0)
(0 0 0)
(0 0 0)
(0 0 0)
(0 0 0)
(0 0 0)
(0 0 0)
(0 0 0)
(0 0 0)
(0 0 0)
(0 0 0)
(0 0 0)
(0 0 0)
(0 0 0)
(0 0 0)
(0 0 0)
(0 0 0)
(0 0 0)
(0 0 0)
(0 0 0)
(0 0 0)
(0 0 0)
(0 0 0)
(0 0 0)
(0 0 0)
(0 0 0)
(0 0 0)
(0 0 0)
(0 0 0)
(0 0 0)
(0 0 0)
(0 0 0)
(0 0 0)
(0 0 0)
(0 0 0)
(0 0 0)
(0 0 0)
(0 0 0)
(0 0 0)
(0 0 0)
(0 0 0)
(0 0 0)
(0 0 0)
(0 0 0)
(0 0 0)
(0 0 0)
(0 0 0)
(0 0 0)
(0 0 0)
(0 0 0)
(0 0 0)
(0 0 0)
(0 0 0)
(0 0 0)
(0 0 0)
(0 0 0)
(0 0 0)
(0 0 0)
(0 0 0)
(0 0 0)
(0 0 0)
(0 0 0)
(0 0 0)
(0 0 0)
(0 0 0)
(0 0 0)
(0 0 0)
(0 0 0)
(0 0 0)
(0 0 0)
(0 0 0)
(0 0 0)
(0 0 0)
(0 0 0)
(0 0 0)
(0 0 0)
(0 0 0)
(0 0 0)
(0 0 0)
(0 0 0)
(0 0 0)
(0 0 0)
(0 0 0)
(0 0 0)
(0 0 0)
(0 0 0)
(0 0 0)
(0 0 0)
(0 0 0)
(0 0 0)
(0 0 0)
(0 0 0)
(0 0 0)
(0 0 0)
(0 0 0)
(0 0 0)
(0 0 0)
(0 0 0)
(0 0 0)
(0 0 0)
(0 0 0)
(0 0 0)
(0 0 0)
(0 0 0)
(0 0 0)
(0 0 0)
(0 0 0)
(0 0 0)
(0 0 0)
(0 0 0)
(0 0 0)
(0 0 0)
(0 0 0)
(0 0 0)
(0 0 0)
(0 0 0)
(0 0 0)
(0 0 0)
(0 0 0)
(0 0 0)
(0 0 0)
(0 0 0)
(0 0 0)
(0 0 0)
(0 0 0)
(0 0 0)
(0 0 0)
(0 0 0)
(0 0 0)
(0 0 0)
(0 0 0)
(0 0 0)
(0 0 0)
(0 0 0)
(0 0 0)
(0 0 0)
(0 0 0)
(0 0 0)
(0 0 0)
(0 0 0)
(0 0 0)
(0 0 0)
(0 0 0)
(0 0 0)
(0 0 0)
(0 0 0)
(0 0 0)
(0 0 0)
(0 0 0)
(0 0 0)
(0 0 0)
(0 0 0)
(0 0 0)
(0 0 0)
(0 0 0)
(0 0 0)
(0 0 0)
(0 0 0)
(0 0 0)
(0 0 0)
(0 0 0)
(0 0 0)
(0 0 0)
(0 0 0)
(0 0 0)
(0 0 0)
(0 0 0)
(0 0 0)
(0 0 0)
(0 0 0)
(0 0 0)
(0 0 0)
(0 0 0)
(0 0 0)
(0 0 0)
(0 0 0)
(0 0 0)
(0 0 0)
(0 0 0)
(0 0 0)
(0 0 0)
(0 0 0)
(0 0 0)
(0 0 0)
(0 0 0)
(0 0 0)
(0 0 0)
(0 0 0)
(0 0 0)
(0 0 0)
(0 0 0)
(0 0 0)
(0 0 0)
(0 0 0)
(0 0 0)
(0 0 0)
(0 0 0)
(0 0 0)
(0 0 0)
(0 0 0)
(0 0 0)
(0 0 0)
(0 0 0)
(0 0 0)
(0 0 0)
(0 0 0)
(0 0 0)
(0 0 0)
(0 0 0)
(0 0 0)
(0 0 0)
(0 0 0)
(0 0 0)
(0 0 0)
(0 0 0)
(0 0 0)
(0 0 0)
(0 0 0)
(0 0 0)
(0 0 0)
(0 0 0)
(0 0 0)
(0 0 0)
(0 0 0)
(0 0 0)
(0 0 0)
(0 0 0)
(0 0 0)
(0 0 0)
(0 0 0)
(0 0 0)
(0 0 0)
(0 0 0)
(0 0 0)
(0 0 0)
(0 0 0)
(0 0 0)
(0 0 0)
(0 0 0)
(0 0 0)
(0 0 0)
(0 0 0)
(0 0 0)
(0 0 0)
(0 0 0)
(0 0 0)
(0 0 0)
(0 0 0)
(0 0 0)
(0 0 0)
(0 0 0)
(0 0 0)
(0 0 0)
(0 0 0)
(0 0 0)
(0 0 0)
(0 0 0)
(0 0 0)
(0 0 0)
(0 0 0)
(0 0 0)
(0 0 0)
(0 0 0)
(0 0 0)
(0 0 0)
(0 0 0)
(0 0 0)
(0 0 0)
(0 0 0)
(0 0 0)
(0 0 0)
(0 0 0)
(0 0 0)
(0 0 0)
(0 0 0)
(0 0 0)
(0 0 0)
(0 0 0)
(0 0 0)
(0 0 0)
(0 0 0)
(0 0 0)
(0 0 0)
(0 0 0)
(0 0 0)
(0 0 0)
(0 0 0)
(0 0 0)
(0 0 0)
(0 0 0)
(0 0 0)
(0 0 0)
(0 0 0)
(0 0 0)
(0 0 0)
(0 0 0)
(0 0 0)
(0 0 0)
(0 0 0)
(0 0 0)
(0 0 0)
(0 0 0)
(0 0 0)
(0 0 0)
(0 0 0)
(0 0 0)
(0 0 0)
(0 0 0)
(0 0 0)
(0 0 0)
(0 0 0)
(0 0 0)
(0 0 0)
(0 0 0)
(0 0 0)
(0 0 0)
(0 0 0)
(0 0 0)
(0 0 0)
(0 0 0)
(0 0 0)
(0 0 0)
(0 0 0)
(0 0 0)
(0 0 0)
(0 0 0)
(0 0 0)
(0 0 0)
(0 0 0)
(0 0 0)
(0 0 0)
(0 0 0)
(0 0 0)
(0 0 0)
(0 0 0)
(0 0 0)
(0 0 0)
(0 0 0)
(0 0 0)
(0 0 0)
(0 0 0)
(0 0 0)
(0 0 0)
(0 0 0)
(0 0 0)
(0 0 0)
(0 0 0)
(0 0 0)
(0 0 0)
(0 0 0)
(0 0 0)
(0 0 0)
(0 0 0)
(0 0 0)
(0 0 0)
(0 0 0)
(0 0 0)
(0 0 0)
(0 0 0)
(0 0 0)
(0 0 0)
(0 0 0)
(0 0 0)
(0 0 0)
(0 0 0)
(0 0 0)
(0 0 0)
(0 0 0)
(0 0 0)
(0 0 0)
(0 0 0)
(0 0 0)
(0 0 0)
(0 0 0)
(0 0 0)
(0 0 0)
(0 0 0)
(0 0 0)
(0 0 0)
(0 0 0)
(0 0 0)
(0 0 0)
(0 0 0)
(0 0 0)
(0 0 0)
(0 0 0)
(0 0 0)
(0 0 0)
(0 0 0)
(0 0 0)
(0 0 0)
(0 0 0)
(0 0 0)
(0 0 0)
(0 0 0)
(0 0 0)
(0 0 0)
(0 0 0)
(0 0 0)
(0 0 0)
(0 0 0)
(0 0 0)
(0 0 0)
(0 0 0)
(0 0 0)
(0 0 0)
(0 0 0)
(0 0 0)
(0 0 0)
(0 0 0)
(0 0 0)
(0 0 0)
(0 0 0)
(0 0 0)
(0 0 0)
(0 0 0)
(0 0 0)
(0 0 0)
(0 0 0)
(0 0 0)
(0 0 0)
(0 0 0)
(0 0 0)
(0 0 0)
(0 0 0)
(0 0 0)
(0 0 0)
(0 0 0)
(0 0 0)
(0 0 0)
(0 0 0)
(0 0 0)
(0 0 0)
(0 0 0)
(0 0 0)
(0 0 0)
(0 0 0)
(0 0 0)
(0 0 0)
(0 0 0)
(0 0 0)
(0 0 0)
(0 0 0)
(0 0 0)
(0 0 0)
(0 0 0)
(0 0 0)
(0 0 0)
(0 0 0)
(0 0 0)
(0 0 0)
(0 0 0)
(0 0 0)
(0 0 0)
(0 0 0)
(0 0 0)
(0 0 0)
(0 0 0)
(0 0 0)
(0 0 0)
(0 0 0)
(0 0 0)
(0 0 0)
(0 0 0)
(0 0 0)
(0 0 0)
(0 0 0)
(0 0 0)
(0 0 0)
(0 0 0)
(0 0 0)
(0 0 0)
(0 0 0)
(0 0 0)
(0 0 0)
(0 0 0)
(0 0 0)
(0 0 0)
(0 0 0)
(0 0 0)
(0 0 0)
(0 0 0)
(0 0 0)
(0 0 0)
(0 0 0)
(0 0 0)
(0 0 0)
(0 0 0)
(0 0 0)
(0 0 0)
(0 0 0)
(0 0 0)
(0 0 0)
(0 0 0)
(0 0 0)
(0 0 0)
(0 0 0)
(0 0 0)
(0 0 0)
(0 0 0)
(0 0 0)
(0 0 0)
(0 0 0)
(0 0 0)
(0 0 0)
(0 0 0)
(0 0 0)
(0 0 0)
(0 0 0)
(0 0 0)
(0 0 0)
(0 0 0)
(0 0 0)
(0 0 0)
(0 0 0)
(0 0 0)
(0 0 0)
(0 0 0)
(0 0 0)
(0 0 0)
(0 0 0)
(0 0 0)
(0 0 0)
(0 0 0)
(0 0 0)
(0 0 0)
(0 0 0)
(0 0 0)
(0 0 0)
(0 0 0)
(0 0 0)
(0 0 0)
(0 0 0)
(0 0 0)
(0 0 0)
(0 0 0)
(0 0 0)
(0 0 0)
(0 0 0)
(0 0 0)
(0 0 0)
(0 0 0)
(0 0 0)
(0 0 0)
(0 0 0)
(0 0 0)
(0 0 0)
(0 0 0)
(0 0 0)
(0 0 0)
(0 0 0)
(0 0 0)
(0 0 0)
(0 0 0)
(0 0 0)
(0 0 0)
(0 0 0)
(0 0 0)
(0 0 0)
(0 0 0)
(0 0 0)
(0 0 0)
(0 0 0)
(0 0 0)
(0 0 0)
(0 0 0)
(0 0 0)
(0 0 0)
(0 0 0)
(0 0 0)
(0 0 0)
(0 0 0)
(0 0 0)
(0 0 0)
(0 0 0)
(0 0 0)
(0 0 0)
(0 0 0)
(0 0 0)
(0 0 0)
(0 0 0)
(0 0 0)
(0 0 0)
(0 0 0)
(0 0 0)
(0 0 0)
(0 0 0)
(0 0 0)
(0 0 0)
(0 0 0)
(0 0 0)
(0 0 0)
(0 0 0)
(0 0 0)
(0 0 0)
(0 0 0)
(0 0 0)
(0 0 0)
(0 0 0)
(0 0 0)
(0 0 0)
(0 0 0)
(0.0151329 0.0146664 -0.0153002)
(0.023622 0.0220224 -0.0182118)
(0.000969857 0.0496693 -0.0386983)
(0.0403214 0.0429433 -0.0268787)
(0.0397742 0.0295532 -0.0152259)
(0.0612329 0.0573496 -0.0245911)
(0.0257313 0.036775 -0.0188323)
(0.00178781 0.0161021 -0.0254096)
(0.0521422 -0.0565695 -0.0468776)
(0.0435108 -0.0218383 -0.0150018)
(0.0475489 -0.0117165 -0.0332525)
(0.0865407 -0.108179 -0.0693217)
(0.0429527 -0.112506 -0.0317593)
(0.0290116 0.00579156 -0.0334871)
(0.0932047 -0.0508846 -0.0189113)
(0.05046 -0.151101 -0.00739357)
(0.044435 -0.132647 -0.0157491)
(0.0409723 0.0830429 -0.0493151)
(0.00939541 0.0593044 -0.00547647)
(-0.0010973 -0.0512353 -0.00303704)
(-0.0220047 -0.0403493 0.00168089)
(0.00873235 0.010351 -0.000956381)
(0.00385273 -0.00639672 -0.0131146)
(-0.00704804 -0.0487454 0.000434888)
(-0.00274264 -0.0488464 0.00665245)
(-0.0110897 -0.0655601 0.0166359)
(0.0573331 -0.0564742 -0.0623797)
(0.0254732 -0.0183645 -0.0262346)
(0.0653984 -0.0795918 -0.0677478)
(0.0930483 -0.0963086 -0.070888)
(0.121498 -0.178762 -0.0291827)
(0.129419 -0.129089 -0.0683487)
(0.160905 -0.236989 -0.0128113)
(0.0759657 -0.227938 0.00281992)
(-0.0437513 -0.12631 0.00182304)
(0.104951 -0.298755 -0.00704263)
(-0.0125109 -0.239505 -0.00537538)
(-0.0278086 -0.110072 0.0070004)
(-0.0200333 -0.110341 0.0086491)
(0.0248021 -0.218759 0.0302352)
(0.0394217 -0.210524 0.0262103)
(0.00111829 -0.108779 0.0119961)
(0.0150445 -0.0968693 0.0212898)
(0.0648323 -0.191688 0.0358425)
(0.083699 -0.218177 0.0335837)
(-0.00532466 -0.12636 0.027872)
(0.0208678 -0.203007 0.0371532)
(-0.0123471 -0.126417 0.0108614)
(0.0149009 -0.0166246 -0.0158488)
(0.0586356 -0.0753905 -0.0348379)
(0.0519236 -0.0418415 -0.0207296)
(0.118833 -0.139326 -0.0203118)
(0.128882 -0.21563 -0.00930136)
(0.0842246 -0.102298 -0.0152639)
(0.0741835 -0.175616 -0.0140242)
(0.0660866 -0.265582 -0.0246719)
(0.0147497 -0.28414 -0.026213)
(0.0291055 -0.188117 -0.000119856)
(0.018025 -0.214236 0.00264655)
(0.0335916 -0.288855 0.000685173)
(0.0586378 -0.311416 -0.00688198)
(0.0323188 -0.222196 -0.0209669)
(0.0551802 -0.208134 -0.000865699)
(0.115751 -0.317389 -0.00198762)
(0.154719 -0.355095 -0.0587575)
(0.0995384 -0.231978 -0.00958909)
(0.14467 -0.277128 -0.0735155)
(0.0655985 -0.254715 0.00134023)
(0.0191749 -0.155118 0.00946443)
(0.0764795 -0.210634 -0.0232142)
(0.0222503 -0.0194403 -0.0169555)
(0.0357155 -0.0472038 -0.0125852)
(0.0285315 -0.118591 -0.0111285)
(0.00697761 -0.0176698 -0.0172581)
(0.00314316 -0.0503939 -0.0153269)
(0.000840498 -0.138201 -0.00854944)
(0.00463054 -0.141122 -0.0171899)
(-0.019535 -0.0803656 -0.0191104)
(-0.00052344 -0.0809255 -0.0158734)
(0.0204218 -0.151789 -0.0267953)
(0.0602982 -0.145379 -0.00512987)
(0.0231308 -0.0910764 -0.0286975)
(0.0564566 -0.0875159 -0.0248194)
(0.0922866 -0.15532 -0.0179291)
(0.122908 -0.168326 -0.0523955)
(0.0684608 -0.0916857 -0.0322706)
(0.0877083 -0.110509 -0.0559783)
(0.0640882 -0.144032 -0.0412276)
(0.00656428 -0.0147985 -0.0160262)
(-0.0160744 -0.0269807 -0.00743699)
(-0.00446259 -0.0289187 -0.0165282)
(0.00211147 -0.0115774 -0.00779191)
(0.0172273 -0.0278301 -0.00687335)
(0.0357254 -0.0387526 -0.00925098)
(0.00919474 -0.0145379 -0.0065494)
(0.0148547 -0.0379928 -0.0136023)
(0.0188367 0.00942779 0.0323273)
(0.0164964 0.00848722 0.0696862)
(-0.0309555 0.0244229 -0.0305222)
(0.00717114 0.0410935 0.0327202)
(-0.00273539 0.0540618 0.0298035)
(-0.0613558 0.00900126 -0.000517649)
(0.00248504 0.0342186 0.0637345)
(-0.0394476 0.0421282 0.0627631)
(-0.00638265 0.0484632 0.0175778)
(-0.0391805 0.0131782 -0.0563679)
(-0.0946146 -0.00140794 0.00517997)
(-0.0734075 0.0266823 0.0724204)
(-0.089003 -0.0169004 0.0153657)
(-0.0314593 0.0134615 -0.101226)
(-0.0712304 -0.0387163 -0.0262803)
(0.0773081 -0.128419 -0.00291046)
(0.0626683 -0.0787359 0.0963905)
(0.0813018 -0.0472026 0.0413795)
(0.109239 -0.137435 0.015464)
(0.0982434 -0.116312 0.0319211)
(0.0712758 -0.049685 0.11943)
(0.0733924 -0.0129626 0.141099)
(0.106253 -0.0898005 0.128668)
(0.101895 -0.146625 0.12457)
(0.0275175 0.0259623 -0.0820178)
(0.00644281 -0.091319 -0.0158625)
(0.0440449 -0.158519 -0.00260761)
(-0.0407216 -0.0169257 0.0184537)
(-0.0382117 -0.0264957 -0.0105332)
(0.0383246 -0.250697 0.0710123)
(0.0574132 -0.3067 0.0503759)
(0.0184164 -0.324668 0.0408308)
(0.108254 -0.355539 0.0869266)
(0.0819556 -0.0763055 -0.0072989)
(0.0406444 -0.0464928 -0.0164499)
(0.0826724 -0.0576717 0.00416604)
(0.0649315 -0.0650556 0.115662)
(0.0347273 -0.0386165 0.0538259)
(0.0831214 -0.0401922 0.089406)
(0.0568327 -0.319812 0.0820475)
(-0.00174783 -0.253379 0.0915649)
(0.0452264 -0.297822 0.104946)
(0.0211407 -0.187748 -0.0135228)
(-0.000224413 -0.25896 0.124611)
(0.0615855 -0.0596122 0.00117929)
(0.0439429 -0.0610605 -0.0305057)
(0.0150785 -0.0309201 0.00586759)
(0.0504444 -0.0569566 0.031931)
(0.00716397 -0.0792798 -0.00839035)
(0.0553684 -0.290344 0.0776103)
(0.119445 -0.261209 -0.0494259)
(0.0700539 -0.229231 -0.0359355)
(0.0503372 -0.209712 0.00614081)
(0.103674 -0.232871 -0.0513144)
(0.0133681 -0.0486109 -0.0670027)
(-0.029377 -0.0756079 -0.0369506)
(-0.0080663 -0.160942 -0.0606706)
(-0.0337814 -0.0651781 -0.0942902)
(-0.0531774 -0.0944909 -0.106385)
(-0.0493856 -0.130969 -0.0288188)
(-0.072343 -0.182603 -0.020277)
(-0.0748503 -0.0894642 -0.0550456)
(-0.0956129 -0.111915 -0.06156)
(0.157397 -0.204336 -0.127462)
(0.132096 -0.119252 -0.143451)
(0.138177 -0.126538 -0.145008)
(0.090044 -0.20285 -0.0683048)
(0.12679 -0.197804 -0.0781836)
(0.104115 -0.117747 -0.086298)
(0.111666 -0.122431 -0.0894323)
(0.103212 -0.184537 -0.0679226)
(-0.0613079 -0.0474356 -0.140264)
(-0.0928711 -0.0642753 -0.0788852)
(-0.0115992 -0.0686057 -0.108124)
(0 0 0)
(-0.0658053 -0.0772183 -0.0667155)
(-0.0261923 -0.0824884 -0.0654598)
(-0.00652863 -0.0215568 -0.0380659)
(0.0692715 -0.0844801 -0.131715)
(0.0380305 -0.0331832 -0.142918)
(0.0204845 -0.0857869 -0.0879845)
(0.0732977 -0.0844212 -0.0839388)
(0.0123554 -0.0367433 -0.0456185)
(0.0969367 -0.0714072 -0.0945358)
(0.0180267 -0.00604407 0.0981867)
(0.014786 -0.0259579 0.139719)
(-0.0877992 0.0101184 0.0402078)
(-0.01544 0.0170731 0.0948723)
(-0.0971627 0.0265856 0.125079)
(-0.116371 0.0129781 0.0658504)
(-0.0512396 -0.0086407 0.159533)
(-0.155745 0.0127251 0.195231)
(-0.165127 -0.0137599 0.121652)
(-0.137608 -0.0444665 0.0593433)
(-0.142206 -0.0083792 0.0712625)
(-0.203558 -0.0477588 0.170463)
(-0.171987 -0.0662369 0.0967443)
(-0.109069 -0.0592552 0.0212339)
(-0.128843 -0.0646284 0.049334)
(0.0570792 -0.0632788 0.180362)
(0.0503029 -0.0667995 0.182228)
(0.0787046 -0.0403674 0.217535)
(0.108351 -0.0808763 0.235277)
(0.0881156 -0.135891 0.234811)
(0.0697809 -0.0666531 0.194844)
(0.0531424 -0.0900929 0.284582)
(0.0954365 -0.108201 0.284219)
(0.0549828 -0.181077 0.335692)
(-0.0877407 -0.0552801 0.0357626)
(0.0245597 -0.275799 0.168462)
(-0.0558031 -0.128028 0.077032)
(-0.168449 -0.0901609 0.127633)
(-0.108388 -0.0649627 0.0798161)
(-0.0367775 -0.259122 0.275255)
(-0.149196 -0.0957161 0.151764)
(-0.045362 -0.126591 0.038046)
(-0.108521 -0.0938555 0.136801)
(0.0576651 -0.0550459 0.204385)
(0.0241695 -0.0481393 0.0972137)
(0.0712039 -0.0412786 0.162371)
(0.0455096 -0.0676684 0.251468)
(0.0120539 -0.0609916 0.113625)
(0.0449873 -0.0781481 0.211936)
(-0.0407367 -0.13266 0.00684565)
(-0.016021 -0.110126 0.00896861)
(-0.0780282 -0.117407 0.108408)
(-0.036824 -0.109391 0.090496)
(-0.0114379 -0.0877153 0.0683882)
(0.0313063 -0.0897676 0.0800274)
(-0.0154813 -0.103222 0.0132714)
(-0.000373358 -0.0764517 0.0580569)
(0.0115516 -0.123154 0.0969366)
(-0.0156329 -0.112274 0.00304154)
(0.0108396 -0.101857 0.0127681)
(0.0303866 -0.117361 -0.0205341)
(-0.0690012 -0.038869 0.0311296)
(0.000623515 -0.0603157 0.0852179)
(-0.00467086 -0.0166578 0.0178751)
(-0.0408831 -0.0905449 -0.016859)
(-0.0385437 -0.0900987 -0.0304875)
(-0.0923723 -0.200257 0.0378905)
(-0.0813866 -0.0993995 -0.0282761)
(-0.10733 -0.128297 -0.00598923)
(-0.0525778 -0.151379 -0.016118)
(-0.0808838 -0.208872 0.0444581)
(-0.0727204 -0.0944999 -0.0465768)
(-0.0920984 -0.126632 -0.0353047)
(0.074003 -0.141 -0.0115409)
(0.0475333 -0.106228 -0.0152483)
(0.055888 -0.0914848 -0.0200257)
(0.0262674 -0.132311 0.0159882)
(0.0215362 -0.0748293 0.0128164)
(0.0498827 -0.0902362 0.00884767)
(0.0371196 -0.0594289 0.0180005)
(0.0113424 -0.0177258 -0.0081568)
(-0.100336 -0.0725696 -0.0328962)
(-0.0839945 -0.0575429 -0.044453)
(-0.044084 -0.0962722 -0.014154)
(-0.019324 -0.0285803 -0.00180273)
(-0.0701863 -0.0493985 -0.0314764)
(-0.0333467 -0.0640697 -0.029798)
(-0.0140486 -0.0173065 0.0135531)
(0.0596132 -0.0988489 -0.0157526)
(0.0132102 -0.033371 -0.00434436)
(0.0190716 -0.0621621 -0.017481)
(0.0461271 -0.0411695 0.00690539)
(0.0114603 -0.0192355 0.015651)
(0.0595755 -0.0417586 0.0103721)
(-0.0587491 -0.0577882 0.217775)
(-0.161887 -0.101347 0.328526)
(-0.128316 0.00780979 0.0913385)
(-0.11643 -0.0501097 0.245999)
(-0.19155 -0.00477727 0.245875)
(-0.125747 0.000191919 0.136621)
(-0.171113 -0.0876326 0.368075)
(-0.216438 -0.0504403 0.327567)
(-0.21745 -0.0838811 0.208328)
(-0.183075 -0.088024 0.145151)
(-0.144586 -0.0171368 0.116496)
(-0.223726 -0.0898753 0.256015)
(-0.154474 -0.0939333 0.188441)
(-0.126252 -0.0608647 0.0473557)
(-0.0772096 -0.0281746 0.0225855)
(0.0397315 -0.0951012 0.201646)
(-0.0194698 -0.149693 0.205993)
(-0.0323596 -0.176263 0.383394)
(0.0295369 -0.180649 0.374239)
(-0.0256315 -0.294702 0.411549)
(-0.0494406 -0.235557 0.312672)
(-0.133955 -0.306445 0.464537)
(-0.064015 -0.272651 0.414363)
(-0.106211 -0.379694 0.465615)
(-0.12147 -0.0602609 0.0821613)
(-0.111697 -0.236132 0.391347)
(-0.193958 -0.0995801 0.233138)
(-0.211786 -0.108913 0.216289)
(-0.0984088 -0.0460179 0.0572391)
(-0.24891 -0.183631 0.436554)
(-0.204368 -0.0962501 0.215587)
(-0.110781 -0.115771 0.111595)
(-0.0849744 -0.0551659 0.0794589)
(0.0229863 -0.0777519 0.271473)
(0.00254088 -0.0584366 0.132057)
(0.00012501 -0.0862912 0.243853)
(-0.0428269 -0.10593 0.291423)
(-0.0190185 -0.0133332 0.100114)
(-0.0601613 -0.0853188 0.311514)
(-0.0772208 -0.0468362 0.221576)
(-0.00663159 -0.0431867 0.183373)
(-0.0985025 -0.0256481 0.194177)
(-0.124543 0.00636812 0.21431)
(-0.0291616 0.0211146 0.11184)
(0.00132278 -0.128366 0.0982678)
(-0.00452081 -0.103802 -0.0261346)
(0.00208688 -0.0575926 0.00463986)
(-0.00700629 -0.0973204 0.0877541)
(0.0128811 -0.0813856 -0.0695094)
(-0.00971113 -0.00517543 0.18879)