/*--------------------------------*- C++ -*----------------------------------*\
| =========                 |                                                 |
| \\      /  F ield         | OpenFOAM: The Open Source CFD Toolbox           |
|  \\    /   O peration     | Version:  5.x                                   |
|   \\  /    A nd           | Web:      www.OpenFOAM.org                      |
|    \\/     M anipulation  |                                                 |
\*---------------------------------------------------------------------------*/
FoamFile
{
    version     2.0;
    format      ascii;
    class       volScalarField;
    location    "6.7";
    object      p;
}
// * * * * * * * * * * * * * * * * * * * * * * * * * * * * * * * * * * * * * //

dimensions      [0 2 -2 0 0 0 0];

internalField   nonuniform List<scalar> 
10571
(
62.6324
79.7173
68.6941
68.6796
85.8749
73.6625
72.9103
69.4778
66.4234
76.9337
71.9934
87.0857
95.1876
92.1274
75.5559
81.1391
100.085
110.783
106.889
86.1456
85.5407
92.733
81.4171
81.1541
60.3695
64.6697
63.0766
61.2479
59.3387
68.7828
66.7848
64.2403
65.1668
59.49
70.7033
70.129
63.3277
45.1199
63.9313
59.5187
73.4185
40.303
47.4111
67.733
61.2425
72.6962
72.746
67.7463
53.9826
43.7073
50.7329
50.761
46.3219
48.1994
5.43452
6.25558
4.64275
36.4032
42.933
44.9459
3.09011
2.7259
3.08264
29.273
15.2088
2.38372
2.42473
5.2416
10.9284
2.89351
4.34452
3.95985
2.12283
1.99581
2.50724
2.59854
2.00621
1.92829
1.61257
1.64822
1.50317
1.4333
1.94468
2.04483
2.03833
2.36853
1.96668
1.84471
2.31554
2.2595
2.25517
2.43902
2.32658
2.55439
2.66566
2.63672
2.69032
2.44126
2.61218
2.7065
2.5813
2.42572
2.93051
3.02376
2.98956
2.50327
2.43558
2.43073
2.67896
2.72576
2.6289
2.4289
2.42147
2.49302
2.55406
2.38123
2.40184
2.44512
2.47683
2.47053
2.50332
2.50168
2.51739
2.54381
2.52768
2.49569
2.48304
2.56681
2.49864
2.49212
2.52369
2.48404
2.48265
2.4666
2.54321
2.45661
2.48677
2.50846
2.45479
2.44437
2.46688
2.44784
2.45207
2.45809
2.47481
2.47695
2.52704
2.50895
2.51612
2.53647
2.53297
2.49887
2.50443
2.52835
2.5242
2.53032
2.53429
2.50082
2.48963
2.47765
2.50242
2.48729
2.50209
2.52973
2.47016
2.45103
2.46237
2.42999
2.4695
2.52174
2.46558
2.47199
2.46994
2.54043
2.50368
2.51736
2.52687
2.5267
2.48535
2.49127
2.5396
2.51922
2.50762
2.52814
2.49036
2.48512
2.48541
2.50355
2.51301
2.50652
2.52874
2.4801
2.4566
2.46636
2.4382
2.46519
2.51979
2.47025
2.47072
2.4728
2.52801
2.49016
2.5114
2.51935
2.50978
2.468
2.46913
2.52446
2.48863
2.4925
2.53383
2.48291
2.48063
2.49229
2.4987
2.52034
2.50201
2.53727
2.48697
2.46606
2.47444
2.45878
2.46822
2.47906
2.4765
2.48094
2.51221
2.48152
2.49517
2.5077
2.49215
2.45578
2.45753
2.50126
2.46785
2.46714
2.48049
2.48113
2.49909
2.49301
2.51117
2.49378
2.49046
2.48184
2.48708
2.47803
2.48124
2.49346
2.48668
2.48977
2.50111
2.48171
2.48402
2.49773
2.48008
2.46395
2.45951
2.49198
2.47395
2.48431
2.48824
2.48887
2.50729
2.49588
2.50052
2.49707
2.49459
2.49612
2.50168
2.49121
2.49232
2.50743
2.49748
2.49779
2.49884
2.48975
2.48256
2.49535
2.48258
2.49045
2.47531
2.49155
2.49936
2.49651
2.50015
2.50127
2.51273
2.5043
2.50587
2.50339
2.50058
2.50316
2.50972
2.50234
2.50033
2.51178
2.50583
2.50441
2.5028
2.50084
2.49117
2.49931
2.49733
2.51675
2.49288
2.49455
2.52174
2.51243
2.50739
2.50756
2.51383
2.50861
2.51217
2.51002
2.50647
2.50484
2.50902
2.51302
2.50709
2.50853
2.50786
2.51011
2.50852
2.51
2.50242
2.50513
2.51033
2.52629
2.51286
2.4993
2.53182
2.51553
2.51096
2.51023
2.51187
2.5103
2.51046
2.511
2.5092
2.5055
2.50755
2.51809
2.511
2.50886
2.50999
2.51381
2.51158
2.51462
2.50784
2.50825
2.51407
2.52418
2.52782
2.50175
2.52862
2.51381
2.51628
2.51047
2.51084
2.51321
2.50695
2.51022
2.5115
2.50902
2.5067
2.51595
2.51235
2.51005
2.51196
2.51323
2.51143
2.51661
2.50899
2.50884
2.5127
2.52143
2.53194
2.50761
2.51917
2.51273
2.5236
2.50973
2.51234
2.51354
2.50241
2.50789
2.50866
2.51528
2.50274
2.51169
2.51094
2.51132
2.51017
2.51101
2.51019
2.51657
2.5091
2.50868
2.50617
2.52219
2.52431
2.51534
2.51429
2.51251
2.52926
2.52353
2.51289
2.5118
2.50105
2.50585
2.51708
2.51667
2.50921
2.50741
2.50826
2.51199
2.51194
2.51185
2.50906
2.51416
2.50874
2.50864
2.50093
2.51968
2.51682
2.51851
2.5152
2.51202
2.52379
2.53469
2.51462
2.50951
2.50342
2.50546
2.52409
2.51261
2.51477
2.50849
2.50865
2.51144
2.51348
2.51443
2.50621
2.51079
2.50912
2.50527
2.50002
2.51363
2.51242
2.51669
2.51328
2.51108
2.51643
2.5265
2.51036
2.50703
2.50473
2.50614
2.51683
2.50635
2.51417
2.50794
2.51056
2.51017
2.51361
2.51422
2.50438
2.50781
2.51049
2.50314
2.49943
2.50746
2.51004
2.50824
2.5087
2.51009
2.50796
2.5129
2.50462
2.50115
2.50516
2.50726
2.50838
2.50181
2.50864
2.50414
2.5104
2.50941
2.51383
2.51001
2.50498
2.50546
2.50984
2.50439
2.49917
2.50162
2.50523
2.49678
2.50421
2.50993
2.50086
2.49791
2.49552
2.49064
2.5076
2.5079
2.50217
2.4965
2.50099
2.50555
2.51089
2.50591
2.50729
2.50427
2.50764
2.50483
2.50823
2.50421
2.49896
2.49827
2.49971
2.4895
2.49914
2.5107
2.49833
2.48837
2.48896
2.48745
2.50857
2.50841
2.50084
2.4916
2.49827
2.51217
2.51096
2.50264
2.49957
2.50479
2.51361
2.50726
2.51049
2.50756
2.50157
2.50036
2.50607
2.50223
2.49939
2.51314
2.50007
2.49239
2.49385
2.49829
2.51079
2.50992
2.50332
2.49374
2.50072
2.50964
2.51138
2.50325
2.49868
2.50766
2.51904
2.51085
2.51456
2.51398
2.50757
2.50596
2.51699
2.5162
2.50869
2.51775
2.50186
2.49601
2.50323
2.51378
2.51194
2.5124
2.50614
2.50067
2.50623
2.50771
2.5134
2.50745
2.50402
2.50956
2.52143
2.51313
2.51789
2.51919
2.51589
2.50634
2.52074
2.52296
2.5148
2.52194
2.50138
2.49545
2.512
2.52632
2.51116
2.51525
2.50774
2.50655
2.51071
2.50891
2.51654
2.51113
2.50968
2.51312
2.52548
2.51459
2.51903
2.52234
2.52175
2.5034
2.52108
2.5226
2.51487
2.52387
2.5037
2.49128
2.52019
2.52501
2.51115
2.51868
2.50921
2.50986
2.51534
2.5133
2.51958
2.51493
2.51603
2.51782
2.52652
2.51735
2.52008
2.52168
2.52247
2.50778
2.52125
2.51832
2.51199
2.52415
2.51563
2.49914
2.52356
2.52381
2.51816
2.52195
2.51779
2.51504
2.52149
2.51927
2.5218
2.52065
2.52169
2.52284
2.5257
2.52227
2.52221
2.52287
2.52148
2.51537
2.51968
2.51525
2.51136
2.52471
2.53212
2.51422
2.52507
2.5246
2.52516
2.52457
2.53064
2.52486
2.52877
2.52354
2.52357
2.52823
2.52801
2.52781
2.52862
2.52928
2.52516
2.52592
2.52227
2.52147
2.51759
2.51349
2.51543
2.52728
2.54012
2.52923
2.53115
2.5278
2.53155
2.52931
2.53855
2.53509
2.53476
2.52592
2.52739
2.5362
2.53467
2.53488
2.53408
2.53607
2.53048
2.53109
2.52596
2.52671
2.51823
2.51561
2.52387
2.53192
2.54478
2.54063
2.53601
2.53382
2.53576
2.53618
2.54487
2.53959
2.53737
2.53148
2.53398
2.54188
2.5395
2.54051
2.54118
2.54121
2.53754
2.53819
2.53085
2.53182
2.52507
2.52459
2.53191
2.53723
2.5455
2.54708
2.53956
2.53896
2.53914
2.54309
2.5503
2.54279
2.54139
2.53865
2.54041
2.54651
2.54338
2.54346
2.54727
2.54455
2.54423
2.54437
2.53481
2.53533
2.53332
2.53284
2.53762
2.54198
2.54323
2.54145
2.54508
2.54416
2.54611
2.5494
2.55548
2.5464
2.54533
2.54339
2.54659
2.5504
2.54672
2.54546
2.55056
2.54717
2.54843
2.54767
2.5376
2.53896
2.53928
2.5376
2.54153
2.54466
2.54035
2.53437
2.54411
2.54416
2.54898
2.55432
2.55288
2.55009
2.54757
2.54708
2.55215
2.55944
2.55498
2.5537
2.55091
2.54815
2.55047
2.54778
2.5392
2.54314
2.54021
2.53854
2.54217
2.54503
2.53996
2.53275
2.53766
2.54136
2.5469
2.55431
2.54434
2.54513
2.54565
2.54777
2.55348
2.55761
2.55526
2.55527
2.54875
2.54851
2.55006
2.54658
2.54035
2.54484
2.5439
2.53778
2.54132
2.54408
2.5418
2.53781
2.53557
2.53707
2.54345
2.55184
2.54114
2.53689
2.542
2.54538
2.55078
2.55053
2.54929
2.55232
2.54487
2.54712
2.55064
2.54476
2.54267
2.54328
2.54362
2.53814
2.54049
2.54264
2.54317
2.5407
2.53755
2.53499
2.54075
2.5487
2.54093
2.53538
2.53956
2.54286
2.54759
2.54601
2.54492
2.54814
2.54211
2.54377
2.54404
2.53888
2.54456
2.54218
2.54227
2.53745
2.53981
2.54113
2.54316
2.5412
2.5392
2.53489
2.53883
2.54556
2.5405
2.53623
2.53723
2.54002
2.54476
2.54342
2.54207
2.54436
2.5435
2.54131
2.54139
2.54174
2.54288
2.54079
2.5405
2.53722
2.53723
2.53942
2.54212
2.54052
2.53967
2.53476
2.53728
2.54256
2.54009
2.53639
2.53521
2.53763
2.54194
2.5401
2.53995
2.5412
2.54087
2.5392
2.53913
2.53989
2.53936
2.53949
2.53734
2.5351
2.53423
2.53722
2.54133
2.5392
2.53778
2.53371
2.53648
2.53961
2.53942
2.53256
2.53322
2.5356
2.53908
2.53421
2.5365
2.53828
2.53632
2.53702
2.53575
2.53485
2.5347
2.5376
2.53325
2.53229
2.53322
2.53407
2.53924
2.53726
2.53413
2.53176
2.53571
2.53679
2.5353
2.52794
2.53054
2.53406
2.53647
2.5283
2.53258
2.53555
2.53279
2.53475
2.53304
2.53069
2.53323
2.53496
2.52906
2.5282
2.5312
2.52992
2.53633
2.53481
2.52988
2.5296
2.53403
2.53357
2.53064
2.52523
2.52849
2.53244
2.53436
2.52579
2.5294
2.53317
2.53065
2.53248
2.53116
2.52843
2.53215
2.53159
2.52475
2.52506
2.52929
2.52662
2.5331
2.53141
2.52758
2.52791
2.53111
2.53079
2.52782
2.52381
2.52755
2.53134
2.53296
2.52512
2.52789
2.53172
2.52917
2.53045
2.52979
2.52747
2.53014
2.52821
2.52175
2.52729
2.53024
2.52784
2.53031
2.52842
2.52687
2.52721
2.52872
2.5301
2.52691
2.52336
2.52786
2.53121
2.53239
2.52604
2.52762
2.5315
2.52874
2.52933
2.52948
2.52787
2.52847
2.52639
2.5244
2.53038
2.52877
2.53164
2.52903
2.52771
2.52694
2.52609
2.52775
2.53237
2.52775
2.52387
2.52885
2.53192
2.53285
2.52761
2.52799
2.53208
2.52902
2.52942
2.52986
2.52874
2.52689
2.52718
2.52788
2.53015
2.52654
2.53461
2.52977
2.5289
2.52759
2.52672
2.52941
2.53812
2.52927
2.52473
2.53017
2.53279
2.53404
2.52906
2.52876
2.53282
2.52997
2.53037
2.53017
2.52948
2.52683
2.52931
2.52988
2.52972
2.5239
2.53395
2.53096
2.53016
2.52915
2.52866
2.53186
2.54131
2.53046
2.52535
2.53125
2.53324
2.5357
2.5308
2.52999
2.53399
2.53122
2.53137
2.53066
2.53052
2.52847
2.53128
2.53093
2.52969
2.52293
2.53082
2.53224
2.53148
2.53001
2.53007
2.53217
2.53465
2.53137
2.52698
2.53175
2.53311
2.53479
2.53275
2.53161
2.53452
2.53215
2.53197
2.5314
2.5314
2.53026
2.53185
2.53149
2.52897
2.52621
2.52882
2.53262
2.53152
2.5307
2.53119
2.53591
2.53534
2.53207
2.5297
2.53327
2.53548
2.54161
2.53427
2.53315
2.53694
2.53276
2.53239
2.53227
2.53185
2.53113
2.53153
2.53149
2.52803
2.52898
2.52786
2.53264
2.53149
2.53118
2.53089
2.53709
2.53478
2.53273
2.53123
2.53361
2.53769
2.5417
2.53479
2.53403
2.53743
2.53367
2.53326
2.53329
2.53247
2.5313
2.53185
2.53221
2.52782
2.52838
2.52817
2.53319
2.53207
2.53194
2.52934
2.5331
2.53234
2.53348
2.53224
2.53185
2.53768
2.53678
2.53509
2.53393
2.53639
2.53505
2.53448
2.53479
2.53371
2.53243
2.53318
2.53412
2.52948
2.52644
2.5292
2.53444
2.53341
2.53321
2.52862
2.52868
2.53032
2.5345
2.53311
2.52994
2.53238
2.53269
2.53511
2.53302
2.53064
2.5364
2.53586
2.53562
2.53551
2.53418
2.53487
2.53508
2.53248
2.52711
2.53069
2.53578
2.53469
2.53396
2.52981
2.52588
2.52921
2.53562
2.53338
2.53146
2.52939
2.53085
2.53485
2.53235
2.52999
2.53733
2.53711
2.53678
2.53711
2.53553
2.53612
2.53628
2.53444
2.52882
2.5317
2.53646
2.53504
2.53389
2.53081
2.52504
2.52865
2.53634
2.53272
2.53234
2.52854
2.5298
2.53445
2.53216
2.53086
2.53725
2.53808
2.53743
2.5372
2.53558
2.53663
2.53675
2.53437
2.52918
2.53068
2.53625
2.53427
2.53395
2.52983
2.52531
2.52779
2.53618
2.53193
2.53029
2.52698
2.52867
2.53371
2.53082
2.52924
2.53602
2.53873
2.5377
2.53559
2.53383
2.53677
2.53593
2.53267
2.52789
2.52835
2.5359
2.53325
2.53395
2.52827
2.52427
2.52603
2.53543
2.53097
2.52702
2.52444
2.52666
2.53282
2.52904
2.52705
2.53497
2.53938
2.53759
2.53364
2.53157
2.53707
2.53489
2.53019
2.52553
2.52523
2.53681
2.53389
2.53342
2.52622
2.52175
2.52287
2.53512
2.52952
2.52363
2.52176
2.5233
2.5317
2.52609
2.52402
2.5352
2.54095
2.53854
2.53235
2.52972
2.5385
2.53475
2.5278
2.52199
2.52096
2.53921
2.53646
2.53276
2.52344
2.5169
2.51739
2.53599
2.52882
2.52018
2.51785
2.51799
2.53042
2.52259
2.52021
2.53679
2.54419
2.54122
2.53227
2.52802
2.54153
2.53625
2.52475
2.51509
2.51397
2.54375
2.54043
2.53272
2.51952
2.50903
2.50782
2.53891
2.53014
2.51655
2.513
2.50991
2.53002
2.5191
2.51568
2.53938
2.54949
2.54536
2.5331
2.52575
2.54635
2.53768
2.52008
2.50311
2.50057
2.55017
2.54611
2.53361
2.51451
2.4937
2.48844
2.54499
2.53329
2.51304
2.505
2.49563
2.53117
2.51613
2.51068
2.54261
2.55732
2.54961
2.53361
2.52195
2.55337
2.54125
2.51162
2.48153
2.47367
2.55999
2.55467
2.53618
2.50554
2.46985
2.45025
2.55647
2.53758
2.51021
2.49372
2.47122
2.53556
2.51662
2.50543
2.54617
2.56691
2.55405
2.53347
2.51575
2.5649
2.54247
2.50061
2.44331
2.41771
2.57404
2.56647
2.53988
2.49178
2.42759
2.36396
2.57107
2.54677
2.50662
2.47506
2.4247
2.54835
2.51908
2.49938
2.54922
2.57435
2.5576
2.53177
2.50546
2.57627
2.54508
2.47976
2.38623
2.27415
2.59027
2.57929
2.54095
2.4732
2.36717
2.16608
2.58611
2.55672
2.50326
2.44878
2.33516
2.56089
2.5242
2.49286
2.55153
2.57495
2.55762
2.53088
2.4884
2.57975
2.54235
2.46234
2.32283
1.87967
2.60604
2.59323
2.54771
2.45323
2.30324
1.86
-2.06113
2.60187
2.56605
2.49692
2.42116
2.14155
2.57504
2.52933
2.48958
2.54483
2.56456
2.54334
2.52938
2.48394
2.57244
2.52564
2.45586
2.29431
1.57113
-0.0223709
2.60151
2.58801
2.54674
2.45821
2.27586
1.78024
-0.00596828
2.61161
2.58033
2.49759
2.40942
1.9421
2.59119
2.53774
2.4988
2.53829
2.54576
2.52761
2.52881
2.49934
2.55503
2.51233
2.46409
2.35245
1.81603
0.443073
2.58657
2.57867
2.54494
2.46109
2.32904
1.84141
0.449798
2.61742
2.58428
2.49953
2.43897
2.15425
0.754482
2.60237
2.54206
2.51818
2.53489
2.53028
2.5189
2.52767
2.52003
2.53013
2.50684
2.47534
2.42975
2.0732
0.551285
2.56233
2.55163
2.52575
2.45991
2.41324
2.03495
0.51341
2.59804
2.56861
2.49948
2.4655
2.32769
2.59528
2.5369
2.53723
2.52175
2.52056
2.51441
2.51556
2.51916
2.51707
2.50131
2.49162
2.48561
2.34791
2.53637
2.52282
2.50846
2.46677
2.47131
2.25382
-0.267595
2.56086
2.53504
2.50156
2.49945
2.54275
2.56979
2.52479
2.5418
2.51901
2.51543
2.50934
2.5153
2.5222
2.51099
2.49223
2.49943
2.51005
2.54973
2.52024
2.50656
2.49259
2.48526
2.49704
2.52098
2.53
2.50366
2.50465
2.51463
2.5636
2.53884
2.52827
2.53476
2.5214
2.51374
2.51029
2.51586
2.51969
2.50961
2.4906
2.49758
2.50817
2.56091
2.51452
2.50272
2.47973
2.48107
2.49354
2.53944
2.51279
2.48469
2.49122
2.50411
2.54194
2.5196
2.52181
2.52443
2.52236
2.51349
2.51423
2.51769
2.5202
2.51195
2.49338
2.5011
2.51031
2.55562
2.51513
2.50569
2.47849
2.48066
2.49348
2.53548
2.50735
2.47893
2.47808
2.49595
2.52625
2.50658
2.51134
2.51775
2.5194
2.51228
2.50401
2.51564
2.52525
2.51773
2.49866
2.50326
2.51473
2.55105
2.52126
2.51264
2.48514
2.48165
2.49791
2.53029
2.51106
2.48393
2.47245
2.49648
2.51762
2.50177
2.49588
2.5101
2.51855
2.51416
2.4887
2.51172
2.53403
2.52626
2.50612
2.5064
2.52122
2.55112
2.53226
2.52324
2.49633
2.48437
2.50088
2.53077
2.52233
2.49181
2.47238
2.49116
2.51428
2.50418
2.48851
2.49669
2.52675
2.52999
2.49924
2.51682
2.54629
2.53772
2.51611
2.52015
2.53734
2.5605
2.54818
2.53739
2.50825
2.49988
2.51204
2.53938
2.54041
2.50076
2.47914
2.48531
2.51751
2.51273
2.48862
2.48702
2.55479
2.55473
2.52179
2.53828
2.56849
2.55107
2.52796
2.5291
2.55009
2.57323
2.56733
2.5532
2.52481
2.51207
2.52678
2.55903
2.56065
2.51898
2.49416
2.4924
2.53693
2.52542
2.49273
2.48343
2.58759
2.57249
2.53756
2.5492
2.5794
2.56135
2.53335
2.53408
2.55759
2.59197
2.58607
2.56301
2.53
2.51924
2.53629
2.58366
2.57335
2.52873
2.504
2.5079
2.56666
2.53947
2.51091
2.48969
137.507
129.288
142.435
141.145
130.135
144.213
147.45
142.659
137.357
138.104
148.925
150.663
141.319
137.527
132.065
125.046
127.616
142.431
149.098
134.307
137.898
150.355
143.788
140.43
147.468
140.456
141.396
113.64
139.038
147.201
138.282
151.469
149.286
119.606
123.462
138.446
127.147
110.289
101.443
112.091
105.234
99.3651
123.549
103.54
115.815
142.066
146.658
139.212
124.072
146.157
151.015
159.304
157.391
164.387
161.53
134.848
146.182
146.382
152.667
139.795
122.05
149.523
132.939
118.096
123.199
126.305
144.588
149.21
140.331
158.674
148.631
162.382
160.743
157.467
167.211
131.604
136.546
154.61
143.887
148.371
129.895
156.144
141.529
144.555
151.308
158.148
145.952
147.093
154.83
152.466
147.66
128.25
145.666
140.587
131.213
144.585
74.1977
62.2238
63.784
67.8618
67.913
59.6197
61.0497
60.1965
68.9624
72.0745
59.0905
59.4679
58.931
86.2128
58.7455
74.8783
67.3562
73.9638
75.737
70.6288
65.4622
63.7858
66.521
64.9751
91.7204
72.2406
82.5123
59.742
59.0892
60.9217
61.0508
87.4187
59.9424
72.7079
70.1971
74.9705
68.0729
68.7349
68.8011
78.264
80.2004
61.9813
62.738
61.2699
79.23
85.5248
69.4778
70.0301
72.9981
79.1437
80.3422
62.7618
60.651
63.1077
92.0125
76.7986
105.188
104.069
108.131
80.5079
84.5717
82.6671
84.5113
82.6763
83.3144
81.8797
71.2178
66.1075
68.0206
65.398
64.6486
100.765
81.9093
86.9638
78.9217
78.9538
76.5149
75.4587
77.5432
76.304
73.846
72.1095
73.5523
70.2383
62.3858
59.3894
60.846
61.8484
61.024
58.7304
58.9148
58.452
60.3569
59.6959
58.3696
57.8963
57.1469
59.2695
57.4297
67.8128
61.1119
63.5027
66.6138
65.6265
59.8905
59.7626
61.0248
61.2013
59.2986
59.1502
58.8948
57.319
57.882
56.2354
56.9294
58.8345
56.0916
69.5147
70.3479
70.4214
62.83
65.5355
64.2974
60.0168
59.2679
54.2571
54.5577
53.2849
70.799
72.1478
65.9524
64.6461
62.0307
58.7585
59.801
53.9976
53.1981
52.7565
72.9947
57.7869
74.2723
72.2121
71.7347
56.0209
53.2235
47.761
44.01
63.4307
65.9422
62.9237
53.7362
53.3403
56.2133
54.7073
50.5326
72.0409
39.626
73.6065
73.7272
41.2651
50.323
60.8145
70.7856
73.1617
56.4163
56.6585
63.0832
56.2976
50.2068
8.77011
54.4253
51.9963
53.359
34.5253
22.9252
34.2413
52.612
50.0822
33.8543
34.1971
24.3274
47.6565
11.2516
35.7478
2.57837
48.8289
44.7562
49.0891
3.25169
8.38811
3.54182
8.87077
44.6235
46.8131
44.094
16.4256
5.66029
20.3405
7.75606
40.1013
4.15715
41.2894
42.3161
45.821
2.72878
2.68883
3.15404
34.4128
35.3284
4.7257
3.21253
4.55831
43.7162
30.2334
2.80468
3.19853
2.6802
34.1578
20.456
2.6602
4.19998
1.953
12.8294
2.24896
14.8823
4.84773
4.08845
2.3355
2.37421
2.08345
2.10896
7.72409
4.50121
5.34073
1.79101
1.61021
1.66975
1.48037
1.67459
2.7039
2.0908
3.24738
4.01286
1.84483
1.74456
1.71723
4.87509
5.04118
1.59013
1.35986
1.51063
1.61685
2.00729
2.46637
2.21938
2.29026
2.51835
2.10255
2.29209
2.14678
2.4676
2.11521
2.11407
2.13942
2.23818
1.79931
2.39716
1.96586
2.63574
2.08313
1.98265
2.06404
2.58486
2.51168
2.628
2.55463
1.69858
2.14463
1.75635
2.39039
2.52866
2.41164
2.57523
1.68382
2.69081
1.91597
1.90979
1.93266
2.65075
2.65523
2.64531
1.60439
1.43374
2.69231
2.60698
2.55706
1.98231
2.07124
2.63375
2.61142
2.55045
1.68432
2.06841
2.53263
2.52484
2.42139
2.25828
2.457
2.33857
2.42978
2.49541
2.43596
2.43218
2.40916
2.35548
2.42023
2.57566
2.55048
2.26861
2.31311
2.31771
2.3182
2.37488
2.52029
2.33254
2.65179
2.7074
2.38639
2.35862
2.39672
2.72794
2.70732
2.33567
2.37736
2.4025
2.30245
2.52064
2.50416
2.66751
2.59981
2.65585
2.53319
2.51063
2.51085
2.68288
2.63643
2.54117
2.52164
2.51685
2.59599
2.52621
2.41675
2.50992
2.48604
2.42058
2.50985
2.50626
2.5026
2.51462
2.5112
2.55339
2.65028
2.51625
2.53377
2.56655
2.54921
2.55254
2.49547
2.5403
2.41529
2.44481
2.40065
2.50266
2.49556
2.50302
2.42415
2.57146
2.49167
2.50771
2.28315
2.39902
2.41095
2.46871
2.47051
2.46391
2.51238
2.40353
2.47742
2.27654
2.45092
2.40458
2.44689
2.41453
2.44281
2.44127
2.44568
2.4375
2.43971
2.43091
2.45972
2.48901
2.51039
2.36789
2.37544
2.41191
2.44804
2.40857
2.44095
2.43192
2.45817
2.44391
2.45094
2.44519
2.4606
2.48586
2.46865
2.46178
2.49163
2.48612
2.43976
2.50833
2.51438
2.4941
2.50564
2.50427
2.51003
2.51414
2.51064
2.51593
2.51263
2.52002
2.52322
2.52701
2.51529
2.52696
2.49547
2.50338
2.5039
2.49771
2.51123
2.50683
2.50793
2.50518
2.50989
2.53663
2.53988
2.53697
2.53078
2.52886
2.543
2.53291
2.52336
2.5202
2.49596
2.5015
2.49092
2.50069
2.50714
2.49838
2.47513
2.52058
2.61252
2.51354
2.53344
2.51008
2.52458
2.53349
2.50121
2.53041
2.53454
2.53549
2.53934
2.53656
2.47277
2.47022
2.49474
2.48175
2.47534
2.5631
2.46507
2.4997
2.4886
2.49784
2.48151
2.50623
2.52718
2.51781
2.52728
2.52792
2.5291
2.52204
2.52816
2.45863
2.46868
2.45249
2.46325
2.46532
2.46141
2.45948
2.46258
2.45788
2.46676
2.47723
2.45944
2.40218
2.42749
2.44093
2.44794
2.45078
2.46513
2.45978
2.45749
2.46915
2.45958
2.46454
2.47473
2.48983
2.48717
2.47525
2.48547
2.48469
2.45301
2.51533
2.51659
2.51563
2.5187
2.51029
2.52891
2.52166
2.51867
2.52311
2.53471
2.53508
2.5265
2.53709
2.53866
2.54294
2.50539
2.50057
2.51121
2.50637
2.50828
2.50797
2.51179
2.50191
2.50417
2.53128
2.53833
2.53531
2.5322
2.52862
2.53127
2.53014
2.52753
2.53949
2.51668
2.54
2.53643
2.53711
2.53133
2.53607
2.50097
2.51034
2.50032
2.49511
2.50329
2.49523
2.54268
2.51561
2.53028
2.51211
2.52682
2.51237
2.53352
2.5349
2.54017
2.53785
2.52895
2.53417
2.53853
2.53763
2.48834
2.4811
2.49557
2.48732
2.4845
2.51559
2.49122
2.51986
2.50757
2.52604
2.4995
2.51948
2.53062
2.52397
2.52828
2.52968
2.53188
2.52482
2.52962
2.47897
2.48426
2.46744
2.4768
2.47661
2.47485
2.4714
2.47667
2.47178
2.45013
2.47243
2.46546
2.43044
2.4484
2.45849
2.45789
2.51664
2.46285
2.51591
2.52883
2.52019
2.52914
2.47407
2.47211
2.46878
2.47421
2.46674
2.4683
2.47205
2.48547
2.47963
2.46843
2.47857
2.47497
2.46184
2.5166
2.51425
2.54293
2.52425
2.53003
2.54214
2.52369
2.53153
2.53085
2.53572
2.53607
2.52975
2.53014
2.53407
2.52403
2.49178
2.48171
2.50944
2.49482
2.49747
2.49734
2.50574
2.48602
2.4908
2.52081
2.52101
2.52177
2.51874
2.51279
2.51009
2.50738
2.50731
2.53506
2.48313
2.52687
2.53021
2.53549
2.53011
2.53596
2.4876
2.49429
2.48936
2.47799
2.48687
2.48371
2.52677
2.51009
2.53468
2.50121
2.52553
2.50459
2.53261
2.53408
2.5355
2.53637
2.52968
2.53456
2.53533
2.53704
2.48473
2.48533
2.48654
2.48285
2.48464
2.52979
2.5026
2.52836
2.5043
2.52929
2.49819
2.52937
2.53211
2.52531
2.53105
2.53042
2.53328
2.52595
2.53247
2.48677
2.48765
2.47276
2.48124
2.47251
2.48405
2.4747
2.48274
2.47156
2.46395
2.47734
2.47353
2.44842
2.46985
2.47542
2.47445
2.51954
2.45569
2.51738
2.52966
2.5215
2.53153
2.47448
2.4754
2.47071
2.47351
2.4728
2.47218
2.47495
2.47897
2.47683
2.47279
2.47687
2.47854
2.47332
2.50894
2.50195
2.53139
2.51915
2.52612
2.52173
2.51209
2.51878
2.52424
2.52204
2.51979
2.51699
2.5132
2.51336
2.50299
2.47433
2.46956
2.50018
2.47722
2.48323
2.48484
2.4937
2.47052
2.47544
2.50398
2.49471
2.49197
2.50087
2.49658
2.4815
2.48046
2.47813
2.47533
2.47106
2.48139
2.47883
2.46631
2.47843
2.47604
2.52805
2.49882
2.53004
2.48144
2.50998
2.49091
2.51697
2.53679
2.53875
2.53825
2.53487
2.53536
2.53963
2.53825
2.48039
2.48318
2.4807
2.47884
2.48256
2.53173
2.49479
2.53638
2.49686
2.52117
2.48836
2.5206
2.53633
2.52828
2.5348
2.54025
2.53701
2.53333
2.53481
2.48704
2.48662
2.47696
2.48481
2.47238
2.48876
2.47812
2.48564
2.47482
2.47337
2.48447
2.48268
2.46877
2.48017
2.489
2.48975
2.47508
2.47884
2.48268
2.47748
2.47984
2.48524
2.48285
2.48487
2.47973
2.48228
2.48105
2.48333
2.48656
2.48506
2.49529
2.491
2.51355
2.50492
2.51141
2.5065
2.49891
2.50469
2.5099
2.50497
2.50574
2.50406
2.49825
2.49428
2.4879
2.46749
2.46814
2.48835
2.46612
2.46974
2.48043
2.4842
2.46401
2.46704
2.4887
2.46901
2.46903
2.48482
2.48186
2.45628
2.4598
2.4713
2.47171
2.46536
2.47819
2.47627
2.4685
2.48017
2.47907
2.48127
2.51485
2.47643
2.47247
2.43334
2.47963
2.48394
2.483
2.48297
2.48707
2.52621
2.47839
2.49132
2.44631
2.48455
2.48693
2.48882
2.48055
2.48831
2.48064
2.49197
2.48349
2.49157
2.48715
2.48557
2.49371
2.49398
2.48557
2.48939
2.49757
2.49736
2.48813
2.48889
2.49479
2.48921
2.49104
2.50077
2.49467
2.49625
2.48847
2.4923
2.49199
2.4933
2.49727
2.4941
2.48849
2.48848
2.50109
2.49488
2.49942
2.49778
2.49296
2.49636
2.49999
2.49401
2.49872
2.49822
2.4927
2.48503
2.48556
2.47195
2.47898
2.48319
2.46547
2.46726
2.48502
2.48526
2.47082
2.46883
2.4789
2.4481
2.45809
2.47874
2.48211
2.45028
2.46531
2.46985
2.47395
2.47586
2.48485
2.48408
2.48621
2.49128
2.49044
2.47855
2.4803
2.48734
2.48413
2.48758
2.48841
2.49106
2.49462
2.49467
2.49505
2.49189
2.49023
2.49978
2.49799
2.49556
2.49135
2.49524
2.48875
2.49598
2.49377
2.49716
2.49371
2.50068
2.50048
2.49298
2.50093
2.50025
2.49694
2.49645
2.50377
2.503
2.4966
2.49998
2.50347
2.50021
2.50124
2.51185
2.50539
2.50548
2.49803
2.50273
2.50201
2.50146
2.50709
2.50117
2.49039
2.49319
2.49697
2.49335
2.4959
2.49848
2.49554
2.49779
2.49872
2.49394
2.50029
2.50097
2.49707
2.48935
2.49544
2.48739
2.49706
2.48888
2.47971
2.47357
2.49516
2.49309
2.4897
2.48087
2.49027
2.46495
2.48349
2.48896
2.49877
2.48099
2.50033
2.48689
2.49971
2.498
2.49761
2.49695
2.5083
2.50313
2.50282
2.49485
2.4974
2.50619
2.50573
2.50669
2.50052
2.49813
2.50451
2.50451
2.49971
2.50235
2.50105
2.50726
2.50655
2.50558
2.50041
2.50277
2.49667
2.50261
2.50551
2.50438
2.49949
2.504
2.50912
2.49994
2.50669
2.50614
2.50831
2.50377
2.50962
2.50905
2.50407
2.5074
2.50981
2.50952
2.50877
2.51078
2.51118
2.51034
2.50434
2.50973
2.50744
2.50592
2.51006
2.50735
2.49634
2.49973
2.5014
2.49888
2.50118
2.50483
2.50243
2.50501
2.50425
2.50108
2.50572
2.50752
2.50475
2.50264
2.50918
2.50603
2.51219
2.4975
2.4995
2.48879
2.50584
2.50181
2.50803
2.49631
2.50604
2.49841
2.51254
2.50505
2.51102
2.51465
2.51903
2.50928
2.51566
2.51472
2.50817
2.50832
2.51844
2.51345
2.51456
2.51326
2.51369
2.51597
2.51606
2.51642
2.50733
2.50184
2.50919
2.50951
2.50535
2.5095
2.50768
2.51136
2.51021
2.50913
2.50384
2.50666
2.50245
2.50591
2.51114
2.5078
2.50599
2.50743
2.5121
2.50736
2.51245
2.51178
2.5165
2.50977
2.51527
2.51377
2.50942
2.5109
2.51171
2.51071
2.51081
2.50816
2.51067
2.50952
2.50737
2.50945
2.50874
2.50993
2.50915
2.5124
2.50346
2.50695
2.50824
2.50529
2.50827
2.51061
2.50705
2.51041
2.51014
2.50724
2.51052
2.51164
2.50815
2.5143
2.51789
2.51675
2.52027
2.50565
2.51473
2.5041
2.51309
2.50891
2.51949
2.51211
2.51375
2.52314
2.51936
2.51308
2.51453
2.52577
2.51757
2.51786
2.51778
2.52097
2.51969
2.52078
2.52285
2.52507
2.526
2.51504
2.51666
2.51499
2.51411
2.51585
2.51119
2.50958
2.5136
2.51255
2.51406
2.50992
2.50961
2.51072
2.5093
2.50994
2.51051
2.51472
2.51106
2.50852
2.5123
2.51132
2.51914
2.50942
2.51325
2.5123
2.51706
2.51519
2.51828
2.51515
2.51725
2.51577
2.51211
2.51174
2.51186
2.50966
2.50988
2.50938
2.50929
2.51026
2.51191
2.50932
2.51208
2.51301
2.50898
2.514
2.51022
2.51272
2.51186
2.50856
2.51156
2.51255
2.50976
2.5123
2.51184
2.50828
2.51179
2.51133
2.50837
2.51966
2.51946
2.52257
2.52352
2.51152
2.52216
2.51909
2.51584
2.51372
2.52297
2.52346
2.51397
2.52464
2.51461
2.5141
2.51286
2.52257
2.51253
2.51642
2.51477
2.52456
2.52797
2.52817
2.52532
2.52807
2.52774
2.51239
2.51431
2.51279
2.51125
2.51307
2.51519
2.51824
2.5195
2.51988
2.52265
2.50899
2.50996
2.50933
2.50814
2.50921
2.51746
2.51861
2.5239
2.51
2.51418
2.50959
2.5253
2.51097
2.51582
2.51683
2.51559
2.51529
2.51356
2.51649
2.51265
2.51338
2.51179
2.51239
2.51296
2.50924
2.5098
2.51075
2.5094
2.51016
2.51224
2.51046
2.51066
2.51153
2.51096
2.51209
2.51415
2.5144
2.51246
2.51001
2.51217
2.51203
2.51043
2.51135
2.51057
2.50873
2.51069
2.50988
2.5092
2.51698
2.51297
2.52321
2.522
2.51499
2.52254
2.5253
2.51693
2.51491
2.52147
2.52398
2.51079
2.51938
2.51113
2.51004
2.50789
2.51599
2.50948
2.51335
2.51191
2.52512
2.52745
2.52635
2.52393
2.52652
2.52538
2.51071
2.512
2.51246
2.50981
2.51106
2.5257
2.52681
2.52743
2.53001
2.52896
2.50692
2.50775
2.50668
2.50575
2.50621
2.51967
2.52084
2.5217
2.51342
2.51642
2.51157
2.51844
2.51711
2.51702
2.51446
2.50914
2.5107
2.50943
2.51088
2.50736
2.50866
2.50943
2.5135
2.51408
2.5098
2.51079
2.51178
2.51021
2.51127
2.51137
2.50996
2.5104
2.51244
2.51064
2.51074
2.51385
2.51274
2.51221
2.51102
2.51127
2.51197
2.51083
2.5111
2.50956
2.50943
2.50983
2.50938
2.50956
2.50902
2.50599
2.52004
2.51763
2.51423
2.51958
2.52046
2.51556
2.51303
2.51742
2.51608
2.50457
2.51297
2.50819
2.50232
2.50305
2.50918
2.50692
2.5106
2.50939
2.52197
2.52508
2.52398
2.51972
2.52279
2.52195
2.509
2.51025
2.51234
2.5081
2.50943
2.52907
2.52761
2.52773
2.5251
2.5247
2.5052
2.50516
2.50542
2.50492
2.50472
2.52131
2.52081
2.51757
2.52044
2.51664
2.52215
2.51741
2.52255
2.51565
2.50812
2.5087
2.50855
2.5075
2.50726
2.51068
2.50895
2.50796
2.51437
2.5141
2.51048
2.51153
2.51193
2.51045
2.51167
2.51517
2.5122
2.51277
2.51731
2.51368
2.51329
2.51133
2.50994
2.51054
2.5099
2.50997
2.50879
2.50879
2.50827
2.50867
2.50889
2.50777
2.50736
2.50772
2.50455
2.5038
2.515
2.51234
2.51146
2.51514
2.5115
2.51248
2.50991
2.5126
2.50728
2.50338
2.50596
2.50633
2.50062
2.50411
2.50313
2.50601
2.50848
2.50782
2.51722
2.51988
2.51922
2.51449
2.51675
2.51603
2.50731
2.50868
2.51167
2.50656
2.50782
2.52128
2.52182
2.51976
2.51809
2.51838
2.50555
2.50524
2.50567
2.50616
2.50605
2.51865
2.51598
2.5148
2.52162
2.51297
2.52137
2.51188
2.51816
2.50975
2.50685
2.51245
2.50937
2.5087
2.50752
2.51371
2.50953
2.50976
2.51294
2.51149
2.51008
2.51148
2.5108
2.50965
2.51124
2.51935
2.51511
2.5135
2.52102
2.51585
2.51471
2.50874
2.50771
2.50726
2.50785
2.50668
2.5062
2.50722
2.50553
2.50554
2.50611
2.50492
2.5041
2.50425
2.50298
2.50219
2.50973
2.50732
2.50851
2.51014
2.50355
2.50924
2.50743
2.50782
2.50113
2.50422
2.5011
2.50577
2.4996
2.50415
2.49937
2.50543
2.50726
2.50674
2.51166
2.51323
2.51231
2.50893
2.50897
2.5083
2.50591
2.50719
2.51068
2.50557
2.50675
2.51487
2.51453
2.51233
2.51144
2.51071
2.50714
2.50716
2.50671
2.5082
2.50819
2.51292
2.50998
2.50869
2.51396
2.50657
2.51255
2.50548
2.51042
2.50452
2.50868
2.51277
2.50876
2.50601
2.50942
2.51018
2.50731
2.51064
2.50994
2.50892
2.50928
2.51126
2.50996
2.50904
2.51121
2.52205
2.51672
2.51496
2.52174
2.51729
2.51258
2.50687
2.50633
2.50577
2.50694
2.50514
2.50578
2.50673
2.50526
2.50345
2.50261
2.50451
2.50345
2.50177
2.50149
2.50099
2.50526
2.50372
2.50665
2.50568
2.49985
2.50649
2.50613
2.50392
2.49957
2.50394
2.49746
2.5047
2.49938
2.50333
2.49634
2.50396
2.50619
2.5057
2.50643
2.50472
2.50455
2.50418
2.50115
2.50137
2.50529
2.50647
2.51002
2.50565
2.50667
2.50792
2.50717
2.50398
2.50462
2.50431
2.50933
2.50897
2.50774
2.51025
2.50978
2.50722
2.50477
2.50171
2.50753
2.50326
2.50479
2.49895
2.5052
2.50224
2.50951
2.50613
2.50644
2.50365
2.51037
2.5005
2.50629
2.51054
2.50796
2.50715
2.50773
2.50952
2.50817
2.50649
2.50879
2.51549
2.51496
2.51111
2.5097
2.51234
2.5069
2.5062
2.50652
2.50612