/*--------------------------------*- C++ -*----------------------------------*\
| =========                 |                                                 |
| \\      /  F ield         | OpenFOAM: The Open Source CFD Toolbox           |
|  \\    /   O peration     | Version:  5.x                                   |
|   \\  /    A nd           | Web:      www.OpenFOAM.org                      |
|    \\/     M anipulation  |                                                 |
\*---------------------------------------------------------------------------*/
FoamFile
{
    version     2.0;
    format      ascii;
    class       volScalarField;
    location    "3";
    object      p;
}
// * * * * * * * * * * * * * * * * * * * * * * * * * * * * * * * * * * * * * //

dimensions      [0 2 -2 0 0 0 0];

internalField   nonuniform List<scalar> 
10571
(
267.185
223.902
276.747
257.992
239.67
144.747
269.877
257.069
236.609
226.474
130.078
212.686
275.424
273.577
275.722
249.206
278.291
281.34
288.369
305.555
275.728
278.25
286.988
300.469
172.549
35.4653
95.8051
217.874
212.33
30.8956
171.66
190.436
196.911
219.772
24.7804
51.3665
217.221
209.554
194.066
213.46
156.687
254.007
218.712
231.238
223.771
268.437
257.957
241.121
35.1479
14.6877
14.0842
100.061
133.605
12.5585
20.7284
41.7205
26.4687
84.7716
17.8816
13.3021
28.8736
23.1529
22.9826
83.1349
20.7832
59.7777
39.812
94.1548
91.0888
149.162
121.782
114.969
13.5304
14.0757
13.2884
20.5166
14.5682
12.4284
11.7446
11.0219
8.35445
9.96548
13.4109
12.5784
11.7755
11.0639
11.3663
11.8703
13.4071
12.7466
11.8351
12.3187
12.2543
14.4995
11.9646
13.2147
13.1295
13.4385
13.0393
13.0622
12.9966
12.5814
13.4493
13.9151
14.2513
13.4614
14.2257
13.4487
14.0588
14.7264
14.5934
13.4022
13.2222
13.5703
14.4376
13.4309
13.496
13.7777
13.8469
13.7732
13.155
13.3912
13.1368
13.146
13.0056
12.8375
13.0419
14.0143
13.936
13.3287
13.433
13.6048
13.1743
13.2843
13.4118
13.4555
13.4517
13.3443
13.1809
13.566
13.5756
13.6481
13.5697
13.5023
13.5748
13.6635
13.211
13.4339
13.152
13.2529
13.1152
13.1447
13.23
13.6704
13.6171
13.4912
13.4698
12.889
13.2249
13.3686
13.5789
13.5687
13.4006
13.3711
13.1931
13.413
13.5602
13.5862
13.5303
13.3707
13.4416
13.4507
13.4986
13.2372
13.2318
13.1181
13.2647
13.286
13.0631
13.231
13.4649
13.5143
13.5569
13.4928
12.9252
13.1707
13.2396
13.331
13.3046
13.2839
13.3453
13.2544
13.2942
13.323
13.3612
13.3381
13.3079
13.295
13.2655
13.2971
13.1543
13.1394
13.0158
13.1559
13.2334
13.1221
13.1447
13.2584
13.3258
13.3046
13.4912
12.9879
13.1008
13.0843
13.1872
13.1232
13.1179
13.3375
13.2084
13.1803
13.0882
13.1931
13.1966
13.139
13.0379
13.1036
12.9759
12.9982
12.8811
12.9939
13.0514
13.0048
12.9925
13.0444
13.1214
12.9609
13.0641
12.9913
12.9622
13.0645
13.0143
13.0429
13.0784
13.0519
12.9588
13.0933
13.0997
13.0027
12.9593
13.0195
12.7925
12.8408
12.7197
12.8158
12.8681
12.8294
12.7741
12.8113
12.9241
12.9224
12.8694
12.8549
12.8575
12.9353
12.8606
12.9495
12.8981
12.915
12.881
13.0109
13.0198
12.8898
12.9475
13.0078
12.6368
12.703
12.5638
12.6425
12.7081
12.5989
12.5352
12.6007
12.7247
12.8099
12.7691
12.7532
12.7888
12.7977
12.7238
12.8412
12.8445
12.7898
12.8273
12.9372
12.9418
12.8013
12.9249
12.9834
12.5091
12.5954
12.4686
12.4908
12.563
12.3743
12.3263
12.4394
12.5682
12.6713
12.8582
12.8431
12.6927
12.6642
12.6055
12.7417
12.8496
12.685
12.7911
12.8835
12.8744
12.7622
12.9168
12.9618
12.4039
12.486
12.4051
12.3885
12.3813
12.1398
12.1516
12.2872
12.4325
12.5426
13.3619
12.8088
12.5365
12.5445
12.5176
12.6474
12.8009
12.6243
12.781
12.8512
12.8516
12.7644
12.9344
12.9511
12.3297
12.4989
12.3898
12.3059
12.2532
12.2022
11.9489
12.1417
12.3544
12.4725
12.7528
12.6069
12.4221
12.4547
12.4878
12.5902
12.7531
12.6307
12.7967
12.8664
12.9158
12.8036
12.9527
12.9575
12.3406
12.6442
12.5095
12.2952
12.2681
12.2825
11.8504
12.0624
12.4026
12.5718
12.6391
12.5182
12.3277
12.3966
12.5864
12.6569
12.7619
12.6866
12.8629
12.9455
13.0684
12.8876
12.9975
13.0082
12.6242
12.9984
12.826
12.5125
12.4739
12.49
11.9884
12.27
12.5926
12.8169
12.6806
12.6023
12.2466
12.4716
12.816
12.8329
12.83
12.798
12.9942
13.0663
13.2171
13.035
13.1059
13.1161
13.2864
13.4669
13.4007
13.0641
13.0197
12.7554
12.3673
12.8864
13.0523
13.1684
12.7812
12.728
12.3697
12.8846
13.107
13.1185
12.938
13.0135
13.1805
13.1936
13.2727
13.2022
13.2376
13.2457
14.0739
13.7184
13.8647
13.8189
13.6346
12.9529
13.0596
13.6142
13.4935
13.4498
12.9471
12.8351
12.7653
13.1982
13.2976
13.3118
13.0295
13.2505
13.3057
13.2894
13.3156
13.3488
13.3501
13.3316
14.0638
13.7094
14.0641
13.9942
13.7922
13.0834
13.6738
13.687
13.5984
13.5673
13.0318
12.8867
13.1086
13.3079
13.3672
13.3926
13.1379
13.4276
13.3503
13.3439
13.3538
13.4803
13.421
13.3958
13.8345
13.4467
13.6726
13.7958
13.7453
12.9489
13.6988
13.5376
13.5872
13.5817
13.0539
12.837
13.2971
13.3158
13.388
13.4234
13.2446
13.5221
13.3837
13.3781
13.3916
13.5552
13.4542
13.4401
13.6625
12.9963
13.2424
13.6288
13.6763
12.7608
13.4441
13.4324
13.5437
13.5808
13.0513
12.807
13.3528
13.3334
13.4125
13.4615
13.317
13.5629
13.4358
13.4116
13.4373
13.5935
13.4885
13.4859
13.6258
13.0716
13.0785
13.593
13.641
12.7123
13.2548
13.4684
13.5349
13.5931
13.0523
12.8602
13.3534
13.4166
13.4654
13.5177
13.3888
13.5805
13.5122
13.4609
13.4976
13.6175
13.5467
13.5517
13.7237
13.4378
13.2905
13.6869
13.6632
12.8515
13.0941
13.5886
13.5731
13.629
13.0995
12.9483
13.3542
13.5244
13.5404
13.5895
13.5212
13.6081
13.5842
13.5221
13.5679
13.6749
13.6201
13.6309
13.8565
14.2847
14.0486
13.8367
13.7192
13.1336
13.5374
13.7039
13.6476
13.6764
13.319
13.0878
13.5789
13.6282
13.6231
13.6625
13.7434
13.7133
13.639
13.5843
13.6391
13.7852
13.6952
13.7009
13.9361
15.5305
14.3929
13.9178
13.7709
14.1419
13.8724
13.7506
13.7142
13.7207
13.7395
13.5773
13.7846
13.7209
13.6956
13.7235
14.0657
13.8372
13.6725
13.6414
13.7014
13.9006
13.7465
13.7459
13.9444
14.8386
14.2803
13.9222
13.8021
13.8692
13.9162
13.7752
13.7569
13.7573
14.0075
13.8654
13.9242
13.7876
13.7501
13.7727
14.1762
13.904
13.6837
13.6912
13.7534
13.9563
13.7634
13.7662
13.905
14.1832
14.0772
13.875
13.8119
13.571
13.8771
13.7921
13.7808
13.7834
14.0215
13.9434
13.9781
13.8104
13.7858
13.8101
14.0606
13.8685
13.6793
13.7286
13.7945
13.9236
13.7521
13.7772
13.8449
13.9386
13.929
13.8148
13.8034
13.5691
13.8311
13.8009
13.795
13.8024
13.9444
13.9644
13.8929
13.8123
13.8066
13.8391
13.9955
13.7629
13.6801
13.755
13.8274
13.8635
13.7407
13.7879
13.7834
13.8449
13.8363
13.7473
13.7858
13.7141
13.8046
13.8059
13.805
13.8154
13.9015
13.9738
13.8083
13.8078
13.8209
13.8655
13.9097
13.6267
13.6971
13.7915
13.8622
13.7991
13.7466
13.8108
13.7372
13.826
13.7697
13.6891
13.7734
13.8031
13.7769
13.8066
13.8143
13.8249
13.92
13.951
13.7281
13.8078
13.8344
13.8808
13.8496
13.5418
13.7378
13.8241
13.8932
13.7219
13.7754
13.8552
13.7379
13.8043
13.694
13.67
13.7783
13.8139
13.7065
13.8027
13.8267
13.8366
13.8788
13.8642
13.6866
13.8134
13.8496
13.8837
13.7541
13.5509
13.7928
13.852
13.9146
13.6811
13.8289
13.8986
13.7692
13.7306
13.6174
13.704
13.8018
13.6601
13.6378
13.8002
13.8428
13.856
13.7278
13.7122
13.6879
13.8233
13.8702
13.889
13.6399
13.647
13.8586
13.8866
13.9293
13.7071
13.881
13.9161
13.8004
13.6467
13.6167
13.7387
13.8364
13.478
13.5979
13.8077
13.8634
13.8851
13.5545
13.498
13.7048
13.8426
13.9023
13.9073
13.5729
13.7466
13.8922
13.9246
13.9445
13.7687
13.9151
13.9382
13.8444
13.6001
13.6155
13.7834
13.8773
13.4549
13.6117
13.8591
13.8947
13.9236
13.4814
13.3713
13.7579
13.8717
13.9356
13.9382
13.6061
13.8438
13.9124
13.9592
13.9667
13.8515
13.9302
13.958
13.8831
13.7368
13.6786
13.8559
13.9332
13.5965
13.6998
13.9407
13.9459
13.9742
13.5608
13.4391
13.84
13.9306
13.9756
13.9786
13.7443
13.9252
13.9553
13.9936
13.9981
13.9123
13.9339
13.9938
13.9718
14.0224
13.8807
13.9639
14.0112
13.8428
13.859
14.0384
14.0153
14.0325
13.7211
13.656
13.9512
14.0111
14.0275
14.0286
13.8996
14.0034
14.0223
14.0369
14.0397
14.0255
13.9942
14.0461
14.0752
14.2322
14.0738
14.0864
14.0914
14.1244
14.0596
14.1298
14.091
14.0923
14.2317
14.0404
14.0839
14.0977
14.0875
14.0831
14.073
14.1156
14.0985
14.0897
14.0899
14.1397
14.0797
14.1013
14.1634
14.3056
14.1619
14.1708
14.1559
14.325
14.2167
14.2076
14.1579
14.1502
14.4248
14.2763
14.2069
14.1758
14.144
14.139
14.2169
14.1932
14.1635
14.1442
14.1469
14.2073
14.1512
14.1571
14.2237
14.3168
14.225
14.2227
14.2063
14.4091
14.2888
14.2565
14.2099
14.2005
14.3992
14.3564
14.284
14.2348
14.2011
14.1921
14.287
14.245
14.222
14.2032
14.2034
14.2488
14.2126
14.2242
14.2635
14.3199
14.2795
14.2556
14.2446
14.341
14.3315
14.2773
14.2463
14.2375
14.3777
14.3409
14.341
14.2707
14.2442
14.2353
14.3193
14.2796
14.2772
14.2468
14.247
14.2819
14.2864
14.278
14.2887
14.3299
14.3097
14.2748
14.2694
14.3183
14.3177
14.2864
14.2657
14.2608
14.3485
14.358
14.3596
14.2913
14.2652
14.2606
14.3318
14.2895
14.3138
14.2793
14.2747
14.3123
14.3402
14.3145
14.3008
14.3413
14.316
14.2905
14.2844
14.3314
14.2962
14.2885
14.2746
14.2769
14.381
14.3538
14.3337
14.2998
14.2781
14.2834
14.337
14.3343
14.3229
14.2924
14.3002
14.3613
14.3618
14.3212
14.3047
14.3462
14.3101
14.2992
14.2911
14.3391
14.3028
14.2906
14.2787
14.2915
14.3473
14.3359
14.3294
14.2989
14.2894
14.2975
14.3364
14.3703
14.3163
14.2957
14.3036
14.374
14.3522
14.3216
14.3028
14.3416
14.3008
14.2976
14.294
14.3324
14.3007
14.2906
14.2801
14.302
14.3492
14.3261
14.3141
14.2934
14.2893
14.2995
14.3345
14.3418
14.3098
14.2934
14.2987
14.3578
14.3316
14.3168
14.298
14.3292
14.2892
14.2899
14.2972
14.3196
14.2887
14.2886
14.2839
14.308
14.3475
14.3113
14.2909
14.2866
14.2811
14.2851
14.3276
14.3103
14.3039
14.2892
14.2848
14.3382
14.3262
14.3104
14.2924
14.3131
14.2716
14.2792
14.3019
14.3055
14.2772
14.2878
14.2907
14.309
14.3342
14.2965
14.2815
14.2789
14.2771
14.2803
14.3117
14.2954
14.2982
14.2867
14.2704
14.3179
14.3153
14.3036
14.2842
14.3045
14.2498
14.272
14.2995
14.2999
14.2666
14.2819
14.297
14.3114
14.3269
14.2819
14.2499
14.2707
14.283
14.2922
14.2885
14.2731
14.2956
14.291
14.2787
14.304
14.3053
14.3016
14.2948
14.3189
14.2517
14.2754
14.2945
14.3243
14.2601
14.2778
14.3056
14.3161
14.346
14.2914
14.2274
14.2705
14.2988
14.3058
14.2838
14.2574
14.2969
14.3004
14.3003
14.3204
14.31
14.3071
14.3537
14.393
14.3008
14.3151
14.2978
14.3871
14.262
14.3022
14.3211
14.324
14.4125
14.3324
14.2315
14.2878
14.3157
14.3226
14.3067
14.2502
14.3039
14.3131
14.3201
14.3138
14.3101
14.3156
14.4064
14.4542
14.3703
14.3461
14.3037
14.4647
14.3257
14.3294
14.3329
14.3342
14.4165
14.3734
14.2508
14.3125
14.3244
14.3337
14.3146
14.2487
14.3175
14.3227
14.3316
14.3021
14.3143
14.3239
14.3954
14.4315
14.3737
14.3488
14.3204
14.4371
14.3405
14.3445
14.3373
14.3385
14.4107
14.3666
14.2914
14.3333
14.3321
14.3397
14.3219
14.269
14.3297
14.3296
14.335
14.3102
14.3226
14.3321
14.3802
14.3822
14.3614
14.353
14.3436
14.3586
14.3419
14.3467
14.334
14.3401
14.3502
14.3044
14.3488
14.3455
14.3421
14.346
14.3112
14.2884
14.3343
14.3327
14.3381
14.3279
14.3313
14.3368
14.3823
14.351
14.3591
14.36
14.3625
14.3137
14.3368
14.3411
14.3349
14.3484
14.2675
14.2322
14.3828
14.3425
14.3416
14.352
14.291
14.3237
14.3318
14.3321
14.3354
14.3454
14.3337
14.3345
14.4026
14.3333
14.3494
14.3774
14.3766
14.306
14.317
14.3383
14.3337
14.3499
14.281
14.3231
14.3676
14.3269
14.323
14.3337
14.2881
14.337
14.3247
14.3244
14.3215
14.3509
14.3285
14.324
14.4027
14.3221
14.3379
14.3765
14.3811
14.2914
14.3048
14.3248
14.3075
14.3235
14.323
14.3153
14.3562
14.3091
14.2994
14.3063
14.3022
14.3311
14.3151
14.3063
14.3016
14.3355
14.3192
14.3127
14.3986
14.3184
14.329
14.3662
14.389
14.278
14.2989
14.31
14.2696
14.2734
14.3474
14.2977
14.3382
14.2947
14.2694
14.2729
14.3122
14.3126
14.3053
14.2852
14.277
14.3046
14.3083
14.2962
14.3944
14.3207
14.3252
14.3637
14.3924
14.2788
14.2929
14.2932
14.2322
14.2191
14.3518
14.2859
14.3076
14.2841
14.2383
14.233
14.2976
14.2923
14.2902
14.2583
14.2415
14.2816
14.2952
14.274
14.3887
14.3268
14.3271
14.3499
14.3796
14.2821
14.2852
14.2696
14.1854
14.1946
14.3219
14.2485
14.2715
14.2572
14.1779
14.1649
14.2586
14.2641
14.2672
14.2178
14.1858
14.2686
14.2768
14.25
14.3967
14.3401
14.3384
14.3439
14.3572
14.2819
14.2762
14.2369
14.0866
14.0918
14.2591
14.1856
14.2268
14.2231
14.0836
14.0044
14.2074
14.2198
14.2408
14.1777
14.0918
14.2536
14.2585
14.2216
14.4149
14.371
14.3584
14.3466
14.327
14.294
14.2781
14.2078
13.9226
13.8236
14.2094
14.1421
14.1957
14.1946
13.9092
13.6043
14.1904
14.1902
14.2261
14.107
13.9082
14.2066
14.2517
14.2109
14.434
14.4214
14.3934
14.3586
14.2756
14.3459
14.3236
14.1983
13.6896
13.0908
14.3088
14.2215
14.2027
14.181
13.6416
12.6892
14.2752
14.2084
14.2599
14.0156
13.5364
14.2238
14.2806
14.2123
14.45
14.4956
14.4444
14.3807
14.2368
14.4468
14.3961
14.2091
13.456
10.9966
14.4343
14.3448
14.3016
14.1568
13.3927
11.388
-6.01935
14.4482
14.2516
14.3154
13.9057
12.6841
14.3307
14.3543
14.2488
14.5019
14.5755
14.5094
14.434
14.2595
14.5656
14.477
14.2498
13.428
9.38416
0.122995
14.6388
14.578
14.4836
14.2072
13.3192
10.8571
1.04924
14.8272
14.5046
14.3915
13.8684
11.5552
14.6146
14.4612
14.3226
14.5583
14.6421
14.5771
14.5008
14.324
14.6583
14.5505
14.3336
13.6666
10.7771
2.77595
14.7684
14.7599
14.5999
14.3131
13.7254
10.9677
3.3742
15.0463
14.696
14.4887
14.1075
12.3073
4.10486
14.7552
14.5899
14.453
14.6235
14.6942
14.6355
14.566
14.4428
14.7186
14.6134
14.4573
14.0741
11.7825
3.14235
14.8168
14.8117
14.6752
14.4647
14.1805
11.8779
3.37793
14.9723
14.7685
14.6086
14.3521
13.1193
14.7941
14.64
14.5847
14.6703
14.7321
14.6728
14.6179
14.5675
14.7586
14.655
14.5765
14.3734
13.1122
14.8373
14.8283
14.7118
14.5937
14.4564
12.9445
-3.16371
14.8977
14.7871
14.6897
14.5625
14.2466
14.8103
14.6799
14.6741
14.7364
14.7608
14.7019
14.672
14.7023
14.771
14.6788
14.6398
14.5794
14.5103
14.8354
14.8194
14.7268
14.6384
14.5608
14.3079
14.8546
14.7726
14.7049
14.6276
14.6401
14.7958
14.7036
14.7282
14.7407
14.753
14.7102
14.6825
14.7206
14.7492
14.6748
14.6235
14.592
14.6948
14.8059
14.7837
14.7125
14.6515
14.5629
14.6469
14.8315
14.7425
14.6933
14.6557
14.6849
14.7533
14.7027
14.7385
14.72
14.7217
14.6894
14.6628
14.6809
14.7071
14.6464
14.6081
14.5764
14.6736
14.7736
14.7518
14.6991
14.649
14.5821
14.6532
14.7876
14.7332
14.7108
14.6515
14.6555
14.7418
14.7347
14.7253
14.6786
14.6846
14.6511
14.6243
14.6349
14.6455
14.5895
14.5247
14.4806
14.6093
14.7559
14.7223
14.6705
14.6283
14.5201
14.5591
14.7554
14.7227
14.6986
14.636
14.5726
14.7372
14.7328
14.7248
14.644
14.6366
14.6046
14.5846
14.6073
14.6001
14.5452
14.4707
14.4306
14.5829
14.7416
14.6948
14.6474
14.6081
14.486
14.5362
14.7379
14.7232
14.6959
14.6226
14.5453
14.7374
14.7322
14.7134
14.6455
14.5558
14.5748
14.5813
14.6404
14.5413
14.4961
14.459
14.516
14.6366
14.7273
14.6762
14.6523
14.6104
14.5214
14.5867
14.7279
14.7213
14.7113
14.643
14.5902
14.7376
14.7422
14.7355
14.7088
14.4773
14.5835
14.631
14.7497
14.4634
14.4669
14.5131
14.5885
14.7738
14.7261
14.6869
14.6532
14.6228
14.5749
14.671
14.7192
14.7232
14.7447
14.6992
14.6769
14.7332
14.7394
14.7699
14.7925
14.5925
14.6615
14.7067
14.8196
14.5342
14.55
14.5833
14.6617
14.8516
14.7693
14.7319
14.7256
14.6903
14.6558
14.7588
14.7215
14.7533
14.8082
14.7642
14.7596
14.7472
14.7651
14.805
313.943
299.245
318.168
309.533
288.073
292.415
278.923
263.213
193.768
292.483
316.611
275.144
301.286
310.243
291.063
295.632
280.231
280.51
273.705
263.135
259.995
255.919
245.857
247.828
234.882
231.493
118.11
140.802
137.217
231.137
282.719
232.814
276.596
285.159
273.032
283.508
278.213
265.141
260.059
273.328
276.667
256.186
249.116
288.177
291.814
236.107
257.764
250.748
193.882
227.731
286.969
271.057
280.607
299.993
287.905
282.768
282.458
285.959
288.046
280.988
288.336
294.023
308.724
310.657
323.083
336.042
341.977
277.806
260.846
304.222
296.922
306.364
289.902
300.531
292.82
286.225
293.364
286.713
293.861
310.492
341.856
315.323
355.23
379.535
367.413
387.186
371.135
316.67
291.14
291.115
301.523
295.309
307.97
331.471
299.229
354.993
265.939
153.76
274.237
278.39
276.513
212.511
175.855
216.08
265.388
259.62
246.123
249.479
246.528
248.103
233.167
112.99
62.5018
261.685
180.615
258.658
122.793
153.381
97.7431
168.867
229.757
233.292
226.88
226.41
224.143
227.222
226.581
227.397
226.714
82.8769
98.8463
94.5503
54.3325
56.2294
56.7269
234.088
237.064
225.514
226.486
230.025
147.622
210.412
57.7195
59.409
102.201
245.098
264.448
238.511
237.142
250.572
256.696
177.063
281.478
280.76
280.821
231.424
269.552
256.907
272.713
291.179
312.172
304.168
271.306
261.893
274.018
265.779
257.834
280.26
274.644
281.149
278.598
276.282
276.326
277.103
292.871
283.508
281.396
280.269
281.545
275.252
40.3087
16.4989
114.83
61.6165
121.355
43.229
21.176
51.3182
194.012
207.427
93.7917
125.842
158.91
210.658
178.459
27.6533
16.7982
42.1156
32.2013
69.0082
16.0451
15.7148
15.8546
19.8932
215.196
221.376
223.441
191.461
195.102
199.456
206.11
223.63
207.826
30.9511
35.0028
33.5211
19.7292
26.1135
22.8067
210.46
209.28
188.5
166.254
163.539
23.8734
34.7203
19.7234
18.9355
17.2181
214.345
220.978
164.95
168.141
165.758
93.0043
32.7408
227.332
202.943
243.561
81.4644
148.634
132.3
178.184
225.529
234.909
226.558
169.1
165.856
176.669
167.887
163.214
255.485
201.599
265.139
264.309
231.859
231.147
232.479
251.258
260.27
208.027
193.825
214.139
186.206
15.2469
15.6202
21.4089
13.9381
21.6952
15.7952
14.1002
13.9163
61.6319
101.765
18.6539
25.1876
51.9901
118.36
52.8769
14.8745
14.7701
14.5987
14.2049
13.6986
14.5985
14.9827
14.0887
14.4058
126.884
122.711
120.102
52.6559
25.8747
41.3814
20.8342
113.179
15.9402
16.1917
18.9953
16.3805
15.0308
14.4967
13.3332
65.6875
78.1293
14.8733
14.502
16.5142
17.4165
14.9938
14.7863
14.9559
14.0274
87.7269
91.2126
16.1212
19.4901
20.6797
13.9633
13.4671
68.9092
53.1388
97.638
12.9241
17.7545
14.0709
21.1613
95.9902
107.683
102.226
29.9193
31.0088
41.4161
41.6652
31.6424
120.751
36.7272
149.589
150.892
59.2271
52.6283
52.2341
115.43
127.891
27.5285
35.7977
34.2027
44.0028
14.3921
13.5144
13.0781
13.7119
12.1671
12.648
13.3397
12.5547
13.5902
18.6609
13.0696
12.9088
12.8299
15.5151
12.4465
14.3527
13.8236
14.165
13.65
13.9069
13.5804
13.4703
13.3048
13.4523
10.5539
13.9618
9.06648
12.4259
12.8531
12.0485
13.1022
9.47371
13.9114
14.7377
13.799
13.4587
14.5189
14.1302
13.7772
11.3335
10.8469
13.1159
13.1068
13.3876
13.5026
13.611
13.5713
13.6644
13.8554
11.3923
11.5399
13.4657
13.5858
13.4879
13.4449
13.3449
13.0316
13.0176
12.8024
13.3005
13.2694
13.442
13.4925
12.2435
13.2053
12.9452
13.3111
13.3649
13.3376
13.2438
13.3348
13.551
13.2713
14.2756
14.0149
12.8361
12.9014
12.9762
12.8668
12.4725
13.4323
13.4134
13.2993
13.4007
13.3125
13.3143
12.9835
13.2574
13.0438
13.1021
13.2835
13.1993
13.0424
13.0135
13.0845
13.0545
13.057
13.0348
12.9833
13.5416
13.4701
13.2787
13.2141
13.3624
13.4163
13.2245
13.1809
13.351
13.0967
12.6016
13.4217
12.7042
12.9095
12.6215
12.9218
13.7274
13.087
14.2378
14.5854
14.0068
14.1313
14.8298
14.3693
13.3135
13.6144
13.3402
13.1909
13.4856
14.4092
13.6971
14.4795
14.4702
12.9819
13.7297
13.3627
13.5402
13.6366
13.4678
13.2218
13.1414
13.3136
13.4068
13.5025
13.2019
13.2951
13.4001
13.4123
13.5216
13.8402
13.7725
13.4735
13.441
13.4777
13.5424
13.4386
13.5608
13.4537
13.8252
13.812
13.5478
13.5908
13.5731
13.7897
13.8248
13.6422
13.6256
13.6434
13.5023
13.3079
13.2869
13.1805
13.2804
13.2653
13.2487
13.2815
13.312
13.1605
13.1157
13.2131
13.2222
13.1787
13.0521
13.1237
13.6565
13.8317
13.1993
13.1808
13.3327
13.4274
13.1878
13.2377
13.3254
12.9589
12.7801
12.9262
13.0544
13.0967
12.9804
13.1155
12.9303
13.1119
14.3175
14.7695
14.0685
14.4716
13.8601
13.4669
13.1727
13.2134
13.4132
13.3957
13.1927
13.3356
13.4033
13.4309
13.404
13.4197
13.4555
13.4098
13.4291
13.4173
13.2173
13.0053
12.5997
12.5819
13.1121
13.4501
13.4869
13.3763
13.4086
13.3485
13.4873
13.3357
13.369
13.3356
13.3848
13.4018
13.3595
13.4253
13.3845
13.1446
13.1467
13.2788
13.3608
13.4122
13.1659
13.2777
13.3514
13.4103
13.6516
13.6758
13.6368
13.5338
13.5507
13.5027
13.5194
13.5467
13.4809
13.4556
13.4852
13.5042
13.4935
13.4512
13.4665
13.6332
13.6076
13.4999
13.4931
13.5622
13.5081
13.2607
13.2409
13.2963
13.2826
13.3307
13.3297
13.2676
13.3232
13.2606
13.243
13.2192
13.2852
13.2882
13.2185
13.2953
13.6259
13.1063
13.1776
13.2486
13.3026
13.3432
13.1764
13.1584
13.2442
13.2355
13.1366
13.3197
13.2165
13.3444
13.2606
13.4306
13.5168
13.405
13.6429
13.5595
13.4858
13.4693
13.5192
13.4863
13.7874
12.9965
13.1552
12.8581
12.9314
13.0586
13.3664
13.4327
13.443
13.5622
13.4713
13.4657
13.4575
13.4551
13.4405
13.4457
13.4878
13.4594
13.4532
13.4438
12.9527
13.1354
13.2031
13.1464
13.1351
13.3501
13.4525
13.3511
13.3464
13.326
13.3345
13.2745
13.3898
13.3615
13.402
13.3682
13.3822
13.3134
13.3692
13.1489
13.1737
13.2836
13.3443
13.3862
13.2401
13.2753
13.317
13.3451
13.5453
13.5223
13.5414
13.4696
13.4626
13.4415
13.4557
13.3859
13.4232
13.3453
13.3879
13.3286
13.3592
13.4087
13.3597
13.4065
13.4201
13.3715
13.3453
13.3538
13.4796
13.4864
13.3733
13.3919
13.3981
13.4116
13.2065
13.1508
13.2955
13.2224
13.2732
13.2248
13.1627
13.2016
13.286
13.3009
13.2171
13.2526
13.2717
13.3234
13.3061
12.8985
13.0221
13.1459
13.1313
13.1551
13.1749
13.0973
13.1837
13.0621
13.3713
13.3265
13.434
13.2928
13.3374
13.3135
13.3736
13.6222
13.5766
13.4335
13.5401
13.5384
13.4953
13.5389
13.4945
12.4287
12.8206
13.0192
12.537
12.427
12.896
13.4942
13.4244
13.4411
13.454
13.4695
13.3486
13.4128
13.4628
13.4526
13.4462
13.4856
13.4716
13.4361
13.4464
13.0182
13.1232
12.6544
12.9883
13.1578
13.3013
13.2458
13.2466
13.1966
13.2815
13.1756
13.2398
13.3792
13.2901
13.3443
13.3349
13.3745
13.2724
13.3291
13.1859
13.1841
13.256
13.2859
13.296
13.2423
13.2268
13.2552
13.2402
13.3709
13.3184
13.3625
13.2652
13.2856
13.2346
13.2873
13.3216
13.2585
13.3249
13.3434
13.3235
13.3289
13.3028
13.2394
13.2692
13.2776
13.2194
13.1917
13.2003
13.2779
13.2865
13.1482
13.159
13.1755
13.2032
13.0766
12.9898
13.1265
13.0829
13.1053
13.0159
12.9861
13.0077
13.1804
13.2005
13.0673
13.0908
13.1078
13.2362
13.1499
13.1519
13.188
13.0458
13.203
12.9886
13.0808
12.9976
13.1453
12.9276
13.2657
13.2446
13.2727
13.1455
13.1798
13.1568
13.1845
13.2331
13.0704
12.8796
12.6795
12.8343
13.0943
12.939
12.8989
13.4619
13.2651
13.3537
13.1329
13.2989
13.163
13.2142
13.4723
13.4344
13.4445
13.462
13.4761
13.402
13.4365
13.0815
13.1633
13.1634
13.1193
13.1145
13.2472
13.1342
13.2363
13.075
13.1719
13.0893
13.1783
13.368
13.2813
13.3277
13.3551
13.3728
13.3212
13.3315
13.1775
13.1419
13.1817
13.2044
13.177
13.1533
13.1271
13.1436
13.1155
13.2175
13.1545
13.2111
13.1418
13.1637
13.105
13.1596
13.14
13.1726
13.112
13.1228
13.1236
13.0711
13.0564
13.0677
13.0315
13.0681
12.9777
12.9697
13.003
13.0456
12.9075
12.8362
12.9157
12.8862
12.9173
12.8265
12.792
12.8289
12.9961
13.0033
12.8854
12.9011
12.9038
13.0581
12.966
13.0903
12.9527
12.9491
13.0548
12.8621
12.9121
12.8961
12.9524
12.7834
13.0936
13.0654
13.1059
12.957
13.0097
12.9791
13.0319
13.0316
13.0004
13.0763
12.9619
12.8887
12.9705
12.8165
12.8126
13.0581
13.0365
12.9334
12.9776
12.7021
13.0407
13.0531
12.9314
12.9319
12.9812
13.1206
13.0485
12.9909
12.9571
13.0134
13.0772
12.9927
13.0707
13.0749
13.0569
12.9848
13.0147
13.0057
13.0051
13.1167
13.0706
13.1176
13.0548
13.0714
13.055
13.0878
13.0609
13.0526
12.9992
13.0043
13.0171
12.9439
12.9673
12.9829
12.9555
12.9765
12.9565
12.9592
12.9674
13.015
12.7698
12.6985
12.745
12.7052
12.7484
12.6753
12.6269
12.6756
12.806
12.8189
12.7087
12.7241
12.7419
12.8728
12.7828
12.8524
12.7912
12.8366
12.8431
12.7015
12.7631
12.7635
12.7337
12.6327
12.9173
12.8942
12.9435
12.7856
12.8239
12.8082
12.8395
12.9364
12.8577
12.8696
12.7111
12.7322
12.8058
12.6795
12.6682
12.9347
12.8742
12.8819
12.8901
12.8749
12.8718
12.914
12.8276
12.8526
12.8563
12.9663
12.9706
12.8975
12.8964
12.9324
12.914
12.8583
12.9616
12.9427
12.9528
12.8514
12.9166
12.8911
12.8988
13.0265
13.0379
13.0549
12.9743
12.9835
13.0219
13.0261
12.9812
12.948
12.9014
12.9281
12.9472
12.8438
12.8944
12.9173
12.9552
12.9545
12.9367
12.9436
12.9405
12.9955
12.6398
12.5983
12.6071
12.5677
12.6041
12.5442
12.531
12.5427
12.6536
12.6675
12.5713
12.5856
12.6013
12.7016
12.6293
12.719
12.6172
12.7022
12.6032
12.5767
12.6498
12.6371
12.4795
12.5299
12.7444
12.7251
12.7473
12.6337
12.6673
12.646
12.6746
12.7758
12.7026
12.7592
12.667
12.6049
12.6899
12.6463
12.532
12.8259
12.8226
12.7443
12.7641
12.77
12.8404
12.8154
12.7925
12.8559
12.8209
12.8406
12.8872
12.7907
12.79
12.8477
12.8673
12.8826
12.8885
12.8548
12.8484
12.8583
12.8667
12.826
12.8044
12.9437
13.0059
12.9991
12.9079
12.9045
12.9915
12.9753
12.9065
12.856
12.8147
12.8663
12.89
12.7759
12.8486
12.8692
12.9305
12.9277
12.9184
12.9189
12.9211
12.9709
12.5512
12.5089
12.4851
12.491
12.4837
12.431
12.4551
12.4306
12.5231
12.5375
12.4524
12.4672
12.4761
12.5573
12.4824
12.5152
12.447
12.5731
12.3843
12.4761
12.5342
12.5155
12.3185
12.4246
12.5921
12.5715
12.6
12.4842
12.5229
12.4964
12.5178
12.6349
12.5634
12.6089
12.6436
12.5019
12.5854
12.746
12.5952
12.6896
12.7075
12.608
12.6214
12.6502
12.84
12.8247
13.2948
12.8782
12.8303
12.7409
12.8093
12.6951
12.6964
12.7861
12.8694
12.8564
12.8425
12.7969
12.7662
12.8285
12.8113
12.7658
12.7328
12.8705
12.9774
12.9546
12.8628
12.8434
12.9707
12.9414
12.8573
12.7847
12.7638
12.8371
12.8533
12.7609
12.836
12.8504
12.9141
12.9199
12.9232
12.9095
12.9253
12.9533
12.4912
12.4976
12.3966
12.4398
12.4043
12.3721
12.4575
12.3727
12.4143
12.4182
12.3634
12.3678
12.3687
12.4031
12.353
12.4343
12.452
12.4836
12.2807
12.386
12.4786
12.4819
12.2734
12.3626
12.4391
12.4179
12.4424
12.2938
12.3696
12.3518
12.3857
12.4828
12.4238
12.5878
12.8032
12.7091
12.5863
12.7378
12.7413
12.5597
12.6072
12.4954
12.5158
12.5904
12.9303
12.8372
13.0136
12.8435
12.7902
12.6609
12.7748
12.6136
12.6433
12.7882
12.8375
12.8035
12.7772
12.7337
12.6984
12.7736
12.7421
12.7094
12.6675
12.8277
12.9608
12.9277
12.852
12.826
12.9579
12.9263
12.8673
12.748
12.7396
12.8418
12.8599
12.7788
12.8563
12.8766
12.9182
12.9343
12.9408
12.9147
12.9341
12.9474
12.5196
12.5971
12.3665
12.4934
12.3654
12.4054
12.5479
12.416
12.3332
12.3159
12.3246
12.3132
12.2693
12.316
12.2831
12.4731
12.501
12.4914
12.292
12.3501
12.5475
12.5342
12.3331
12.3635
12.3253
12.3029
12.3532
12.2486
12.3069
12.2707
12.3456
12.3872
12.405
12.5663
12.6704
12.7121
12.5532
12.6365
12.6769
12.5141
12.6235
12.4943
12.5594
12.697
12.7584
12.7325
12.6638
12.7375
12.7058
12.6561
12.8242
12.5991
12.7029
12.8823
12.7707
12.7511
12.7072
12.7076
12.6513
12.749
12.6729
12.7223
12.6606
12.8444
12.9664
12.9389
12.894
12.8734
12.9823
12.9588
12.9745
12.7443
12.7618
12.8752
12.8945
12.8382
12.8923
12.9055
12.9222
12.9444
12.9606
12.9332
12.9539
12.9729
12.7179
12.8829
12.5051
12.6763
12.4929
12.6699
12.8552
12.646
12.3104
12.2726
12.4127
12.3606
12.3338
12.2794
12.3396
12.5544
12.6483
12.6275
12.4117
12.4199
12.7962
12.7757
12.5332
12.5156
12.3345
12.2528
12.3721
12.3389
12.4211
12.2874
12.4399
12.4663
12.5729
12.5909
12.6313
12.6995
12.6456
12.6757
12.7891
12.6532
12.8454
12.6786
12.7778
12.9794
12.7379
12.7029
12.6477
12.7389
12.717
12.8157
12.979
12.7376
12.9178
13.0597
12.7502
12.7638
12.6497
12.748
12.695
12.787
12.6432
12.7862
12.7504
12.9352
13.0102
12.9995
12.993
13.0066
13.0447
13.0488
13.142
12.7929
12.8379
12.9173
12.9315
12.9511
12.9472
12.9511
12.9704
13.0007
13.0113
13.0007
13.012
13.0366
13.1707
13.5187
12.9061
13.1098
12.8843
13.2268
13.4618
13.1915
12.5495
12.4727
12.9177
12.8216
12.6712
12.4687
12.6941
12.7768
12.8907
12.9923
12.6783
12.6662
13.2246
13.2802
12.8284
12.846
12.5786
12.382
12.5715
12.6917
12.8093
12.5777
12.7783
12.7563
12.9932
12.7189
12.7214
12.8343
12.8315
12.7795
12.826
12.929
13.211
12.9777
13.0586
13.3483
12.7368
12.7392
12.7222
12.742
12.7771
13.0868
13.1482
12.931
13.1969
13.1979
12.7985
12.8506
12.6909
12.8349
12.8228
12.8739
12.7417
12.8875
12.9053
13.0832
13.1013
13.1044
13.1256
13.1651
13.1284
13.1443
13.2458
12.9011
12.9756
13.0015
13.01
13.1116
13.0582
13.0606
13.1018
13.1123
13.138
13.1397
13.1382
13.1468
13.8423
14.036
13.538
13.7734
13.5554
13.7891
13.9543
13.8217
13.1764
13.0631
13.7369
13.6053
13.5504
13.0718
13.4869
12.9689
13.033
13.6464
12.983
13.0366
13.659
13.9106
13.1252
13.1858
13.1597
12.9069
13.0899
13.362
13.4553
13.2835
13.3685
13.2837
13.4611
12.9133
12.8783
12.8405
12.9307
12.9525
12.8408
13.211
13.4562
13.3347
13.3506
13.417
12.7788
12.8474
12.869
12.8437
12.9293
13.297
13.2531
13.2355
13.3169
13.2879
12.9254
13.0129
12.8467
12.946
13.0113
12.984
12.9319
13.0138
13.1104
13.2243
13.1978
13.214
13.2488
13.2695
13.2339
13.2509
13.2902
13.0671
13.1608
13.1374
13.1414
13.2637
13.2152
13.2196
13.2547
13.238
13.2992
13.3028
13.2976
13.2817
14.0331
13.9809
14.0044
13.9944
13.9782
14.0925
13.9609
14.054
13.9616
13.8946
14.1438
14.0892
14.0195
13.7853
13.9052
13.0832
13.102
13.8928
13.228
13.2721
13.7062
13.8344
13.2739
13.3299
13.6545
13.5644
13.5766
13.7735
13.734
13.7247
13.6608
13.6019
13.6375
12.9297
12.9697
12.8231
12.9549
12.993
12.8529
13.4169
13.435
13.541
13.492
13.4748
12.9157
13.0032
13.0009
12.9712
13.06
13.3626
13.3194
13.3621
13.4033
13.3413
13.0869
13.1411
13.0424
13.1045
13.1995
13.0801
13.1442
13.1882
13.2681
13.3004
13.2736
13.2921
13.3217
13.324
13.3059
13.3187
13.335
13.2483
13.323
13.3055
13.3068
13.4151
13.3649
13.3725
13.3491
13.3576
13.3915
13.3855
13.3974
13.3644
13.9239
13.7865
14.0292
13.8905
14.0031
13.9136
13.7994
13.8981
14.0367
13.9888
13.9461
13.9321
13.9043
13.8901
13.8357
13.114
13.1329
13.9035
13.285
13.4264
13.6568
13.8288
13.2645
13.4653
13.7464
13.7621
13.6978
13.7756
13.7378
13.744
13.6928
13.6572
13.6585
12.9859
13.012
12.9157
13.0149
13.0234
12.9621
13.5162
13.5068
13.5816
13.5349
13.5233
13.0179
13.1083
13.0463
13.0582
13.1459
13.4206
13.3633
13.408
13.4255
13.3842
13.1918
13.2374
13.2362
13.2605
13.332
13.1952
13.3377
13.3198
13.3869
13.3433
13.3339
13.3433
13.3627
13.3628
13.3591
13.3639
13.3721
13.3899
13.4376
13.4269
13.4358
13.522
13.47
13.4833
13.4095
13.4327
13.4404
13.4303
13.4546
13.4162