/*--------------------------------*- C++ -*----------------------------------*\
| =========                 |                                                 |
| \\      /  F ield         | OpenFOAM: The Open Source CFD Toolbox           |
|  \\    /   O peration     | Version:  5.x                                   |
|   \\  /    A nd           | Web:      www.OpenFOAM.org                      |
|    \\/     M anipulation  |                                                 |
\*---------------------------------------------------------------------------*/
FoamFile
{
    version     2.0;
    format      ascii;
    class       surfaceScalarField;
    location    "3";
    object      phi;
}
// * * * * * * * * * * * * * * * * * * * * * * * * * * * * * * * * * * * * * //

dimensions      [0 3 -1 0 0 0 0];

internalField   nonuniform List<scalar> 
29271
(
-7.45143e-06
-4.48034e-07
4.54532e-06
3.46925e-06
-8.14835e-06
-2.87057e-06
4.57698e-06
6.40182e-06
-1.78893e-05
-1.46454e-06
1.25954e-06
3.19525e-06
1.44473e-06
1.34543e-05
-2.34957e-05
-1.00047e-05
-6.18048e-06
3.76321e-06
9.16621e-06
2.67515e-05
-2.73333e-05
-7.96455e-06
1.04484e-05
1.0778e-05
2.26431e-05
-8.57171e-06
-2.82928e-05
-7.96018e-06
3.56684e-05
-2.20259e-05
-2.74223e-06
2.53528e-05
-2.18662e-05
-2.11258e-06
1.02991e-05
1.51831e-06
-1.56752e-06
1.37289e-05
-3.08988e-05
7.25636e-06
-1.13752e-05
1.29897e-05
-1.84177e-05
4.04456e-05
-2.83514e-05
4.9426e-06
-1.27058e-05
9.53203e-06
-1.3225e-05
3.98075e-05
-2.76806e-05
7.00483e-06
-2.36756e-05
4.19389e-05
2.40924e-06
-6.35758e-06
5.65046e-06
-6.22894e-06
6.69838e-06
-2.46625e-05
1.37996e-05
1.5129e-05
-2.23133e-05
-1.31158e-05
3.11629e-05
-2.47614e-05
6.88287e-06
1.62422e-05
-5.91762e-06
-8.14561e-06
1.56995e-05
-2.81665e-05
2.17457e-05
1.85546e-06
-4.09319e-06
-1.47937e-05
2.34522e-05
-2.01102e-05
1.06849e-05
4.62713e-06
2.45317e-07
-8.07746e-06
1.26303e-05
-2.14059e-05
1.16205e-05
1.5791e-05
-1.61828e-05
1.53566e-05
-5.1793e-06
-1.64509e-05
3.98232e-06
-2.28122e-06
-3.59216e-06
1.11373e-05
7.20463e-06
-3.25876e-05
2.75657e-06
1.03458e-05
-6.64982e-06
-4.05261e-06
3.01877e-05
-1.69168e-05
8.00939e-06
7.01704e-06
-5.05151e-06
-2.9467e-06
9.88856e-06
-1.71444e-05
6.01992e-07
-2.41096e-06
9.42879e-06
5.88901e-06
3.63559e-06
-1.23965e-05
8.35577e-06
-7.03055e-06
1.10521e-05
-2.01503e-05
1.74423e-07
-5.56274e-06
2.26793e-05
2.87539e-06
-2.55297e-05
7.27016e-06
-9.63909e-06
5.13684e-06
2.26192e-05
1.42608e-07
-8.47132e-06
-1.43826e-06
3.99146e-06
5.93059e-06
-2.81278e-06
2.42652e-06
-2.82866e-06
3.23709e-06
-6.21116e-06
-7.52277e-07
2.04659e-07
6.60965e-06
2.07278e-06
3.49535e-06
-1.529e-05
-7.4469e-06
-3.04429e-06
2.02131e-05
3.92635e-06
-2.21503e-05
5.75857e-06
-1.88422e-06
-2.65651e-06
1.70061e-05
-2.31678e-05
2.09135e-06
-4.19081e-06
-2.49163e-06
2.52573e-05
2.50165e-06
7.77529e-08
1.43415e-05
-1.84778e-05
-8.05645e-06
-3.40241e-06
1.55174e-05
-1.19234e-05
-1.27671e-05
6.03873e-05
-1.04043e-05
-2.1539e-05
-1.17066e-05
-2.44461e-05
2.0742e-06
1.80064e-06
4.37107e-06
2.81106e-06
4.87747e-06
5.35625e-06
5.52136e-06
5.58724e-06
-1.28481e-05
-1.09602e-05
0.000168981
-4.21178e-05
-4.96831e-05
-2.99569e-05
-2.89991e-05
-5.08928e-06
-2.5925e-06
4.40505e-07
9.02349e-07
-6.53355e-06
-3.15415e-06
0.000152464
-5.44945e-06
-6.39508e-06
-4.31109e-07
-1.37178e-06
-1.46322e-06
-2.85408e-06
-9.66733e-07
-4.40469e-05
-5.71846e-05
-1.65187e-05
-1.89423e-05
-4.58336e-05
-2.46021e-06
6.21995e-07
4.12201e-05
-7.18643e-06
-1.94015e-06
-4.47311e-06
1.34509e-05
1.66791e-05
-3.61864e-05
5.30278e-06
-1.50199e-05
-9.78765e-06
3.90122e-05
-4.78846e-06
-1.31663e-05
6.22637e-05
-1.14718e-05
-1.63532e-05
-2.71279e-05
-2.16197e-05
4.79904e-06
3.97388e-06
5.92821e-06
4.79537e-06
-1.99386e-06
-5.43354e-06
5.54178e-05
-1.78972e-05
-1.63067e-05
-1.40204e-05
-1.55146e-05
-7.80474e-07
-1.31391e-06
3.99867e-05
-9.97911e-07
-4.09226e-07
-3.10075e-07
-1.04027e-06
-5.03843e-07
-5.3643e-07
-8.92921e-06
-9.25451e-06
-9.90341e-06
-1.11554e-05
-1.20595e-05
8.47713e-07
-9.8981e-08
-1.67894e-06
1.22092e-05
-1.17053e-05
6.07334e-06
-5.70612e-06
-4.5575e-06
9.76835e-06
6.12726e-06
-4.19263e-07
-2.29617e-06
7.19591e-05
3.5313e-06
3.71442e-06
3.87457e-06
3.60896e-06
-1.49519e-06
-1.32179e-06
-1.04945e-06
-2.2933e-05
-1.41707e-05
-3.28293e-05
-2.33397e-05
-4.19598e-07
-2.20474e-06
4.23318e-05
-5.64115e-08
2.6133e-07
2.44282e-07
-1.5566e-06
-1.09024e-06
-6.92449e-07
-9.2705e-06
-9.6965e-06
-1.24959e-05
-1.12073e-05
-7.46764e-06
-9.51136e-08
-8.92109e-07
6.72135e-06
-8.71086e-06
9.40591e-07
-7.0196e-08
7.88407e-06
-2.23179e-05
3.18005e-06
-1.61781e-06
1.85544e-05
-1.70842e-05
-4.80738e-07
1.02405e-06
-1.09486e-06
1.5431e-05
-5.8066e-06
1.14324e-06
-7.48271e-07
5.47897e-06
-3.61578e-06
6.7991e-06
-6.60574e-06
3.06166e-06
-7.98739e-06
-5.86989e-06
1.88038e-06
1.19637e-05
2.42887e-06
1.28268e-05
-2.50592e-05
-1.29777e-05
-4.16783e-06
2.69491e-05
4.29197e-06
-1.38782e-05
5.59038e-06
-3.08439e-06
-2.79164e-06
9.87184e-06
-2.48583e-05
2.15559e-06
-6.66681e-07
5.57304e-07
2.04693e-05
2.34283e-06
-3.79992e-06
6.53133e-06
-1.39385e-05
-1.23661e-06
-1.08543e-06
1.35291e-05
-1.29941e-05
-6.71553e-06
5.48459e-05
4.33608e-06
2.0929e-06
7.26709e-06
1.77805e-06
2.30481e-06
1.81351e-06
4.36204e-06
1.29656e-06
-4.62609e-06
3.67273e-06
0.000165383
-2.01367e-06
-4.25075e-06
-5.50552e-07
-1.62842e-06
-1.75743e-06
1.62851e-06
0.00016644
-5.51542e-06
-4.15366e-06
-2.84201e-06
-2.30866e-06
-1.50649e-06
-6.99551e-07
-1.44736e-06
-3.88125e-05
-2.32362e-06
1.11531e-06
3.84357e-05
-2.16801e-05
-4.36501e-06
1.60483e-06
2.4432e-05
8.40767e-06
-3.79589e-05
6.70971e-06
-7.00306e-06
-4.99981e-06
3.48443e-05
-2.51735e-06
-7.86786e-06
6.06327e-05
1.63379e-06
1.47014e-06
1.14032e-06
1.05637e-06
-2.56666e-06
-3.40068e-06
6.25405e-05
-1.66992e-06
-1.95773e-06
5.0507e-05
-2.00116e-06
-1.06588e-06
-8.18566e-07
-1.75556e-06
-1.0849e-06
-1.10478e-06
-1.32588e-05
9.03809e-07
-1.19646e-06
-5.42151e-07
1.24237e-05
-9.1377e-06
1.76347e-06
-3.73066e-06
-3.162e-06
1.16298e-05
2.63707e-06
-1.28465e-06
-2.83925e-06
6.84259e-05
1.13371e-06
1.05052e-06
2.11674e-06
1.4689e-06
-2.99128e-06
-1.59528e-06
-1.39408e-06
-1.61435e-06
-1.85509e-06
4.73437e-05
-1.37983e-06
-7.68933e-07
-8.96482e-07
-1.86279e-06
-6.46121e-07
-6.73579e-07
-7.22807e-06
-3.82594e-07
-9.24083e-07
4.96266e-06
-8.22217e-06
3.38306e-07
-4.62177e-07
8.36701e-06
-1.53469e-05
1.66197e-06
-1.2551e-06
1.22137e-05
-1.52577e-05
-4.64045e-07
2.39052e-07
-6.76964e-07
1.43046e-05
-4.87398e-06
6.72893e-07
4.49712e-07
3.82639e-06
-3.8682e-06
5.10835e-06
-4.49687e-06
3.0426e-06
-1.76817e-05
-9.48247e-06
4.13358e-06
2.30121e-05
1.04905e-06
9.47296e-06
-2.74781e-05
-6.07799e-06
-5.41499e-06
2.8449e-05
2.76115e-06
-6.31491e-06
3.32131e-06
-1.56233e-06
-1.39667e-06
3.19145e-06
-1.70202e-05
1.28991e-06
5.42394e-06
-4.03007e-07
1.09667e-05
-2.57326e-07
-4.5981e-06
8.79783e-07
-1.67296e-05
3.06618e-06
-1.58902e-06
1.89708e-05
1.57073e-06
-6.08341e-06
5.81085e-05
5.20511e-06
1.50827e-06
1.21152e-06
-6.15775e-07
9.63602e-07
-1.61513e-06
-1.53384e-06
-3.87373e-06
-7.99005e-06
3.05919e-06
0.000172251
2.22354e-07
-3.75739e-07
-6.64131e-10
-2.12295e-07
-4.27534e-06
-7.51162e-06
0.00022471
-1.71467e-06
-3.01426e-06
-6.49713e-06
-9.71102e-06
-6.10572e-06
-1.20036e-05
-1.54271e-05
-3.7774e-05
1.72073e-06
-7.75499e-06
3.95328e-05
-2.56848e-05
-2.57691e-06
1.15222e-06
2.70958e-05
3.91064e-07
-3.4299e-05
5.34027e-06
-1.12859e-06
-2.56397e-06
3.22602e-05
-2.41265e-07
-8.3599e-06
6.72771e-05
-6.85734e-08
4.41511e-07
-3.16455e-06
-1.33495e-06
-7.53618e-06
-7.09072e-06
7.99853e-05
-1.47705e-07
-1.65695e-06
6.40089e-05
-8.84541e-07
-6.51742e-06
-6.73471e-06
-1.64846e-06
-5.54271e-06
-5.41713e-06
-1.2754e-05
3.69607e-06
2.32557e-06
-1.90133e-06
8.48598e-06
-1.33289e-05
2.61323e-06
-1.59505e-06
-7.78194e-07
1.11012e-05
1.98769e-06
-2.96084e-06
7.33334e-08
6.131e-05
1.68146e-06
1.79945e-06
1.16468e-06
-1.21865e-06
-4.38805e-08
-5.94134e-07
-1.14539e-06
-4.67718e-07
-3.61326e-07
4.70942e-05
-1.96058e-07
-1.99504e-06
-1.80879e-06
1.78014e-07
-2.26165e-06
-2.88957e-06
-3.98361e-06
-2.9881e-07
-4.59695e-07
2.61745e-06
-6.82876e-06
1.39395e-06
1.86265e-07
5.33388e-06
-9.5091e-06
6.15452e-07
-3.46695e-07
9.353e-06
-1.5746e-05
3.94635e-08
-1.28551e-06
-7.23518e-07
1.73542e-05
-2.90598e-06
-2.86596e-08
6.06525e-07
2.37632e-06
-1.88435e-06
3.23823e-06
-4.29436e-06
2.94047e-06
-2.68965e-05
-8.44253e-06
5.65544e-06
2.96824e-05
2.02846e-06
5.76364e-06
-2.69199e-05
-2.03877e-06
-5.06293e-06
2.62295e-05
4.19809e-06
-9.45352e-07
2.0724e-06
-1.90279e-06
-3.51881e-06
9.64612e-08
-3.29858e-06
8.34265e-07
7.89989e-07
-9.80782e-07
1.75843e-06
8.96688e-07
-1.55744e-06
-1.18752e-06
-2.22072e-05
3.63812e-06
-6.50231e-06
2.78164e-05
-6.45555e-06
-1.90112e-05
4.60461e-05
5.27325e-06
7.42393e-06
6.56695e-06
8.30362e-06
1.22873e-06
9.31908e-07
2.97578e-06
4.82493e-06
-1.3109e-05
-6.25948e-06
0.000161074
5.35756e-06
4.53554e-06
7.77584e-06
6.42178e-06
-6.931e-06
5.3386e-07
0.000217521
2.43346e-06
-4.37866e-06
6.46864e-06
-7.28379e-07
-1.27359e-06
-2.847e-06
8.02863e-07
-3.61336e-05
-1.28546e-06
-1.36864e-06
3.18568e-05
-2.8808e-05
-3.01076e-06
8.83181e-07
3.0939e-05
-4.4193e-06
-2.61624e-05
6.44658e-06
4.40691e-06
-3.20904e-08
1.97603e-05
-1.56792e-05
-6.84368e-06
5.52504e-05
-1.54001e-06
5.78038e-06
3.25835e-06
8.03963e-06
7.25448e-07
3.12961e-06
5.41916e-05
2.10555e-06
1.85254e-06
4.3702e-05
2.55062e-06
3.86097e-06
4.32276e-06
1.10181e-06
3.3602e-06
2.41177e-06
3.25059e-06
7.85349e-07
-1.6761e-06
-1.80079e-06
1.54651e-06
-1.35238e-05
-4.03264e-06
-8.72854e-07
5.6318e-06
1.63151e-05
-3.51763e-06
-1.10903e-05
-1.08186e-06
6.48219e-05
3.52467e-06
-8.44188e-07
3.78328e-06
-1.50359e-06
-1.24607e-06
-9.85104e-07
-9.12442e-07
-1.30617e-06
2.39186e-06
3.32544e-05
-1.43957e-06
7.82494e-08
-2.70927e-07
6.79156e-08
3.60258e-06
2.75518e-06
2.83627e-06
-6.4218e-07
5.2273e-07
-2.17045e-06
-6.76813e-06
6.37243e-07
-7.29964e-07
6.86086e-06
-1.24424e-05
6.08443e-07
-1.47978e-06
1.22316e-05
-1.13892e-05
2.54539e-06
-2.13595e-06
2.62031e-06
1.07513e-05
-2.15954e-06
3.13452e-07
5.85928e-08
1.7875e-06
-4.91428e-06
1.28197e-06
-3.63048e-06
7.26279e-06
-3.13108e-05
-6.4686e-06
5.7504e-06
3.20243e-05
3.41048e-06
3.39363e-06
-2.62321e-05
-1.14585e-06
-6.02826e-06
2.66021e-05
4.78618e-06
-1.25556e-06
2.58481e-06
-3.22376e-06
-6.67933e-06
3.78765e-06
-6.67436e-06
-8.57556e-07
-1.59319e-06
-4.98144e-06
1.22138e-05
1.89271e-06
-6.2538e-07
-3.17083e-06
-3.44509e-05
2.86276e-06
-7.53856e-06
4.29229e-05
-1.98727e-05
-2.19945e-05
5.13144e-05
5.4256e-06
6.03288e-06
4.85236e-06
6.36206e-06
2.89932e-06
4.82581e-06
1.84282e-06
4.35806e-06
-1.05784e-05
-7.93478e-06
0.000124642
8.83894e-06
7.72351e-06
9.86304e-06
8.64606e-06
2.05956e-07
-3.77183e-06
0.000182036
7.13304e-06
3.23035e-06
7.60145e-06
3.90466e-06
2.11417e-06
1.2616e-06
3.22683e-06
-2.73718e-05
-7.72683e-07
1.86716e-06
-2.76701e-06
2.92503e-05
1.11543e-08
-2.35403e-09
7.83522e-09
-1.44098e-08
-3.20187e-05
-3.07974e-06
3.14698e-06
3.19611e-05
-3.29691e-06
-1.76108e-05
5.59456e-06
-1.49853e-06
-4.29299e-07
1.72409e-05
-1.6763e-05
-1.41484e-05
4.14629e-05
4.79205e-06
6.19835e-06
5.43273e-06
6.28133e-06
-5.6896e-06
1.36996e-06
3.38135e-05
8.50991e-07
3.92872e-07
2.9788e-05
1.15893e-06
1.3487e-06
1.04251e-06
-1.18733e-07
3.76215e-07
-5.98993e-07
-5.55463e-06
1.95557e-06
1.20731e-06
-2.72726e-06
5.97001e-06
-5.37325e-09
1.5136e-08
-2.29107e-09
1.80404e-09
-1.24442e-08
-1.869e-05
-3.29361e-06
-1.54575e-06
6.2814e-06
2.00445e-05
-2.79654e-06
-1.21817e-05
-9.19092e-07
5.88733e-05
3.46724e-06
-9.18746e-07
3.9239e-06
-4.34376e-08
-7.8915e-07
-4.10887e-07
-3.2786e-07
-2.44296e-06
2.09065e-06
2.08562e-05
-1.56915e-06
-2.21369e-06
-1.30498e-06
1.80535e-06
2.41396e-06
2.80724e-06
-1.03311e-07
-2.226e-06
1.31352e-06
-1.03429e-06
-6.49778e-06
1.68644e-06
7.66574e-07
4.04477e-06
-1.23237e-05
1.91961e-06
-3.94751e-06
1.34325e-05
-1.04672e-05
2.87078e-06
-2.54838e-06
2.75779e-06
9.47764e-06
-2.13873e-06
-1.62444e-06
1.20858e-06
2.55458e-06
-9.70931e-06
3.70695e-07
-2.57566e-06
1.19143e-05
-3.33132e-05
-4.8721e-06
2.99857e-06
3.51815e-05
3.22669e-06
2.66864e-06
-2.74188e-05
-2.23586e-06
-5.1335e-06
2.88928e-05
4.4218e-06
-6.9503e-06
4.02586e-06
-4.84185e-06
-6.86692e-06
1.02114e-05
-1.73311e-05
5.32039e-06
-6.46276e-06
-6.95978e-06
2.08701e-05
4.56317e-06
2.46397e-06
-5.22777e-06
-5.09919e-05
6.25664e-06
-7.77883e-06
5.52779e-05
-2.24369e-05
-1.90477e-05
6.60992e-05
4.25729e-06
5.44845e-06
4.57939e-06
6.07324e-06
-4.75601e-07
3.84466e-06
-1.18555e-06
4.158e-06
-1.28645e-05
-1.35744e-05
9.80472e-05
8.05242e-06
7.17753e-06
8.04388e-06
7.32342e-06
2.85029e-06
-1.11135e-05
0.000145883
6.6401e-06
5.67197e-06
6.59784e-06
5.7677e-06
2.14061e-06
2.52697e-06
2.20661e-06
-3.31115e-05
9.3484e-06
7.98312e-06
-2.01992e-06
2.06502e-05
-6.4967e-07
1.32266e-06
-2.87797e-06
3.60207e-07
-1.01116e-06
2.85594e-06
-3.22647e-05
-3.10053e-06
3.29394e-06
3.20609e-05
1.99365e-06
-1.6615e-05
5.61093e-06
-6.15286e-06
-1.74786e-06
1.69111e-05
-1.99521e-05
-1.1619e-05
2.91099e-05
5.83212e-06
6.33664e-06
6.16083e-06
6.54682e-06
-8.10283e-06
-1.7185e-06
1.01083e-05
2.27352e-06
-1.09738e-06
4.81121e-06
1.64696e-06
2.30903e-06
2.30287e-06
-1.03204e-06
-6.23845e-07
-1.86284e-08
-6.42844e-06
3.49837e-06
2.93565e-06
-4.47909e-06
6.74704e-06
-2.85926e-06
2.10814e-06
-2.07165e-06
4.49736e-07
-2.97935e-06
5.3524e-06
-2.22823e-05
-2.90212e-06
-1.05049e-06
1.43797e-06
2.53785e-05
-5.81563e-07
-1.89859e-05
-7.42339e-07
5.5752e-05
3.45703e-06
1.45818e-06
4.48871e-06
2.7617e-06
-3.6676e-07
-4.42587e-07
-1.25729e-07
-4.14515e-06
2.24679e-06
4.60047e-06
-3.17979e-06
-3.92792e-06
-2.67104e-06
2.32397e-06
2.45294e-06
2.45146e-06
2.64392e-06
-2.18375e-06
1.3867e-06
-7.0894e-06
2.60166e-07
4.28762e-06
-1.07394e-06
8.20074e-07
-4.29392e-06
2.52098e-06
-1.86658e-06
1.77068e-06
-2.42508e-06
-1.49694e-05
2.28163e-06
-4.12222e-06
1.60677e-05
-8.91911e-06
2.69339e-06
-3.84401e-06
2.52106e-06
9.79546e-06
-3.61207e-06
-3.87718e-06
3.2286e-06
4.26065e-06
-1.39658e-05
-4.06246e-07
-1.2425e-06
1.56145e-05
-3.65303e-05
-4.6144e-06
3.58625e-06
3.75585e-05
3.23216e-06
2.08656e-06
-3.14809e-05
-3.14358e-06
-5.10897e-06
3.44147e-05
3.0896e-06
-1.3705e-05
5.24531e-06
-6.2452e-06
-5.01681e-06
1.66321e-05
-2.31825e-05
7.21263e-06
-8.74192e-06
-5.88394e-06
2.39115e-05
6.68425e-06
3.8137e-06
-1.79471e-06
-5.68031e-05
5.43119e-06
-7.60829e-06
5.69612e-05
-2.36972e-05
-1.42547e-05
7.93482e-05
3.93526e-06
4.5962e-06
4.42741e-06
5.12879e-06
-1.2148e-06
3.69412e-06
-1.50313e-07
4.28615e-06
-1.57676e-05
-1.47132e-05
8.20437e-05
5.75625e-06
5.19192e-06
6.21349e-06
5.62544e-06
1.93161e-06
-9.57841e-06
0.000117312
4.74743e-06
4.52319e-06
5.04867e-06
3.94835e-06
8.57013e-07
3.50673e-07
9.74534e-07
-1.89392e-05
1.02821e-06
2.48404e-06
-2.98267e-07
1.76568e-05
-4.88018e-06
6.02566e-07
-6.96488e-07
-2.30624e-07
-1.10854e-06
6.31327e-06
-3.12019e-05
-2.12484e-06
2.40026e-06
3.09299e-05
1.11347e-06
-1.82668e-05
6.19223e-06
-5.49003e-06
-3.48078e-06
1.99319e-05
-1.53945e-05
-9.49846e-06
1.74295e-05
5.61032e-06
5.39361e-06
5.94204e-06
5.37271e-06
-1.71558e-06
-7.41834e-06
-1.08654e-05
2.42613e-06
-8.83527e-07
-1.1619e-05
1.1861e-06
3.17971e-06
3.98225e-08
-6.21028e-08
-1.14031e-06
3.90354e-07
-6.25065e-06
1.80927e-06
1.92864e-06
-1.23351e-06
6.17238e-06
-6.0018e-06
1.30903e-06
-1.07466e-06
1.84576e-07
3.74713e-08
5.54538e-06
-2.84197e-05
-1.68222e-06
-1.68571e-06
-7.35558e-07
2.99926e-05
2.53057e-06
-1.64106e-05
-6.75538e-07
4.7749e-05
4.08273e-06
3.12278e-06
5.09809e-06
3.61484e-06
-2.24113e-07
-2.66229e-07
1.62587e-07
-4.02926e-06
1.42741e-06
-1.56168e-05
-1.22933e-06
-4.25974e-06
-4.44557e-07
1.56477e-06
1.65288e-06
1.70613e-06
1.01318e-05
-3.27136e-06
-2.39845e-08
-1.17492e-05
5.9551e-06
-2.68857e-07
1.35369e-06
-5.11035e-07
-6.5289e-06
3.66063e-06
-1.56154e-06
-3.71425e-07
1.24584e-06
-2.9735e-06
-1.76719e-05
1.21082e-06
-3.34775e-06
1.91332e-05
-1.13469e-05
2.91528e-06
-4.87608e-06
2.34718e-06
1.2388e-05
-4.42751e-06
-2.69239e-06
3.49696e-06
3.62294e-06
-1.69436e-05
-3.41675e-07
-6.15245e-07
1.79005e-05
-3.84458e-05
-3.56027e-06
3.0691e-06
3.89369e-05
3.1969e-06
1.51543e-06
-3.79868e-05
-3.22945e-06
-4.88102e-06
4.13849e-05
2.29127e-06
-1.938e-05
5.10011e-06
-5.41268e-06
-3.96208e-06
2.13634e-05
-2.39752e-05
5.7015e-06
-6.59589e-06
-4.33131e-06
2.37352e-05
5.46571e-06
4.29419e-06
1.00737e-06
-5.67724e-05
2.04589e-06
-6.94392e-06
5.63689e-05
-2.05048e-05
-1.28889e-05
8.92752e-05
3.47077e-06
3.46924e-06
3.78996e-06
4.01462e-06
7.65546e-08
3.148e-06
1.17598e-06
4.32165e-06
-1.42773e-05
-1.30557e-05
6.9746e-05
4.80117e-06
4.11952e-06
5.45417e-06
4.75109e-06
-3.23992e-07
-2.94458e-06
9.76226e-05
3.75935e-06
3.15249e-06
4.2147e-06
2.49665e-06
5.90956e-07
-3.50346e-06
-2.02983e-06
-2.31125e-05
4.23092e-06
-4.62967e-07
-1.06333e-06
2.00839e-05
-7.4574e-06
1.65317e-06
-1.12022e-06
2.64925e-06
4.2752e-06
-3.16704e-05
-1.49666e-06
9.24674e-07
3.22423e-05
9.03615e-07
-2.16619e-05
6.69148e-06
-4.52209e-06
-4.92415e-06
2.3513e-05
-1.20003e-05
-1.05653e-05
9.21526e-06
5.04819e-06
3.97238e-06
4.92321e-06
3.94718e-06
-5.70886e-06
-9.59833e-06
-2.06143e-05
1.0592e-06
-1.03711e-07
-1.86243e-05
-1.80374e-06
-1.58896e-06
-1.81006e-06
1.29519e-06
-5.07055e-07
1.81109e-06
-5.98558e-06
-2.66684e-07
-6.28426e-07
1.72716e-06
6.21273e-06
-4.11833e-06
-3.57402e-06
2.5477e-06
-1.7644e-06
4.35907e-06
2.54999e-06
-3.10025e-05
-1.97207e-07
-3.04216e-06
-1.03303e-06
3.13081e-05
3.96683e-06
-1.18673e-05
-1.92652e-07
3.34786e-05
4.21903e-06
2.93931e-06
4.63572e-06
3.00595e-06
1.98673e-07
2.18297e-07
5.4805e-07
-4.684e-06
2.50902e-07
-2.69647e-05
-1.07236e-06
-5.03054e-06
-6.03005e-07
7.41888e-07
-1.48396e-07
4.27816e-07
1.34629e-05
-3.79206e-06
-7.08571e-07
-1.375e-05
5.36128e-06
-2.093e-06
2.62972e-06
-5.898e-06
-2.03883e-05
-3.84063e-07
-2.14898e-09
2.05819e-05
-1.46365e-05
6.99536e-07
-2.88793e-06
6.7629e-08
1.70081e-05
-2.49999e-06
-8.84878e-07
1.8467e-06
1.53816e-06
-1.85715e-05
-8.0351e-08
-3.83934e-07
1.90358e-05
-3.88223e-05
-1.91054e-06
2.44297e-06
3.82899e-05
2.91164e-06
5.04665e-07
-4.51296e-05
-2.6223e-06
-4.30645e-06
4.8642e-05
1.70473e-06
-2.31502e-05
4.38072e-06
-4.05949e-06
-3.38331e-06
2.45075e-05
-2.37343e-05
4.40217e-06
-4.18073e-06
-3.62123e-06
2.35424e-05
3.59172e-06
5.47535e-06
1.03267e-06
-5.68281e-05
4.36976e-07
-7.13461e-06
5.70177e-05
-1.65231e-05
-1.48273e-05
9.76731e-05
2.86971e-06
2.49049e-06
3.0047e-06
3.1697e-06
1.36542e-06
3.19473e-06
2.36741e-06
4.49027e-06
-9.91322e-06
-1.48861e-05
6.0597e-05
4.4787e-06
3.62543e-06
5.11714e-06
4.20388e-06
-3.78688e-06
-1.5742e-06
8.94024e-05
3.00726e-06
2.00379e-06
3.64095e-06
2.37049e-06
-2.85216e-06
-2.98777e-06
-1.51445e-06
-2.00556e-05
-3.18595e-09
-1.1446e-06
1.74165e-05
-3.2251e-05
-4.82246e-07
6.79638e-07
3.20536e-05
-1.75891e-07
-2.5425e-05
6.42323e-06
-3.15341e-06
-4.70713e-06
2.70382e-05
-1.05757e-05
-1.41413e-05
5.83921e-06
3.86163e-06
2.73624e-06
3.85979e-06
2.80817e-06
-1.09443e-05
-1.18334e-05
-2.32984e-05
-3.17167e-06
-2.64958e-07
-2.39479e-05
-2.3838e-06
-2.18056e-06
-2.22548e-06
1.90746e-06
-8.3668e-07
1.96072e-06
-1.00699e-05
-2.05324e-06
-5.61045e-06
4.52268e-06
1.00393e-05
-3.12176e-05
1.56128e-06
-3.78016e-06
-6.99086e-07
3.07739e-05
3.36162e-06
-1.1313e-05
4.6595e-08
1.75777e-05
3.86809e-06
2.51439e-06
3.7564e-06
2.39706e-06
-8.82209e-08
5.34971e-07
4.33351e-08
-5.00252e-06
-1.11081e-06
-3.2573e-05
-1.09012e-06
-5.34539e-06
-1.06916e-06
-7.72872e-07
-1.4724e-06
-1.67491e-06
1.42675e-05
-3.97579e-06
-1.66427e-06
-1.3895e-05
5.62806e-06
-3.76887e-06
3.00055e-06
-4.85975e-06
-2.04463e-05
-1.17388e-06
1.91499e-06
1.97518e-05
-1.88609e-05
-1.80956e-06
2.10381e-06
-1.51856e-06
1.89744e-05
-1.28811e-06
1.1531e-06
-1.15966e-06
1.29467e-06
-1.92805e-05
6.00436e-08
-1.09885e-07
1.93303e-05
-3.78767e-05
-7.14801e-07
4.05474e-07
3.81861e-05
1.90847e-06
-1.9956e-07
-5.22962e-05
-1.92953e-06
-3.12456e-06
5.56414e-05
1.27816e-06
-2.59468e-05
3.68272e-06
-3.09758e-06
-3.12158e-06
2.72051e-05
-2.36086e-05
3.48772e-06
-3.2034e-06
-3.36321e-06
2.41218e-05
2.56569e-06
7.09653e-06
1.51727e-06
-5.69261e-05
-8.51529e-07
-7.12391e-06
5.62877e-05
-1.14897e-05
-1.89346e-05
0.00010644
2.13485e-06
1.89262e-06
1.97234e-06
2.66476e-06
2.27909e-06
3.33619e-06
2.80354e-06
4.57387e-06
-6.30388e-06
-1.69339e-05
5.60331e-05
4.43067e-06
3.36882e-06
4.82762e-06
3.68481e-06
-2.00125e-06
-2.93476e-06
7.79853e-05
3.04324e-06
2.52338e-06
3.42784e-06
2.58818e-06
-1.04689e-06
-1.02254e-07
-3.84201e-07
-1.45138e-05
7.67663e-07
7.11478e-08
1.16737e-05
-3.18571e-05
-2.8242e-08
1.24116e-07
3.17612e-05
-1.28217e-06
-2.83634e-05
5.84185e-06
-1.72697e-06
-3.45022e-06
2.89809e-05
-6.17606e-06
-1.93858e-05
4.27026e-06
2.5923e-06
1.54631e-06
2.57348e-06
1.48415e-06
-1.0931e-05
-1.30978e-05
-2.23795e-05
-1.82149e-06
-7.89525e-07
-3.07163e-05
-2.95574e-06
-1.41237e-06
-2.63702e-06
1.76515e-06
-1.07332e-06
1.82695e-06
-7.73873e-06
-2.10726e-06
-1.82134e-06
4.79548e-06
5.05036e-06
-3.04848e-05
9.51743e-07
-3.16739e-06
1.28706e-07
3.06947e-05
1.87698e-06
-1.49077e-05
2.28297e-07
2.46253e-06
3.30052e-06
2.32419e-06
3.09553e-06
2.09597e-06
-6.34713e-07
6.05397e-07
-3.78196e-07
-5.21203e-06
-1.98937e-06
-3.64236e-05
-1.80412e-06
-5.6281e-06
-1.99958e-06
-2.4765e-06
-1.96548e-06
-3.07971e-06
1.3893e-05
-4.2085e-06
-2.24883e-06
-1.34372e-05
5.0033e-06
-3.49811e-06
3.86662e-06
-5.37181e-06
-1.93831e-05
-1.67975e-06
2.61182e-06
1.86793e-05
-1.83245e-05
-2.14136e-06
3.20507e-06
-1.70361e-06
1.69751e-05
-1.20641e-06
1.98803e-06
-1.62819e-06
8.46569e-07
-1.92757e-05
1.02791e-07
2.28865e-08
1.915e-05
-3.93255e-05
1.55941e-06
-3.17708e-06
4.09432e-05
3.74867e-07
-1.23368e-06
-5.90439e-05
-1.10077e-06
-1.10683e-06
6.21103e-05
1.00374e-06
-2.85336e-05
3.08061e-06
-2.70461e-06
-2.5508e-06
2.97046e-05
-2.47518e-05
2.31646e-06
-2.67236e-06
-2.54167e-06
2.50235e-05
2.62588e-06
7.75583e-06
1.2849e-06
-5.60131e-05
-1.47995e-06
-7.59658e-06
5.60489e-05
-5.23372e-06
-2.11498e-05
0.0001155
1.0021e-06
1.19241e-06
6.2195e-07
1.90832e-06
2.03781e-06
3.48386e-06
2.44726e-06
4.62965e-06
-4.9135e-06
-1.67969e-05
6.04145e-05
3.75453e-06
2.20991e-06
3.85167e-06
2.27923e-06
-3.53116e-07
-1.30589e-06
6.85758e-05
2.40602e-06
2.11717e-06
2.47582e-06
1.56945e-06
-1.15877e-06
-1.38378e-07
-1.11637e-06
-9.94458e-06
4.14757e-07
1.43925e-06
7.73746e-06
-3.15241e-05
4.51478e-07
-1.02735e-08
3.10829e-05
-2.70631e-06
-2.91383e-05
6.14681e-06
-8.29864e-07
-2.63724e-06
2.91649e-05
-3.17961e-06
-2.19666e-05
2.13941e-06
1.92968e-06
9.16639e-07
2.27069e-06
1.01028e-06
-9.47804e-06
-1.26754e-05
-2.02025e-05
-1.77385e-06
-5.58116e-07
-3.4952e-05
-3.09557e-06
-1.73699e-06
-2.76239e-06
1.90074e-06
-6.01402e-07
2.07932e-06
-2.76686e-06
-2.68749e-06
-1.82122e-06
5.28445e-06
2.17275e-07
-3.14489e-05
-1.06771e-06
-1.89817e-06
1.11939e-06
3.21304e-05
1.16498e-06
-1.78721e-05
2.46839e-07
-8.26167e-06
2.36202e-06
1.93407e-06
2.15439e-06
1.61926e-06
-1.04489e-06
3.69561e-07
-1.01162e-06
-5.40931e-06
-1.8313e-06
-4.037e-05
-2.34262e-06
-5.82199e-06
-2.58438e-06
-3.17351e-06
-1.79064e-06
-3.64722e-06
1.35222e-05
-4.32318e-06
-2.2063e-06
-1.29601e-05
5.70186e-06
-3.89673e-06
4.23884e-06
-6.04397e-06
-1.8435e-05
-2.03585e-06
2.69377e-06
1.80239e-05
-1.53869e-05
-1.88017e-06
3.25126e-06
-1.43863e-06
1.36232e-05
-2.43359e-07
2.29422e-06
-1.58546e-06
-4.65405e-07
-1.89741e-05
1.18692e-07
8.48043e-08
1.87706e-05
-4.2735e-05
3.2278e-06
-4.85058e-06
4.43577e-05
-6.84508e-07
-2.22867e-06
-6.50158e-05
-2.47975e-07
9.27133e-07
6.72499e-05
3.6023e-07
-3.0703e-05
2.82918e-06
-2.51455e-06
-1.2808e-06
3.1309e-05
-2.48634e-05
1.9143e-06
-3.01473e-06
-1.50534e-06
2.45778e-05
2.89135e-06
7.54149e-06
6.57615e-07
-5.70372e-05
-1.8939e-06
-8.72175e-06
5.94538e-05
4.0696e-07
-2.28014e-05
0.000125748
-4.95393e-07
6.1354e-07
-1.00105e-06
1.49601e-06
2.03523e-06
3.27131e-06
2.34338e-06
3.88406e-06
-4.03313e-06
-1.40512e-05
7.1121e-05
2.52567e-06
1.04557e-06
2.80768e-06
1.40577e-06
-3.50287e-07
1.07954e-06
6.27973e-05
1.23932e-06
4.03969e-07
1.39569e-06
1.50732e-07
-1.29929e-06
9.67263e-08
-9.7104e-07
-5.60463e-06
-5.68711e-07
2.49262e-06
3.33043e-06
-3.00294e-05
1.22843e-06
1.7214e-06
2.70796e-05
-5.07921e-06
-2.98919e-05
7.32865e-06
-1.1338e-06
-1.95235e-06
3.07286e-05
-1.46114e-06
-2.39894e-05
-8.32971e-08
1.85511e-06
3.8378e-07
2.27153e-06
3.6148e-07
-8.76709e-06
-1.00168e-05
-1.69309e-05
-1.74775e-06
1.47394e-08
-3.84093e-05
-2.87007e-06
-1.79392e-06
-2.72434e-06
2.33695e-06
7.61935e-08
2.47793e-06
2.11241e-06
-3.17853e-06
-2.17785e-06
6.11777e-06
-4.62155e-06
-3.24303e-05
-1.31609e-07
-1.62933e-06
1.08466e-06
3.18622e-05
1.24444e-06
-2.01509e-05
6.80686e-08
-1.47025e-05
1.83927e-06
1.43812e-06
1.77893e-06
1.09558e-06
-1.69501e-06
2.77677e-08
-1.95042e-06
-5.39178e-06
-1.54814e-06
-4.25606e-05
-2.77723e-06
-5.97734e-06
-3.03913e-06
-3.39716e-06
-1.903e-06
-3.94327e-06
1.29602e-05
-4.41292e-06
-1.72611e-06
-1.21982e-05
6.26217e-06
-4.56059e-06
4.73991e-06
-6.44149e-06
-1.79356e-05
-2.35151e-06
2.53028e-06
1.78249e-05
-1.16092e-05
-1.53484e-06
3.28527e-06
-1.14273e-06
9.45336e-06
1.27316e-06
2.31534e-06
-1.68355e-06
-1.90496e-06
-1.85886e-05
9.45263e-08
7.01161e-09
1.84871e-05
-4.56062e-05
4.15176e-06
-5.34656e-06
4.6801e-05
-1.39155e-06
-3.12737e-06
-6.87119e-05
1.06384e-06
2.54234e-06
6.96247e-05
1.73406e-07
-3.20919e-05
1.97884e-06
-2.19871e-06
-9.13276e-07
3.30517e-05
-2.46319e-05
1.19227e-06
-2.49424e-06
-9.07523e-07
2.44983e-05
2.34314e-06
7.63445e-06
-1.82549e-06
-6.32582e-05
-8.29153e-07
-9.34549e-06
6.76239e-05
4.5105e-06
-2.33383e-05
0.000140101
-1.94936e-06
6.45829e-08
-2.28254e-06
1.01157e-06
1.5598e-06
2.25934e-06
1.15638e-06
2.65419e-06
-1.77132e-06
-1.08945e-05
8.26869e-05
2.05091e-06
2.96751e-07
2.58941e-06
6.73319e-07
4.98218e-07
4.79242e-06
5.31769e-05
5.92975e-07
6.51327e-08
1.12814e-06
1.92696e-08
-3.77078e-07
9.96593e-07
1.3347e-07
-1.53058e-06
-1.15557e-06
3.45967e-06
-2.75297e-07
-2.09424e-05
2.61695e-06
3.79301e-06
1.45325e-05
-2.76052e-06
-3.13147e-05
6.59222e-06
-2.07239e-06
-1.61209e-06
3.11675e-05
1.13799e-06
-2.6459e-05
-5.4886e-07
1.8164e-06
-4.41675e-07
1.96505e-06
-8.9156e-07
-7.2599e-06
-5.0462e-06
-1.43814e-05
-1.87773e-06
1.17002e-06
-4.05181e-05
-2.62035e-06
-1.92549e-06
-2.67257e-06
3.09946e-06
1.19138e-06
3.27658e-06
6.97273e-06
-4.22986e-06
-3.10312e-06
7.64882e-06
-9.1663e-06
-3.06902e-05
9.42625e-07
-1.80811e-06
6.56169e-07
2.91157e-05
1.78387e-06
-1.97312e-05
-3.91814e-07
-1.92555e-05
1.71419e-06
8.35722e-07
1.62209e-06
4.30313e-07
-2.62758e-06
-6.34959e-07
-3.12272e-06
-5.29179e-06
-1.50867e-06
-4.01145e-05
-3.1765e-06
-5.8027e-06
-3.36903e-06
-3.0327e-06
-2.15219e-06
-2.88984e-06
1.22212e-05
-4.57734e-06
-5.71785e-07
-1.11938e-05
6.52671e-06
-5.41402e-06
5.24615e-06
-6.35884e-06
-1.78259e-05
-2.48175e-06
2.2139e-06
1.7702e-05
-6.67833e-06
-9.0748e-07
2.89479e-06
-7.42603e-07
3.92495e-06
2.46649e-06
1.90678e-06
-1.64996e-06
-2.7233e-06
-1.84104e-05
-8.67394e-09
3.89118e-08
1.83802e-05
-4.80056e-05
5.07462e-06
-6.22291e-06
4.91539e-05
-1.54498e-06
-4.16782e-06
-6.98856e-05
2.68387e-06
3.44879e-06
6.94658e-05
4.71909e-08
-3.37463e-05
3.58291e-07
-8.43297e-07
-6.08041e-07
3.47921e-05
-2.42468e-05
-1.77101e-07
4.0253e-07
-9.10489e-07
2.40464e-05
8.85451e-07
8.09548e-06
-3.8427e-06
-7.17517e-05
8.13729e-07
-9.05408e-06
7.57392e-05
8.89519e-06
-1.96779e-05
0.000158362
-3.42256e-06
-8.74818e-07
-3.55744e-06
-1.46992e-07
-9.49814e-08
6.82576e-07
-1.08687e-06
1.02279e-06
1.82918e-06
-3.69202e-06
9.01872e-05
1.64119e-06
-4.10185e-07
1.9893e-06
3.74785e-08
1.95583e-06
1.20496e-05
3.57387e-05
-1.3383e-08
-6.14004e-07
3.69391e-07
-1.25442e-06
1.81226e-06
2.65176e-06
2.3103e-06
1.99258e-06
-2.68484e-06
6.35808e-06
-3.70999e-06
-1.11502e-05
2.3055e-06
-9.46671e-07
9.79136e-06
-4.3712e-07
-3.03706e-05
4.51915e-06
-2.08418e-06
-7.42653e-07
2.91154e-05
2.62289e-06
-2.65232e-05
6.86511e-06
1.10217e-06
-2.05935e-06
5.09809e-07
-2.74417e-06
-6.80566e-06
5.17792e-06
-1.38228e-05
-1.73083e-06
2.51225e-06
-4.04122e-05
-2.17756e-06
-1.9111e-06
-2.42856e-06
4.07034e-06
2.6136e-06
4.1899e-06
1.06631e-05
-6.41092e-06
-4.29148e-06
9.60851e-06
-1.13001e-05
-2.73223e-05
1.00038e-06
-1.83658e-06
5.77355e-07
2.5855e-05
1.72614e-06
-1.83259e-05
-8.24676e-07
-2.213e-05
2.2307e-06
2.03022e-07
2.14157e-06
-2.73722e-07
-3.60564e-06
-1.16142e-06
-4.03261e-06
-4.96322e-06
-7.82092e-07
-3.33502e-05
-3.29217e-06
-5.4187e-06
-3.63896e-06
-8.9563e-07
-6.44775e-07
-2.76728e-07
1.082e-05
-4.66777e-06
7.68299e-07
-9.37147e-06
6.03769e-06
-6.70398e-06
5.89252e-06
-5.22623e-06
-1.74709e-05
-2.2878e-06
1.73027e-06
1.72037e-05
-6.92816e-07
9.31915e-08
1.05146e-06
2.92649e-07
-1.52657e-06
3.01018e-06
6.45897e-07
-8.62928e-07
-2.79314e-06
-1.84155e-05
-4.04261e-07
5.1674e-07
1.83031e-05
-5.05526e-05
6.29551e-06
-7.89577e-06
5.21528e-05
-1.64693e-06
-5.20208e-06
-6.85612e-05
4.21133e-06
4.09284e-06
6.7106e-05
3.43254e-08
-3.61416e-05
-1.85206e-06
9.58991e-07
-3.88703e-07
3.7389e-05
-2.37246e-05
-1.27911e-06
3.44704e-06
-8.83956e-07
2.33894e-05
-9.48827e-07
8.91199e-06
-5.98323e-06
-7.91281e-05
3.20963e-06
-8.7595e-06
8.17492e-05
1.58141e-05
-1.01005e-05
0.000178482
-4.92472e-06
-2.73264e-06
-5.06376e-06
-2.14283e-06
-3.10882e-06
-1.67522e-06
-4.83832e-06
-1.34716e-06
1.11715e-05
8.34547e-06
8.86091e-05
4.68664e-07
-1.56918e-06
5.29549e-07
-1.55384e-06
4.75379e-06
2.66555e-05
1.23391e-05
-1.68343e-06
-3.58321e-06
-2.07135e-06
-5.04909e-06
5.17372e-06
5.06362e-06
5.31154e-06
5.30556e-06
-5.50515e-06
1.0812e-05
-5.85861e-06
-9.20111e-06
1.78968e-06
-1.57996e-06
8.99138e-06
5.05849e-07
-2.7449e-05
2.63145e-06
-1.28584e-06
2.60403e-07
2.53372e-05
3.34181e-06
-2.20649e-05
2.59069e-05
-1.46102e-06
-3.04673e-06
-2.66648e-06
-3.245e-06
-6.64661e-06
1.85711e-05
-1.406e-05
-7.72978e-07
4.09364e-06
-3.19938e-05
-1.63592e-06
-1.32271e-06
-2.76284e-06
5.1701e-06
3.86578e-06
4.95547e-06
1.12176e-05
-9.25677e-06
-4.90256e-06
1.16216e-05
-9.45292e-06
-2.42687e-05
9.19677e-07
-1.8276e-06
1.5905e-06
2.31887e-05
3.97412e-07
-1.65591e-05
-1.03693e-06
-2.2407e-05
3.45653e-06
-4.60561e-07
2.92646e-06
-7.26705e-07