/*--------------------------------*- C++ -*----------------------------------*\
| =========                 |                                                 |
| \\      /  F ield         | OpenFOAM: The Open Source CFD Toolbox           |
|  \\    /   O peration     | Version:  5.x                                   |
|   \\  /    A nd           | Web:      www.OpenFOAM.org                      |
|    \\/     M anipulation  |                                                 |
\*---------------------------------------------------------------------------*/
FoamFile
{
    version     2.0;
    format      ascii;
    class       volVectorField;
    location    "3";
    object      U;
}
// * * * * * * * * * * * * * * * * * * * * * * * * * * * * * * * * * * * * * //

dimensions      [0 1 -1 0 0 0 0];

internalField   nonuniform List<vector> 
10571
(
(0.195406 0.435601 1.46388)
(-0.262966 0.337617 0.952138)
(-0.117854 0.0537206 1.13612)
(0.50462 0.585456 2.49447)
(0.831153 0.664145 1.6212)
(-2.10174 0.328837 2.44744)
(-0.773661 0.0397122 1.45528)
(1.13919 -1.35945 2.66309)
(1.10773 -1.40835 2.21553)
(-0.202924 -1.60082 2.29977)
(0.0269423 -0.809014 2.02054)
(-1.71813 -1.48539 2.44936)
(-1.21425 -0.704013 1.76447)
(-0.219163 -1.74888 2.21492)
(-0.0183683 -0.943403 1.53368)
(0.649499 -1.08974 1.60554)
(-0.429935 -0.498548 0.884148)
(-0.535729 -0.433888 2.10632)
(-0.509441 -0.361647 1.16755)
(-0.00525816 -0.26058 1.19729)
(0.48908 -0.661462 2.23668)
(-0.250435 -0.186442 1.43537)
(-0.819303 0.316436 2.14555)
(-0.224223 0.106429 1.35229)
(-0.621614 -0.181573 1.0068)
(-0.05327 0.017553 0.747411)
(-0.769567 -0.447763 1.30583)
(-0.527478 -0.501779 1.46929)
(-0.284268 -0.410336 1.75934)
(-0.937476 -0.153439 1.09711)
(-0.600532 -0.466617 0.989238)
(-0.367231 -0.245381 1.89093)
(-0.203774 -0.0532531 1.72964)
(-0.809343 0.112358 3.23392)
(-0.0772331 0.0907671 1.81382)
(-1.97266 -1.01326 2.44369)
(-0.504209 -0.433827 0.97915)
(-0.0823048 -0.225387 0.913836)
(-0.0455355 -0.100009 0.722443)
(-0.162988 -0.164613 0.902846)
(-0.800864 -0.751378 0.904454)
(-0.303143 -0.240702 1.169)
(0.0341762 -0.119328 0.759671)
(-0.0730099 -0.210144 0.576338)
(0.00898706 -0.0769156 1.22542)
(-0.376077 -0.276942 1.5914)
(0.0796108 -0.357753 1.14104)
(0.116442 -0.0931404 0.95207)
(-0.558389 -0.536872 0.943744)
(-0.118444 0.0442715 0.892349)
(-1.81777 -0.3885 1.97932)
(-0.71883 -0.524826 1.11882)
(-0.237592 -0.192079 1.62872)
(0.0388517 0.198567 0.810399)
(-0.302727 -0.236179 0.849809)
(-0.245196 0.385008 2.10563)
(-0.20289 0.35835 1.72514)
(-0.358498 0.310146 2.0441)
(0.067262 0.994249 3.36545)
(-0.993364 -0.708652 2.06024)
(-0.14191 -0.254459 0.758766)
(-0.0942071 -0.0558726 0.521907)
(-0.169702 -0.153783 0.355446)
(-0.243032 -0.127064 0.905596)
(-0.443087 -0.417628 0.504274)
(-0.114911 -0.309856 0.869281)
(-0.132914 -0.179954 0.437507)
(-0.204905 -0.286476 0.606621)
(0.0627779 -0.0285269 1.39313)
(-0.253779 -0.365336 1.38129)
(0.0523709 -0.315179 1.22414)
(-0.030558 -0.0558405 0.848294)
(-0.126279 -0.340918 0.828399)
(-0.530773 0.180875 1.44485)
(-0.822773 -0.201829 1.15186)
(-0.313331 -0.283084 0.454079)
(0.123753 -0.142933 1.08016)
(0.774978 0.204225 0.750877)
(0.0823822 -0.0110217 1.29112)
(-0.00970422 0.305019 2.84816)
(-0.422833 0.310339 3.59238)
(-0.233005 -0.351169 2.98449)
(-0.0854255 0.596626 3.98839)
(-0.127114 -0.473691 1.54293)
(0.0341967 -0.193609 1.55106)
(-0.0592162 -0.140774 1.87383)
(-0.257017 -0.488227 1.66028)
(0.07557 -0.199037 1.34563)
(-0.178913 -0.288532 0.32832)
(-0.0680356 -0.109543 1.41545)
(-0.106475 -0.103852 1.34236)
(-0.0449664 -0.0569181 0.352099)
(-0.0205789 -0.0902037 0.893061)
(-0.0502569 -0.0389968 0.730942)
(-0.0372527 -0.0627745 1.4455)
(-0.0427057 0.00640447 0.354803)
(0.295645 -0.29974 0.270203)
(-0.565716 0.218756 2.14704)
(-0.309927 -0.314159 1.19709)
(-0.286713 -0.161466 -0.0226739)
(-0.161891 0.0686282 -0.211237)
(0.764639 -0.301636 1.15376)
(-0.0948914 -0.409876 0.263215)
(-0.10589 -0.124397 1.73684)
(-0.336037 0.0369637 2.19832)
(-0.742852 -0.0975729 1.54444)
(-0.201016 0.692645 4.39763)
(0.296448 -0.185969 1.02063)
(-0.365695 -0.182273 0.37339)
(-0.153303 -0.0755 0.298164)
(0.165075 -0.0132031 0.181534)
(0.0611134 -0.161681 0.0196552)
(0.198858 0.436489 0.625981)
(-0.188026 -0.0863069 0.722268)
(-0.155867 0.151148 0.252164)
(-0.106412 0.134942 -0.433857)
(0.0224332 -0.0431438 0.530368)
(-0.0146082 -0.0361224 0.447191)
(-0.246928 0.143185 0.258039)
(0.0289139 -0.0244238 -0.142656)
(0.538022 -0.293629 0.930519)
(-0.442434 0.221011 2.35762)
(-0.0567061 -0.405413 1.15833)
(-0.297958 -0.319906 0.0846333)
(-0.158731 -0.190632 0.318133)
(0.750625 -0.40813 1.68555)
(-0.211974 -0.394526 0.520741)
(-0.375217 -0.338163 1.30412)
(-0.0225665 -0.2079 2.1064)
(-0.111089 -0.10742 1.32072)
(-0.00450227 0.00128947 -0.000221375)
(-0.0672514 0.643862 4.57626)
(0.160445 -0.027375 0.89933)
(-0.370815 -0.328591 0.560441)
(-0.197363 -0.0039381 0.573122)
(-0.0136545 0.0218994 0.56866)
(0.0718159 -0.326703 0.239637)
(-0.000544862 0.000261849 -0.00132831)
(-0.0314976 0.448893 0.768932)
(-0.351575 -0.111527 0.576591)
(-0.119956 0.0556519 0.299445)
(-0.17595 0.0419193 -0.193392)
(-0.0294582 -0.0615298 0.46929)
(-0.228744 -0.0382014 0.66299)
(-0.159725 0.153506 0.381419)
(-0.113966 0.0668276 0.0715691)
(0.556778 -0.235644 1.55263)
(-0.330942 0.215441 2.48847)
(-0.0477116 -0.361427 1.23288)
(-0.373841 -0.342717 0.377977)
(-0.391456 -0.439574 0.783386)
(0.802309 -0.464264 2.3465)
(-0.270524 -0.338458 0.59022)
(-0.428483 -0.379827 1.14142)
(-0.0300579 -0.269964 1.86743)
(0.353905 -0.101251 1.13631)
(0.0454682 -0.00765578 0.0660313)
(-0.0340075 0.62951 4.76351)
(-0.458344 -0.100973 0.728018)
(-0.39594 -0.287295 0.361259)
(-0.268893 -0.132673 0.224418)
(-0.0101379 -0.163685 0.178332)
(0.226663 -0.369446 0.299268)
(0.12105 -0.167415 0.201145)
(0.0380055 0.280064 0.944148)
(-0.394401 -0.0916885 0.624634)
(-0.287038 0.0627721 0.201656)
(-0.291089 -0.037711 -0.268867)
(0.100992 -0.144642 -0.244482)
(0.358935 -0.0615674 -0.177091)
(-0.249505 -0.019883 0.770179)
(-0.127293 0.159013 0.367627)
(-0.290509 0.206231 0.374029)
(0.485443 -0.145801 2.11959)
(-0.330208 0.385461 2.72156)
(-0.0799474 -0.365165 1.44156)
(-0.452344 -0.23994 0.672252)
(-0.495783 -0.437695 0.929827)
(0.424013 -0.524321 2.58671)
(-0.354723 -0.278747 0.721384)
(-0.41859 -0.333448 0.899199)
(-0.0984338 -0.237129 1.39982)
(0.220239 0.0749941 0.909626)
(-0.0380223 -0.0345295 0.228899)
(-0.0248405 0.409791 4.43479)
(-0.371268 -0.244092 0.858868)
(-0.332142 -0.21415 0.203096)
(-0.186022 -0.216192 -0.0447882)
(0.107747 -0.147952 -0.0918521)
(0.171598 -0.157371 0.280606)
(0.0372728 -0.079406 0.234424)
(0.0127941 -0.0251155 1.15595)
(-0.358621 -0.0825706 0.568456)
(-0.237 -0.0340133 -0.114844)
(-0.336665 -0.0340764 -0.491731)
(-0.039118 0.096762 -0.373187)
(0.10172 0.10619 -0.250694)
(-0.168512 -0.025182 0.927082)
(-0.212108 0.125311 0.467064)
(-0.288719 0.212294 0.390052)
(0.413133 -0.100717 2.49797)
(-0.273354 0.38776 2.82591)
(-0.0851452 -0.355344 1.74333)
(-0.406741 -0.172741 0.905961)
(-0.379628 -0.304686 0.922519)
(0.0992431 -0.531382 2.46756)
(-0.331522 -0.200628 0.857575)
(-0.352778 -0.285239 0.770841)
(-0.0915149 -0.213676 1.15769)
(-0.0142027 -0.0975332 0.901169)
(-0.122676 0.192392 0.272697)
(-0.07265 0.289906 4.59537)
(-0.228597 -0.391442 0.992929)
(-0.248268 -0.26162 0.135338)
(-0.147791 -0.186488 -0.171677)
(-0.068952 0.0848706 -0.167653)
(0.125336 0.0713214 0.269461)
(-0.212326 0.23067 0.0978053)
(-0.0894311 -0.183528 1.22134)
(-0.200868 -0.0680141 0.436341)
(-0.263609 -0.159993 -0.236301)
(-0.383813 -0.0671785 -0.597372)
(-0.0850364 0.241786 -0.468693)
(0.0555299 0.00870784 1.04052)
(-0.0446131 0.0899237 0.629104)
(-0.0678717 0.104232 0.164403)
(0.359946 -0.0836687 2.69727)
(-0.135309 0.384964 2.8143)
(-0.0294913 -0.325834 2.05671)
(-0.32592 -0.118414 1.05427)
(-0.235426 -0.234527 0.922891)
(0.0454311 -0.595607 2.51215)
(-0.295473 -0.175339 0.920768)
(-0.269509 -0.297876 0.637709)
(-0.0160104 -0.16172 1.00084)
(-0.262243 -0.0785295 0.900021)
(-0.0517226 0.140469 4.59275)
(-0.105436 -0.387317 1.1586)
(-0.179365 -0.339146 0.0550572)
(-0.169531 -0.20617 -0.239045)
(-0.230557 0.09166 -0.225107)
(-0.200476 0.287418 0.395477)
(-0.162596 -0.148332 1.21261)
(-0.140475 -0.11282 0.27517)
(-0.305757 -0.229249 -0.315999)
(-0.394949 -0.0997868 -0.616221)
(-0.151554 0.301436 -0.415766)
(0.159001 0.0520349 1.02059)
(0.218238 0.00588808 0.769305)
(0.142627 -0.010215 0.120125)
(0.327633 -0.0670607 2.76443)
(-0.0273088 0.333138 2.75276)
(0.03639 -0.244537 2.36316)
(-0.271237 -0.083022 1.1711)
(-0.190996 -0.207529 0.930848)
(-0.0263255 -0.588443 2.4868)
(-0.231375 -0.190262 1.00451)
(-0.163353 -0.334992 0.559264)
(-0.0194284 -0.180257 0.869983)
(-0.187545 -0.00694414 0.63898)
(-0.0770981 0.103552 4.55607)
(0.026265 -0.316281 1.26528)
(-0.0620252 -0.430792 0.0602033)
(-0.139393 -0.222612 -0.240277)
(-0.260806 0.0570473 -0.300385)
(-0.0204111 0.278983 0.244863)
(-0.150918 -0.0566701 1.19742)
(-0.224156 -0.211285 0.095987)
(-0.351948 -0.257607 -0.359366)
(-0.385403 -0.13137 -0.59377)
(-0.188276 0.351275 -0.469239)
(0.205491 0.113714 0.967437)
(0.246881 -0.0521758 0.698069)
(0.176879 -0.0671754 0.0980462)
(0.298501 -0.0569926 2.74728)
(0.139486 0.00981531 2.91841)
(0.0899984 -0.101877 2.66145)
(-0.232731 -0.0661738 1.2796)
(-0.198047 -0.140651 0.981022)
(-0.0446222 -0.574201 2.4597)
(-0.137913 -0.202817 1.11336)
(-0.0287457 -0.335682 0.568395)
(-0.115951 -0.13741 0.762106)
(0.0210599 0.0621238 0.459841)
(-0.106719 0.0554684 4.49515)
(0.0958685 -0.277751 1.28663)
(-0.0432058 -0.470712 0.0322325)
(-0.06218 -0.210688 -0.220454)
(-0.27927 0.080639 -0.343579)
(-5.85752e-05 0.31497 0.0686949)
(-0.105731 -0.0109431 1.2482)
(-0.273359 -0.299816 -0.0454796)
(-0.397543 -0.250243 -0.410138)
(-0.378031 -0.118631 -0.572459)
(-0.200606 0.378329 -0.534373)
(0.223873 0.158697 0.920175)
(0.235231 -0.0408563 0.570977)
(0.180393 -0.101446 -0.00837849)
(0.26319 -0.0535785 2.69743)
(0.23295 -0.186213 3.17697)
(0.15141 0.0214098 2.90391)
(-0.224824 -0.00896283 1.36351)
(-0.240972 -0.0972272 0.962721)
(-0.0171708 -0.586534 2.53215)
(-0.0262884 -0.216717 1.20754)
(0.048002 -0.310066 0.657753)
(-0.165518 -0.087751 0.687837)
(0.0408546 0.149054 0.229025)
(-0.132229 -0.0570563 4.21976)
(0.0154296 -0.23291 1.3266)
(-0.0182759 -0.503292 0.0118078)
(-0.0306789 -0.14501 -0.193613)
(-0.280591 0.11899 -0.400912)
(0.00980239 0.371889 -0.11406)
(-0.148614 -0.0507933 1.25832)
(-0.311889 -0.34621 -0.134647)
(-0.411187 -0.216148 -0.446966)
(-0.363756 -0.0830901 -0.544114)
(-0.216291 0.432909 -0.577644)
(0.230119 0.168366 0.902501)
(0.216139 -0.0316776 0.418371)
(0.192204 -0.124836 -0.149418)
(0.252995 -0.0670557 2.64511)
(0.272872 -0.25865 3.37001)
(0.215342 0.113614 3.03975)
(-0.197507 -0.0101665 1.42456)
(-0.206407 -0.0494954 0.951151)
(0.131087 -0.664234 2.88887)
(0.0928029 -0.211118 1.29402)
(0.0816013 -0.295765 0.762423)
(-0.127532 -0.0511742 0.613022)
(0.110535 0.20674 0.0380565)
(0.120341 -0.166072 2.3662)
(-0.087386 -0.160231 1.3723)
(0.0207064 -0.527346 -0.0151139)
(0.022956 -0.0548249 -0.153206)
(-0.27537 0.210578 -0.426275)
(0.00638521 0.512578 -0.309209)
(-0.188059 -0.102663 1.16071)
(-0.305655 -0.402987 -0.183038)
(-0.394399 -0.119521 -0.448616)
(-0.35543 0.00960977 -0.508952)
(-0.228657 0.489851 -0.587873)
(0.226888 0.152732 0.894357)
(0.144195 -0.0804582 0.214595)
(0.183415 -0.124826 -0.238299)
(0.270839 -0.0687169 2.61909)
(0.313823 -0.324354 3.53876)
(0.297725 0.158325 3.07026)
(-0.102771 0.00799053 1.49434)
(-0.109854 -0.0462912 0.936518)
(0.244591 -0.676297 3.23878)
(0.242045 -0.113984 1.44223)
(0.0948425 -0.254467 0.861324)
(-0.0223895 0.0908343 0.4855)
(0.21231 0.363451 -0.13579)
(-0.0693772 -0.111049 1.47449)
(-0.104185 0.00203373 1.31129)
(0.080747 -0.498107 0.00561593)
(0.0195595 0.140926 -0.139489)
(-0.247306 0.327345 -0.447324)
(0.0166348 0.681501 -0.42121)
(-0.165671 -0.0961876 1.02691)
(-0.31575 -0.424266 -0.216176)
(-0.336145 0.0413127 -0.397346)
(-0.342112 0.108232 -0.431177)
(-0.254007 0.56472 -0.49709)
(0.1999 0.124501 0.873061)
(0.000688488 -0.101116 -0.0272792)
(0.0995538 -0.0578884 -0.268216)
(0.324663 -0.0581326 2.62615)
(0.376149 -0.447237 3.74676)
(0.366459 0.188335 2.98195)
(0.0808382 -0.0206033 1.62139)
(0.0644747 -0.0764348 0.917288)
(0.405139 -0.717764 3.5543)
(0.436597 0.0279468 1.66861)
(0.150662 -0.117493 0.895053)
(0.230616 0.466525 0.253435)
(0.38234 0.63011 -0.27583)
(-0.119109 -0.0296669 1.29172)
(-0.189845 0.103297 1.17613)
(0.152249 -0.329817 0.129377)
(-0.0222921 0.429079 -0.157668)
(-0.173012 0.499161 -0.394997)
(0.0738338 0.852261 -0.389852)
(-0.0988056 -0.000773614 0.911786)
(-0.344149 -0.396164 -0.256498)
(-0.245763 0.233115 -0.306905)
(-0.330855 0.20784 -0.30431)
(-0.231323 0.594583 -0.31379)
(0.168898 0.0937334 0.818737)
(-0.0690176 0.0458809 -0.131181)
(0.0949338 -0.00960279 -0.205717)
(0.461475 0.0180186 2.56448)
(0.437741 -0.529249 3.97)
(0.498822 0.236942 2.86726)
(0.515046 0.0884295 1.66188)
(0.35247 0.188369 0.904903)
(0.444832 -0.681169 3.64448)
(0.625617 0.168085 1.86582)
(0.380561 0.365852 0.873055)
(0.465772 0.834222 -0.00980828)
(0.545172 0.878384 -0.243382)
(-0.105395 0.076678 1.31082)
(-0.219643 0.0367032 0.898112)
(0.188041 0.11149 0.360755)
(-0.0252585 0.757469 -0.14342)
(-0.105797 0.608226 -0.260342)
(0.0776801 1.03074 -0.226174)
(-0.0116988 0.0757905 0.821506)
(-0.341027 -0.227027 -0.215751)
(-0.177207 0.475243 -0.178626)
(-0.286899 0.297556 -0.107439)
(-0.240366 0.537604 -0.00964307)
(0.138379 0.0544578 0.705805)
(-0.0611579 0.139329 -0.0332841)
(0.134751 -0.0107676 -0.0906276)
(0.447193 0.0769636 2.11619)
(0.452137 -0.533668 4.14434)
(0.643716 0.392223 2.65537)
(0.787435 0.597409 1.6119)
(0.889993 0.512662 0.693682)
(0.390179 -0.588326 3.59324)
(0.640552 0.443888 1.96154)
(0.544232 0.975512 0.715223)
(0.468795 0.944046 0.00117355)
(0.591568 1.01253 0.0130441)
(-0.0473387 0.169685 1.3324)
(0.141994 -0.136235 0.700979)
(0.0115722 0.739217 0.576086)
(-0.0299347 0.981713 0.0106568)
(-0.207196 0.507607 0.00861383)
(-0.0115172 0.881204 0.0990358)
(-0.0433633 -0.00140154 0.674888)
(-0.297638 0.0505358 0.00355355)
(-0.125872 0.57195 0.0464298)
(-0.229433 0.297949 0.115191)
(-0.176146 0.32026 0.260583)
(0.0318401 0.0293426 0.554053)
(-0.0319608 0.165675 0.178472)
(0.181052 -0.0247335 0.103648)
(0.499285 0.105696 1.44297)
(0.365003 -0.427266 4.30758)
(0.598356 0.607397 2.34536)
(0.797676 0.658552 1.1416)
(0.853618 0.566761 0.605968)
(0.240905 -0.356554 3.38472)
(0.309945 0.891441 1.92862)
(0.374716 1.10655 0.594449)
(0.019192 0.585462 0.244465)
(0.162658 0.554812 0.379058)
(-0.0296705 0.0549649 1.33183)
(0.316901 -0.330415 0.640266)
(-0.24599 1.13251 0.751081)
(-0.0877565 0.866443 0.243275)
(-0.223327 0.325815 0.242836)
(-0.171765 0.369136 0.288343)
(-0.228242 -0.221355 0.542663)
(-0.267867 0.329365 0.281816)
(-0.07838 0.471354 0.281284)
(-0.156924 0.239824 0.302923)
(-0.0769569 0.150978 0.361213)
(-0.0367485 0.0954793 0.532931)
(0.0129608 0.155443 0.392576)
(0.214277 -0.0476837 0.32959)
(0.0100913 0.0486165 0.779994)
(0.317365 -0.334156 4.43866)
(-0.155499 0.325769 1.4876)
(0.123841 0.287135 0.757147)
(0.164166 0.277777 0.497549)
(0.16922 -0.20899 3.08409)
(-0.234622 1.11255 1.69101)
(-0.00661525 0.738237 0.592515)
(-0.170725 0.260404 0.357712)
(-0.0488512 0.157047 0.333093)
(-0.0530855 -0.169098 1.33131)
(0.169013 -0.383748 0.658144)
(-0.3646 1.18568 0.95966)
(-0.166667 0.536935 0.394946)
(-0.168499 0.16726 0.307422)
(-0.120261 0.143601 0.280369)
(-0.313077 -0.240624 0.598577)
(-0.222781 0.44326 0.52476)
(-0.0249831 0.353494 0.413091)
(-0.0740558 0.195299 0.406552)
(-0.0193668 0.0217799 0.449137)
(-0.0317834 0.164391 0.653462)
(0.0687097 0.125533 0.583372)
(0.22953 -0.0606443 0.524419)
(0.0150839 0.0155066 0.487117)
(0.263407 -0.248351 4.60679)
(-0.356176 0.0493824 1.08904)
(-0.0813812 0.152547 0.549337)
(-0.0147697 0.0703959 0.383885)
(0.242606 -0.14219 2.87828)
(-0.401525 1.00276 1.4711)
(-0.294873 0.430011 0.525854)
(-0.172785 0.117733 0.289978)
(-0.0647556 0.0566433 0.201074)
(-0.0722494 -0.272684 1.35566)
(-0.0911734 -0.192784 0.914539)
(-0.323383 1.04616 1.07785)
(-0.172613 0.346255 0.419336)
(-0.116177 0.0496737 0.280922)
(-0.0478704 -0.0156618 0.290965)
(-0.322612 -0.227423 0.71197)
(-0.125599 0.386514 0.707817)
(0.0404263 0.244518 0.471421)
(-0.00248164 0.135296 0.453651)
(0.034291 -0.0797284 0.509383)
(0.00629537 0.192848 0.821677)
(0.12085 0.0848594 0.760481)
(0.2451 -0.0788927 0.682665)
(0.0818911 0.00781726 0.369653)
(0.389833 -0.300539 4.73558)
(-0.103153 0.0333871 0.923913)
(-0.108742 0.0937747 0.399945)
(-0.0071368 0.0737087 0.270498)
(0.478999 -0.0177438 2.88076)
(-0.24034 0.887466 1.34558)
(-0.357975 0.268754 0.450302)
(-0.172173 0.0467898 0.206203)
(-0.0792893 -0.0126029 0.132194)
(-0.0788037 -0.309993 1.40607)
(-0.215337 0.034213 1.25512)
(-0.108 0.833382 1.14895)
(-0.082793 0.292352 0.451641)
(-0.0764132 -0.0143006 0.254483)
(-0.021324 -0.119483 0.28849)
(-0.301475 -0.194826 0.788172)
(-0.0279176 0.266488 0.820824)
(0.0909839 0.178136 0.51792)
(0.0746696 0.0576479 0.490937)
(0.0851413 -0.168005 0.543398)
(0.0577928 0.192131 0.954896)
(0.198319 0.0262937 0.924455)
(0.25434 -0.0874207 0.80202)
(0.167042 0.0129598 0.350079)
(0.575999 -0.307218 4.6589)
(0.328483 0.110929 0.824271)
(-0.0552906 0.0434688 0.322664)
(0.0610054 0.0990507 0.191938)
(0.467771 0.115862 2.84383)
(0.0874284 0.854944 1.2196)
(-0.227885 0.118709 0.411193)
(-0.16933 0.00352238 0.174792)
(-0.0717023 -0.0262393 0.113024)
(-0.0867692 -0.316136 1.46374)
(-0.254358 0.230626 1.68416)
(0.0824472 0.656806 1.14905)
(0.0617998 0.306326 0.500533)
(-0.041178 -0.0328634 0.266759)
(-0.0161535 -0.178707 0.277442)
(-0.25748 -0.108772 0.849168)
(0.0376216 0.18254 0.869871)
(0.136967 0.154669 0.5749)
(0.119642 -0.00281432 0.531682)
(0.122824 -0.237762 0.569795)
(0.137376 0.168101 1.04857)
(0.283028 -0.0107493 1.03892)
(0.301193 -0.113 0.914547)
(0.256095 0.017258 0.391019)
(0.480984 -0.332135 4.43916)
(0.64091 0.105103 0.594008)
(0.0134751 0.00482647 0.332147)
(0.121661 0.111343 0.181381)
(0.308197 0.216841 2.90898)
(0.228168 0.842212 1.14656)
(-0.0526251 -0.00979658 0.392174)
(-0.17351 -0.0294324 0.20142)
(-0.0106734 0.0842833 0.119675)
(-0.0795005 -0.15508 1.4996)
(-0.287316 0.431386 2.15168)
(0.161055 0.523176 1.12007)
(0.170318 0.314429 0.518227)
(-0.0263175 -0.0568091 0.318879)
(-0.0225893 -0.196301 0.267526)
(-0.227472 0.0935053 0.997315)
(0.113571 0.189173 0.925271)
(0.194047 0.150346 0.640713)
(0.133717 -0.0248509 0.598945)
(0.135752 -0.275369 0.605593)
(0.229603 0.154834 1.12985)
(0.328228 -0.013474 1.11765)
(0.359718 -0.136427 1.0377)
(0.324411 0.0155949 0.466576)
(-0.0537135 -0.0826567 4.08283)
(0.489874 0.000318349 0.593331)
(0.0269223 -0.0454989 0.394952)
(0.156508 0.105273 0.199741)
(-0.313761 0.677598 3.1119)
(0.15713 0.632924 1.1195)
(0.014926 -0.0982102 0.369408)
(-0.186845 -0.0665187 0.25437)
(0.0418287 0.0730276 0.0971858)
(-0.11316 0.212205 1.48523)
(-0.44042 0.938738 2.37746)
(0.183692 0.427861 1.13877)
(0.222534 0.283508 0.508269)
(-0.0342475 -0.0873072 0.392392)
(-0.0461814 -0.181132 0.274272)
(-0.23377 0.456439 1.26798)
(0.186665 0.260509 1.00256)
(0.245507 0.151109 0.737543)
(0.119767 -0.0220665 0.686858)
(0.131266 -0.281346 0.63879)
(0.298611 0.164002 1.22749)
(0.37781 -0.0116854 1.194)
(0.400203 -0.15603 1.17996)
(0.355879 0.0115808 0.581181)
(0.28015 0.212144 2.57603)
(0.150264 -0.144374 0.722988)
(0.0111278 -0.0848581 0.445176)
(0.151288 0.0983825 0.208091)
(-0.0657519 1.47711 2.33333)
(-0.00539599 0.0298358 1.0331)
(-0.0233149 -0.12786 0.361684)
(-0.195873 -0.0930856 0.303499)
(0.0640954 0.0770038 0.087953)
(-0.160799 0.438628 1.77754)
(-0.182003 1.48008 2.35945)
(0.188482 0.387241 1.13212)
(0.191602 0.198011 0.484096)
(-0.0630066 -0.127974 0.468111)
(-0.079013 -0.117185 0.293474)
(-0.123225 0.720551 1.63628)
(0.209649 0.335898 1.05868)
(0.244595 0.131846 0.873565)
(0.0671707 -0.0254533 0.781415)
(0.116955 -0.229034 0.683596)
(0.321445 0.185316 1.33879)
(0.438158 -0.00290667 1.28954)
(0.429299 -0.175821 1.32233)
(0.36198 0.0113568 0.702018)
(-0.13835 0.349689 1.45574)
(-0.0655212 -0.193382 0.722291)
(-0.0249774 -0.110312 0.455198)
(0.121352 0.0980572 0.228657)
(0.0526994 0.851239 1.6853)
(-0.0765698 -0.225416 0.863148)
(-0.111945 -0.134885 0.36826)
(-0.190841 -0.0983268 0.331171)
(0.068246 0.0913789 0.101994)
(-0.0884866 0.38556 2.25338)
(0.00434235 1.07109 2.28584)
(0.1252 0.356636 0.97081)
(0.0508883 0.0479069 0.480058)
(-0.102673 -0.169193 0.518419)
(-0.0983848 -0.0575171 0.305498)
(0.0223989 0.571522 1.94368)
(0.156708 0.408789 1.09629)
(0.157379 0.0720398 0.977596)
(-0.0165021 -0.0448824 0.862825)
(0.0979344 -0.171402 0.717485)
(0.317927 0.217496 1.48261)
(0.481115 0.0261027 1.39782)
(0.443313 -0.187544 1.44242)
(0.35473 0.00945162 0.815243)
(-0.249681 0.27244 1.10685)
(-0.149675 -0.190865 0.658586)
(-0.0593303 -0.133795 0.453341)
(0.0920375 0.0951513 0.249778)
(-0.10416 0.273754 1.59373)
(-0.136305 -0.196522 0.69362)
(-0.195008 -0.11989 0.366486)
(-0.168969 -0.0794861 0.335948)
(0.0673039 0.108794 0.125046)
(-0.0642632 0.262484 2.62555)
(-0.0637323 0.289486 2.20603)
(-0.00972763 0.27914 0.763828)
(-0.105846 -0.0422953 0.489217)
(-0.143998 -0.19748 0.521071)
(-0.103642 -0.0225756 0.29361)
(0.150224 0.383186 2.055)
(0.0770055 0.404362 1.14936)
(0.00975157 -0.0142676 1.00705)
(-0.0824874 -0.0754134 0.898826)
(0.0934299 -0.153107 0.721907)
(0.328485 0.239623 1.67541)
(0.485251 0.0556303 1.51631)
(0.428782 -0.182996 1.53501)
(0.346774 0.00775974 0.925048)
(-0.220872 0.20452 1.12572)
(-0.145701 -0.20424 0.625668)
(-0.0597755 -0.126848 0.474675)
(0.0712313 0.0904794 0.259505)
(-0.159004 -0.0903036 1.7878)
(-0.172448 -0.143964 0.577264)
(-0.240387 -0.0909381 0.336301)
(-0.131136 -0.0223555 0.317628)
(0.0681396 0.119796 0.146783)
(-0.056406 0.122319 2.85976)
(-0.0568669 -0.17944 2.07724)
(-0.106407 0.18984 0.665596)
(-0.223598 -0.08518 0.493731)
(-0.180619 -0.206361 0.498337)
(-0.0939933 0.00122607 0.269561)
(0.144873 0.298674 2.07073)
(0.0654951 0.341301 1.21147)
(-0.1277 -0.0807267 0.994457)
(-0.0863032 -0.100418 0.877266)
(0.0973858 -0.158468 0.704431)
(0.356818 0.242463 1.85984)
(0.464675 0.0676003 1.63445)
(0.383488 -0.155945 1.61359)
(0.33188 0.00918097 1.01768)
(-0.134931 0.116529 1.30083)
(-0.0883362 -0.247793 0.63238)
(-0.0225571 -0.0697325 0.539312)
(0.0712882 0.0948168 0.254695)
(-0.160083 -0.265101 1.96718)
(-0.156573 -0.168286 0.519366)
(-0.236953 -0.0700918 0.29016)
(-0.0911239 0.0366232 0.289733)
(0.0747899 0.132256 0.166513)
(-0.0551223 0.0168789 3.01618)
(0.0149999 -0.206173 1.8143)
(-0.178975 0.0754186 0.602378)
(-0.290791 -0.112217 0.502595)
(-0.202253 -0.200574 0.481025)
(-0.0558466 0.0424758 0.257843)
(0.08792 0.233992 2.1016)
(0.163714 0.244571 1.30908)
(-0.195859 -0.132681 0.98225)
(-0.00310116 -0.148193 0.811051)
(0.112257 -0.221802 0.653341)
(0.387148 0.209781 2.00552)
(0.412873 0.0533856 1.72995)
(0.306471 -0.140353 1.6405)
(0.276797 0.0150816 1.07961)
(-0.0231259 0.0127041 1.53682)
(-0.0261208 -0.29554 0.685925)
(0.00582329 0.0533954 0.643606)
(0.0926635 0.113418 0.236667)
(-0.153129 -0.337229 2.0564)
(-0.149025 -0.23149 0.481822)
(-0.193013 -0.0532865 0.257224)
(-0.0431004 0.0781221 0.27246)
(0.0853822 0.150874 0.180137)
(-0.0669022 -0.00582854 3.13871)
(0.0137234 -0.0557951 1.54213)
(-0.24784 -0.0598132 0.560922)
(-0.320322 -0.1416 0.508406)
(-0.20053 -0.194554 0.475546)
(-0.0121705 0.0939603 0.262368)
(0.0522577 0.215308 2.11412)
(0.222104 0.0845208 1.39211)
(-0.191293 -0.16694 0.979867)
(0.0554048 -0.178889 0.750598)
(0.0844078 -0.247972 0.573532)
(0.38781 0.158452 2.1162)
(0.3513 0.0452101 1.79611)
(0.245495 -0.165406 1.48834)
(0.174682 0.0301736 1.01385)
(0.0410646 -0.0574442 1.76856)
(0.0398098 -0.276239 0.798695)
(0.032052 0.174866 0.697776)
(0.130675 0.139004 0.229544)
(-0.145362 -0.358925 2.11125)
(-0.179626 -0.274425 0.431038)
(-0.127656 -0.0231493 0.252752)
(0.00916901 0.105945 0.280791)
(0.098302 0.178302 0.193092)
(-0.0625545 0.0479426 3.29645)
(-0.144184 0.0327053 1.40481)
(-0.316016 -0.194394 0.529261)
(-0.315242 -0.155802 0.503839)
(-0.18348 -0.183827 0.482966)
(0.0159019 0.144189 0.272316)
(0.0524622 0.217902 2.15117)
(0.135952 -0.117413 1.42238)
(-0.120712 -0.189812 0.965539)
(0.068371 -0.190363 0.712362)
(0.0187422 -0.15572 0.526014)
(0.378822 0.0942661 2.17866)
(0.235013 0.00509492 1.84809)
(0.26249 -0.169379 1.17514)
(0.139223 0.0213715 0.760634)
(0.0966887 -0.1089 2.02265)
(0.141271 -0.131206 0.949165)
(0.153724 0.245456 0.622291)
(0.164715 0.158523 0.248951)
(-0.150634 -0.322797 2.20749)
(-0.183571 -0.270797 0.404645)
(-0.0513463 0.0139633 0.271356)
(0.0565429 0.130439 0.310886)
(0.102864 0.201264 0.213211)
(-0.0616509 0.109321 3.4621)
(-0.207569 -0.0833292 1.40785)
(-0.349721 -0.281254 0.487088)
(-0.277519 -0.1434 0.497657)
(-0.144133 -0.138973 0.502681)
(0.0303845 0.184275 0.294225)
(0.0679221 0.178745 2.20242)
(-0.00668373 -0.257258 1.37458)
(-0.0402107 -0.188269 0.925903)
(0.0551441 -0.203924 0.705346)
(-0.0372074 -0.00900578 0.519193)
(0.322952 0.0778382 2.19366)
(0.0332029 -0.114317 1.78996)
(0.243797 -0.146093 0.964907)
(0.291138 0.0367506 0.458993)
(0.108271 -0.0701214 2.19017)
(0.165865 0.0680173 1.10157)
(0.281204 0.296807 0.479528)
(0.161916 0.141821 0.290057)
(-0.079198 -0.24477 2.31262)
(-0.0738935 -0.199186 0.428581)
(0.0219013 0.0318333 0.317315)
(0.0940705 0.150177 0.353526)
(0.100657 0.209254 0.240731)
(-0.0539061 0.160312 3.64958)
(-0.150024 -0.189903 1.49517)
(-0.328157 -0.297114 0.461329)
(-0.218784 -0.129029 0.494735)
(-0.096936 -0.0623932 0.530616)
(0.0405095 0.201915 0.337739)
(0.0773248 0.0711651 2.23148)
(-0.0676752 -0.273663 1.26515)
(-0.00143297 -0.180315 0.878041)
(0.00527025 -0.208653 0.704361)
(-0.0674243 0.0822926 0.548545)
(0.24666 0.0729821 2.16848)
(0.0178485 -0.108466 1.54865)
(0.188316 -0.119911 0.85797)
(0.170681 0.022444 0.360673)
(0.140808 -0.0244967 2.19139)
(0.165423 0.189376 1.16496)
(0.298006 0.26754 0.431836)
(0.133324 0.102725 0.324501)
(0.027315 -0.0942062 2.35232)
(0.13001 -0.0846438 0.511755)
(0.0921473 0.0279582 0.396319)
(0.126287 0.16069 0.400841)
(0.0963458 0.197436 0.27352)
(-0.0382755 0.131969 3.79894)
(0.0281081 -0.240934 1.65941)
(-0.218619 -0.249898 0.480519)
(-0.159319 -0.13239 0.503661)
(-0.0474286 -0.00378928 0.565334)
(0.0444166 0.197319 0.399453)
(0.0768548 -0.0547629 2.13977)
(-0.0159778 -0.192523 1.14431)
(0.00480007 -0.17398 0.844048)
(-0.0407955 -0.177117 0.695322)
(-0.0738234 0.118558 0.594495)
(0.164396 0.0536191 2.1108)
(0.12039 -0.0379841 1.27718)
(0.153781 -0.097751 0.81713)
(0.126725 0.0130568 0.288956)
(0.199374 -0.120271 2.04044)
(0.320134 0.161491 1.08206)
(0.286271 0.166012 0.462904)
(0.130015 0.0679937 0.357705)
(0.160465 -0.0598334 2.2541)
(0.320671 0.0122607 0.611214)
(0.140724 0.0154105 0.496243)
(0.14026 0.153086 0.455774)
(0.088345 0.177508 0.310437)
(-0.0417544 0.10225 3.8187)
(0.190636 -0.156609 1.86121)
(-0.0445115 -0.156846 0.562751)
(-0.09141 -0.146683 0.53624)
(-0.00571058 0.00839782 0.606403)
(0.0363147 0.182105 0.461531)
(0.115369 -0.18193 1.9954)
(0.0884623 -0.104587 1.08094)
(0.011692 -0.164319 0.831311)
(-0.065183 -0.131893 0.691591)
(-0.0663497 0.134504 0.6451)
(0.112961 0.0786313 2.07912)
(0.222943 -0.00410713 1.09903)
(0.136783 -0.0918982 0.837696)
(0.140868 0.0103348 0.274492)
(0.256109 -0.0411444 1.66733)
(0.58012 0.0392984 0.911205)
(0.277715 0.0367286 0.570235)
(0.146494 0.0498576 0.401657)
(0.221867 0.019604 2.0719)
(0.453399 0.0771369 0.725203)
(0.16206 -0.0119473 0.611778)
(0.134768 0.12318 0.519577)
(0.0823681 0.159182 0.353594)
(-0.0200694 0.129822 3.69609)
(0.341835 0.0540118 1.99941)
(0.101414 -0.0708364 0.66826)
(-0.0211537 -0.162396 0.597726)
(0.0237401 -0.0229743 0.649877)
(0.0294632 0.16955 0.520206)
(0.16593 -0.16947 1.83929)
(0.171259 -0.0329532 1.07961)
(0.0380924 -0.161218 0.84501)
(-0.0546895 -0.0936646 0.702993)
(-0.0711038 0.146516 0.703343)
(-0.0174635 -0.0296219 1.96747)
(0.284883 0.00780851 1.04373)
(0.113288 -0.0864114 0.895428)
(0.1622 0.00298683 0.326119)
(0.236593 -0.180847 1.04967)
(0.568688 -0.0245301 0.836836)
(0.179911 -0.0774432 0.714352)
(0.15941 0.0507196 0.454436)
(0.327653 0.139798 1.88294)
(0.475461 0.0753292 0.839987)
(0.160805 -0.044936 0.731904)
(0.126696 0.0717451 0.591185)
(0.0820411 0.1444 0.404354)
(0.10613 0.20303 2.92535)
(0.45396 0.241834 1.95956)
(0.177053 -0.0140994 0.782555)
(0.0260191 -0.176358 0.676009)
(0.0499844 -0.0707853 0.692481)
(0.0377031 0.145875 0.581012)
(0.215337 0.045789 1.73761)
(0.20852 0.0264431 1.10526)
(0.0731003 -0.190379 0.875437)
(-0.0305907 -0.0781889 0.716869)
(-0.0572484 0.0941779 0.738769)
(0.114585 -0.0588061 1.66049)
(0.312714 0.00976621 1.06595)
(0.0847026 -0.0716196 0.976194)
(0.194742 0.00145689 0.417999)
(0.164529 -0.133151 0.756858)
(0.282483 -0.112431 0.881033)
(0.0854326 -0.0890429 0.836399)
(0.161829 0.0546149 0.509404)
(0.279648 0.181384 1.64645)
(0.358934 -0.0154551 0.934674)
(0.135794 -0.0735511 0.828784)
(0.119968 0.00820466 0.666768)
(0.0831387 0.131141 0.467664)
(0.0678371 0.18992 2.02977)
(0.366802 0.192437 1.82163)
(0.15991 -0.0223932 0.882298)
(0.0257751 -0.179591 0.752279)
(0.0726297 -0.117809 0.744631)
(0.0487261 0.110398 0.653263)
(0.217645 0.109413 1.74955)
(0.210206 0.0466362 1.12816)
(0.0632859 -0.216454 0.875231)
(0.00925576 -0.134073 0.744609)
(-0.0140895 0.0504307 0.776958)
(0.242905 0.0210258 1.42158)
(0.318139 -0.023987 1.10794)
(0.131218 -0.0701872 1.03097)
(0.225302 0.00583728 0.509446)
(0.0378861 -0.0369238 0.704862)
(0.0622531 -0.2014 0.941934)
(0.0766758 -0.0525234 0.893195)
(0.156373 0.0507776 0.569458)
(0.310629 0.0450883 1.2373)
(0.126449 -0.163354 1.01751)
(0.0802635 -0.0916027 0.867324)
(0.0938189 -0.056507 0.737478)
(0.080505 0.118516 0.544775)
(0.0165247 0.143619 1.68613)
(0.184848 0.141543 1.70338)
(0.0665215 -0.0889638 0.957236)
(-0.00712981 -0.17274 0.805967)
(0.0718494 -0.152684 0.807858)
(0.0549596 0.0644312 0.739503)
(0.123568 0.0746402 1.74598)
(0.179697 0.0252434 1.12907)
(0.00295662 -0.220331 0.850129)