/*--------------------------------*- C++ -*----------------------------------*\
| =========                 |                                                 |
| \\      /  F ield         | OpenFOAM: The Open Source CFD Toolbox           |
|  \\    /   O peration     | Version:  5.x                                   |
|   \\  /    A nd           | Web:      www.OpenFOAM.org                      |
|    \\/     M anipulation  |                                                 |
\*---------------------------------------------------------------------------*/
FoamFile
{
    version     2.0;
    format      ascii;
    class       volVectorField;
    location    "3";
    object      Us;
}
// * * * * * * * * * * * * * * * * * * * * * * * * * * * * * * * * * * * * * //

dimensions      [0 1 -1 0 0 0 0];

internalField   nonuniform List<vector> 
10571
(
(-0.134524 0.0141126 0.0470303)
(-0.0592011 0.0509001 0.000848467)
(-0.0945287 -0.00500224 0.0637502)
(-0.120836 -0.0265867 0.0804491)
(-0.074056 -0.0451736 -0.0514129)
(-0.43357 0.0959829 0.108236)
(-0.305423 -0.0894367 -0.0692138)
(-0.153405 -0.266153 -0.100443)
(-0.10698 -0.234787 -0.12462)
(-0.0559608 -0.217821 -0.15631)
(-0.0851312 -0.316491 -0.053644)
(-0.457816 -0.394648 0.131529)
(-0.326646 -0.216798 -0.10132)
(-0.196485 -0.266502 -0.174564)
(-0.114887 -0.205672 -0.233746)
(-0.00802109 -0.156633 -0.225372)
(-0.213678 -0.268916 -0.030974)
(-0.244044 -0.176001 -0.137969)
(-0.157852 -0.137158 -0.247478)
(-0.050206 -0.0941264 -0.182743)
(0.0554329 -0.0889762 -0.136677)
(-0.131359 -0.0560199 -0.161632)
(-0.107201 -0.0286191 -0.178585)
(-0.024807 0.0115875 -0.136375)
(-0.209254 -0.0211276 0.0467576)
(-0.0176847 -0.0172791 0.0473792)
(-0.21362 -0.112976 0.17391)
(-0.253175 -0.175911 0.2001)
(-0.184337 -0.134394 0.0762467)
(-0.234806 -0.0582052 -0.0225377)
(-0.226195 -0.256941 0.00448371)
(-0.244434 -0.275308 -0.00576982)
(-0.161303 -0.154701 -0.0890036)
(-0.104485 -0.124839 -0.0619349)
(-0.0641604 -0.198304 0.339569)
(-0.35069 -0.203158 0.0534461)
(-0.213599 -0.204697 -0.0738168)
(-0.139099 -0.132454 -0.245785)
(-0.0739654 -0.0809902 -0.295401)
(-0.0261951 -0.0656862 -0.223578)
(-0.160862 -0.214929 -0.0896611)
(-0.179356 -0.115987 -0.0390241)
(-0.096263 -0.0418823 -0.269878)
(-0.0467877 -0.0439978 -0.305328)
(0.00238302 -0.0190908 -0.178655)
(-0.141459 -0.0869011 -0.0131724)
(-0.0859826 -0.00783111 -0.151095)
(-0.0216856 -0.000800633 -0.225261)
(-0.288434 -0.10896 0.0582872)
(0.115596 -0.166407 -0.193258)
(-0.454883 -0.290088 0.0470377)
(-0.316765 -0.276061 0.223549)
(-0.189687 -0.130255 0.194687)
(-0.0652146 -0.135762 0.00621035)
(-0.206689 -0.233295 -0.00453946)
(-0.189639 -0.197243 -0.0158571)
(-0.111512 -0.0586913 -0.163578)
(-0.0723073 -0.0578222 -0.0329338)
(-0.0127473 -0.00749624 0.294648)
(-0.162397 -0.171665 -0.0530661)
(-0.137249 -0.14005 -0.127458)
(-0.104216 -0.0501292 -0.333811)
(-0.0629953 -0.0389681 -0.347099)
(-0.0320517 -0.0433925 -0.23815)
(-0.110763 -0.146562 -0.137245)
(-0.127101 -0.0861907 -0.0515838)
(-0.0956 -0.0192981 -0.329304)
(-0.0506807 -0.0350412 -0.357039)
(0.00709405 -0.0195462 -0.218613)
(-0.0950987 -0.06579 0.0428079)
(-0.108347 -0.0149805 -0.150409)
(-0.0400047 0.00848513 -0.279117)
(-0.206701 -0.231098 -0.0167372)
(0.112436 -0.241712 -0.00740069)
(-0.392568 -0.174086 -0.11382)
(-0.243592 -0.263802 0.135652)
(-0.0820599 -0.173543 0.143228)
(0.0158641 -0.178623 0.00974858)
(-0.211692 -0.147045 -0.0286035)
(-0.152545 -0.120424 0.0130889)
(-0.0136952 -0.00843502 -0.0770211)
(-0.0077174 -0.0451804 -0.52553)
(-0.0669989 -0.027643 0.449784)
(-0.0120956 -0.121529 0.185682)
(-0.103426 -0.105314 -0.126481)
(-0.0824641 -0.0128626 -0.384215)
(-0.0483699 -0.0121761 -0.379681)
(-0.0510683 -0.00678048 -0.393796)
(0.0493325 0.0601223 -0.213844)
(-0.0899895 -0.0485664 -0.0464083)
(-0.0727946 0.00113996 -0.400243)
(-0.0374714 -0.0135511 -0.396845)
(-0.0155289 -0.0295775 -0.314944)
(-0.0416864 -0.0270689 -0.00596244)
(-0.07657 -0.0205156 -0.212119)
(-0.0339663 0.00834302 -0.373936)
(0 0 0)
(0.276903 -0.314914 0.0420249)
(-0.0615917 0.0408107 -0.821484)
(-0.188144 -0.171876 0.038156)
(0 0 0)
(0.0645065 -0.165201 0.197298)
(0.236047 -0.0550861 -0.201933)
(-0.123444 0.0321921 0.0203827)
(0 0 0)
(-0.0292791 0.0297085 -0.278239)
(0.0227253 -0.0690526 0.516779)
(0.0938178 -0.0631206 0.138011)
(0.04605 -0.0244379 -0.320509)
(0 0 0)
(0 0 0)
(-0.064348 -0.0190092 -0.327005)
(0.0587793 0.0729866 -0.0053237)
(-0.0683562 0.0531734 -0.321051)
(-0.078492 0.0330297 -0.652513)
(-0.0125522 -0.0102421 -0.672814)
(0 0 0)
(-0.11777 0.0372897 -0.588793)
(-0.0752483 0.00224074 -0.609482)
(0 0 0)
(0 0 0)
(0.166283 -0.331561 0.321538)
(0 0 0)
(0 0 0)
(0 0 0)
(0.149699 -0.194002 0.351448)
(0.381829 -0.0806853 -0.00671822)
(0 0 0)
(0 0 0)
(-0.034223 0.0349136 -0.166009)
(-0.000817408 0.000700224 3.5376e-05)
(0.0184912 -0.0401782 0.540173)
(0.12472 -0.00617101 0.337996)
(0 0 0)
(0 0 0)
(0 0 0)
(-0.032511 -0.0360474 -0.269113)
(-0.00107655 -0.000341126 -0.000731635)
(-0.149266 0.0391843 -0.437756)
(-0.0936244 -0.0751321 -0.570409)
(0 0 0)
(0 0 0)
(0 0 0)
(-1.17769e-14 -6.06171e-15 -5.47084e-14)
(-0.12532 0.134741 -0.631082)
(0 0 0)
(0 0 0)
(0.11603 -0.39495 0.462761)
(0 0 0)
(0 0 0)
(0 0 0)
(0.123285 -0.230311 0.545387)
(0 0 0)
(0 0 0)
(0 0 0)
(0 0 0)
(0 0 0)
(-0.0797334 0.000452773 0.425604)
(0.257946 -0.0582558 0.0309675)
(0 0 0)
(0 0 0)
(0 0 0)
(0 0 0)
(0 0 0)
(0.106808 -0.15422 -0.269795)
(0 0 0)
(-0.0699189 -0.063621 -0.514089)
(0 0 0)
(0 0 0)
(0 0 0)
(0 0 0)
(-6.37295e-15 -4.65387e-15 -6.29752e-14)
(0 0 0)
(0 0 0)
(0 0 0)
(0 0 0)
(0 0 0)
(0 0 0)
(0.0505888 -0.106888 0.725309)
(0 0 0)
(0 0 0)
(0 0 0)
(0 0 0)
(0 0 0)
(0.0150134 0.0124927 0.688053)
(0 0 0)
(0 0 0)
(0 0 0)
(0 0 0)
(0 0 0)
(0 0 0)
(0 0 0)
(0 0 0)
(0 0 0)
(0 0 0)
(0 0 0)
(0 0 0)
(0 0 0)
(0 0 0)
(0 0 0)
(0 0 0)
(0 0 0)
(0 0 0)
(0 0 0)
(0 0 0)
(0 0 0)
(0 0 0)
(0 0 0)
(0 0 0)
(0 0 0)
(0 0 0)
(0 0 0)
(0 0 0)
(0 0 0)
(0 0 0)
(0 0 0)
(0 0 0)
(0 0 0)
(0 0 0)
(0 0 0)
(0 0 0)
(0 0 0)
(0 0 0)
(0 0 0)
(0 0 0)
(0 0 0)
(0 0 0)
(0 0 0)
(0 0 0)
(0 0 0)
(0 0 0)
(0 0 0)
(0 0 0)
(0 0 0)
(0 0 0)
(0 0 0)
(0 0 0)
(0 0 0)
(0 0 0)
(0 0 0)
(0 0 0)
(0 0 0)
(0 0 0)
(0 0 0)
(0 0 0)
(0 0 0)
(0 0 0)
(0 0 0)
(0 0 0)
(0 0 0)
(0 0 0)
(0 0 0)
(0 0 0)
(0 0 0)
(0 0 0)
(0 0 0)
(0 0 0)
(0 0 0)
(0 0 0)
(0 0 0)
(0 0 0)
(0 0 0)
(0 0 0)
(0 0 0)
(0 0 0)
(0 0 0)
(0 0 0)
(0 0 0)
(0 0 0)
(0 0 0)
(0 0 0)
(0 0 0)
(0 0 0)
(0 0 0)
(0 0 0)
(0 0 0)
(0 0 0)
(0 0 0)
(0 0 0)
(0 0 0)
(0 0 0)
(0 0 0)
(0 0 0)
(0 0 0)
(0 0 0)
(0 0 0)
(0 0 0)
(0 0 0)
(0 0 0)
(0 0 0)
(0 0 0)
(0 0 0)
(0 0 0)
(0 0 0)
(0 0 0)
(0 0 0)
(0 0 0)
(0 0 0)
(0 0 0)
(0 0 0)
(0 0 0)
(0 0 0)
(0 0 0)
(0 0 0)
(0 0 0)
(0 0 0)
(0 0 0)
(0 0 0)
(0 0 0)
(0 0 0)
(0 0 0)
(0 0 0)
(0 0 0)
(0 0 0)
(0 0 0)
(0 0 0)
(0 0 0)
(0 0 0)
(0 0 0)
(0 0 0)
(0 0 0)
(0 0 0)
(0 0 0)
(0 0 0)
(0 0 0)
(0 0 0)
(0 0 0)
(0 0 0)
(0 0 0)
(0 0 0)
(0 0 0)
(0 0 0)
(0 0 0)
(0 0 0)
(0 0 0)
(0 0 0)
(0 0 0)
(0 0 0)
(0 0 0)
(0 0 0)
(0 0 0)
(0 0 0)
(0 0 0)
(0 0 0)
(0 0 0)
(0 0 0)
(0 0 0)
(0 0 0)
(0 0 0)
(0 0 0)
(0 0 0)
(0 0 0)
(0 0 0)
(0 0 0)
(0 0 0)
(0 0 0)
(0 0 0)
(0 0 0)
(0 0 0)
(0 0 0)
(0 0 0)
(0 0 0)
(0 0 0)
(0 0 0)
(0 0 0)
(0 0 0)
(0 0 0)
(0 0 0)
(0 0 0)
(0 0 0)
(0 0 0)
(0 0 0)
(0 0 0)
(0 0 0)
(0 0 0)
(0 0 0)
(0 0 0)
(0 0 0)
(0 0 0)
(0 0 0)
(0 0 0)
(0 0 0)
(0 0 0)
(0 0 0)
(0 0 0)
(0 0 0)
(0 0 0)
(0 0 0)
(0 0 0)
(0 0 0)
(0 0 0)
(0 0 0)
(0 0 0)
(0 0 0)
(0 0 0)
(0 0 0)
(0 0 0)
(0 0 0)
(0 0 0)
(0 0 0)
(0 0 0)
(0 0 0)
(0 0 0)
(0 0 0)
(0 0 0)
(0 0 0)
(0 0 0)
(0 0 0)
(0 0 0)
(0 0 0)
(0 0 0)
(0 0 0)
(0 0 0)
(0 0 0)
(0 0 0)
(0 0 0)
(0 0 0)
(0 0 0)
(0 0 0)
(0 0 0)
(0 0 0)
(0 0 0)
(0 0 0)
(0 0 0)
(0 0 0)
(0 0 0)
(0 0 0)
(0 0 0)
(0 0 0)
(0 0 0)
(0 0 0)
(0 0 0)
(0 0 0)
(0 0 0)
(0 0 0)
(0 0 0)
(0 0 0)
(0 0 0)
(0 0 0)
(0 0 0)
(0 0 0)
(0 0 0)
(0 0 0)
(0 0 0)
(0 0 0)
(0 0 0)
(0 0 0)
(0 0 0)
(0 0 0)
(0 0 0)
(0 0 0)
(0 0 0)
(0 0 0)
(0 0 0)
(0 0 0)
(0 0 0)
(0 0 0)
(0 0 0)
(0 0 0)
(0 0 0)
(0 0 0)
(0 0 0)
(0 0 0)
(0 0 0)
(0 0 0)
(0 0 0)
(0 0 0)
(0 0 0)
(0 0 0)
(0 0 0)
(0 0 0)
(0 0 0)
(0 0 0)
(0 0 0)
(0 0 0)
(0 0 0)
(0 0 0)
(0 0 0)
(0 0 0)
(0 0 0)
(0 0 0)
(0 0 0)
(0 0 0)
(0 0 0)
(0 0 0)
(0 0 0)
(0 0 0)
(0 0 0)
(0 0 0)
(0 0 0)
(0 0 0)
(0 0 0)
(0 0 0)
(0 0 0)
(0 0 0)
(0 0 0)
(0 0 0)
(0 0 0)
(0 0 0)
(0 0 0)
(0 0 0)
(0 0 0)
(0 0 0)
(0 0 0)
(0 0 0)
(0 0 0)
(0 0 0)
(0 0 0)
(0 0 0)
(0 0 0)
(0 0 0)
(0 0 0)
(0 0 0)
(0 0 0)
(0 0 0)
(0 0 0)
(0 0 0)
(0 0 0)
(0 0 0)
(0 0 0)
(0 0 0)
(0 0 0)
(0 0 0)
(0 0 0)
(0 0 0)
(0 0 0)
(0 0 0)
(0 0 0)
(0 0 0)
(0 0 0)
(0 0 0)
(0 0 0)
(0 0 0)
(0 0 0)
(0 0 0)
(0 0 0)
(0 0 0)
(0 0 0)
(0 0 0)
(0 0 0)
(0 0 0)
(0 0 0)
(0 0 0)
(0 0 0)
(0 0 0)
(0 0 0)
(0 0 0)
(0 0 0)
(0 0 0)
(0 0 0)
(0 0 0)
(0 0 0)
(0 0 0)
(0 0 0)
(0 0 0)
(0 0 0)
(0 0 0)
(0 0 0)
(0 0 0)
(0 0 0)
(0 0 0)
(0 0 0)
(0 0 0)
(0 0 0)
(0 0 0)
(0 0 0)
(0 0 0)
(0 0 0)
(0 0 0)
(0 0 0)
(0 0 0)
(0 0 0)
(0 0 0)
(0 0 0)
(0 0 0)
(0 0 0)
(0 0 0)
(0 0 0)
(0 0 0)
(0 0 0)
(0 0 0)
(0 0 0)
(0 0 0)
(0 0 0)
(0 0 0)
(0 0 0)
(0 0 0)
(0 0 0)
(0 0 0)
(0 0 0)
(0 0 0)
(0 0 0)
(0 0 0)
(0 0 0)
(0 0 0)
(0 0 0)
(0 0 0)
(0 0 0)
(0 0 0)
(0 0 0)
(0 0 0)
(0 0 0)
(0 0 0)
(0 0 0)
(0 0 0)
(0 0 0)
(0 0 0)
(0 0 0)
(0 0 0)
(0 0 0)
(0 0 0)
(0 0 0)
(0 0 0)
(0 0 0)
(0 0 0)
(0 0 0)
(0 0 0)
(0 0 0)
(0 0 0)
(0 0 0)
(0 0 0)
(0 0 0)
(0 0 0)
(0 0 0)
(0 0 0)
(0 0 0)
(0 0 0)
(0 0 0)
(0 0 0)
(0 0 0)
(0 0 0)
(0 0 0)
(0 0 0)
(0 0 0)
(0 0 0)
(0 0 0)
(0 0 0)
(0 0 0)
(0 0 0)
(0 0 0)
(0 0 0)
(0 0 0)
(0 0 0)
(0 0 0)
(0 0 0)
(0 0 0)
(0 0 0)
(0 0 0)
(0 0 0)
(0 0 0)
(0 0 0)
(0 0 0)
(0 0 0)
(0 0 0)
(0 0 0)
(0 0 0)
(0 0 0)
(0 0 0)
(0 0 0)
(0 0 0)
(0 0 0)
(0 0 0)
(0 0 0)
(0 0 0)
(0 0 0)
(0 0 0)
(0 0 0)
(0 0 0)
(0 0 0)
(0 0 0)
(0 0 0)
(0 0 0)
(0 0 0)
(0 0 0)
(0 0 0)
(0 0 0)
(0 0 0)
(0 0 0)
(0 0 0)
(0 0 0)
(0 0 0)
(0 0 0)
(0 0 0)
(0 0 0)
(0 0 0)
(0 0 0)
(0 0 0)
(0 0 0)
(0 0 0)
(0 0 0)
(0 0 0)
(0 0 0)
(0 0 0)
(0 0 0)
(0 0 0)
(0 0 0)
(0 0 0)
(0 0 0)
(0 0 0)
(0 0 0)
(0 0 0)
(0 0 0)
(0 0 0)
(0 0 0)
(0 0 0)
(0 0 0)
(0 0 0)
(0 0 0)
(0 0 0)
(0 0 0)
(0 0 0)
(0 0 0)
(0 0 0)
(0 0 0)
(0 0 0)
(0 0 0)
(0 0 0)
(0 0 0)
(0 0 0)
(0 0 0)
(0 0 0)
(0 0 0)
(0 0 0)
(0 0 0)
(0 0 0)
(0 0 0)
(0 0 0)
(0 0 0)
(0 0 0)
(0 0 0)
(0 0 0)
(0 0 0)
(0 0 0)
(0 0 0)
(0 0 0)
(0 0 0)
(0 0 0)
(0 0 0)
(0 0 0)
(0 0 0)
(0 0 0)
(0 0 0)
(0 0 0)
(0 0 0)
(0 0 0)
(0 0 0)
(0 0 0)
(0 0 0)
(0 0 0)
(0 0 0)
(0 0 0)
(0 0 0)
(0 0 0)
(0 0 0)
(0 0 0)
(0 0 0)
(0 0 0)
(0 0 0)
(0 0 0)
(0 0 0)
(0 0 0)
(0 0 0)
(0 0 0)
(0 0 0)
(0 0 0)
(0 0 0)
(0 0 0)
(0 0 0)
(0 0 0)
(0 0 0)
(0 0 0)
(0 0 0)
(0 0 0)
(0 0 0)
(0 0 0)
(0 0 0)
(0 0 0)
(0 0 0)
(0 0 0)
(0 0 0)
(0 0 0)
(0 0 0)
(0 0 0)
(0 0 0)
(0 0 0)
(0 0 0)
(0 0 0)
(0 0 0)
(0 0 0)
(0 0 0)
(0 0 0)
(0 0 0)
(0 0 0)
(0 0 0)
(0 0 0)
(0 0 0)
(0 0 0)
(0 0 0)
(0 0 0)
(0 0 0)
(0 0 0)
(0 0 0)
(0 0 0)
(0 0 0)
(0 0 0)
(0 0 0)
(0 0 0)
(0 0 0)
(0 0 0)
(0 0 0)
(0 0 0)
(0 0 0)
(0 0 0)
(0 0 0)
(0 0 0)
(0 0 0)
(0 0 0)
(0 0 0)
(0 0 0)
(0 0 0)
(0 0 0)
(0 0 0)
(0 0 0)
(0 0 0)
(0 0 0)
(0 0 0)
(0 0 0)
(0 0 0)
(0 0 0)
(0 0 0)
(0 0 0)
(0 0 0)
(0 0 0)
(0 0 0)
(0 0 0)
(0 0 0)
(0 0 0)
(0 0 0)
(0 0 0)
(0 0 0)
(0 0 0)
(0 0 0)
(0 0 0)
(0 0 0)
(0 0 0)
(0 0 0)
(0 0 0)
(0 0 0)
(0 0 0)
(0 0 0)
(0 0 0)
(0 0 0)
(0 0 0)
(0 0 0)
(0 0 0)
(0 0 0)
(0 0 0)
(0 0 0)
(0 0 0)
(0 0 0)
(0 0 0)
(0 0 0)
(0 0 0)
(0 0 0)
(0 0 0)
(0 0 0)
(0 0 0)
(0 0 0)
(0 0 0)
(0 0 0)
(0 0 0)
(0 0 0)
(0 0 0)
(0 0 0)
(0 0 0)
(0 0 0)
(0 0 0)
(0 0 0)
(0 0 0)
(0 0 0)
(0 0 0)
(0 0 0)
(0 0 0)
(0 0 0)
(0 0 0)
(0 0 0)
(0 0 0)
(0 0 0)
(0 0 0)
(0 0 0)
(0 0 0)
(0 0 0)
(0 0 0)
(0 0 0)
(0 0 0)
(0 0 0)
(0 0 0)
(0 0 0)
(0 0 0)
(0 0 0)
(0 0 0)
(0 0 0)
(0 0 0)
(0 0 0)
(0 0 0)
(0 0 0)
(0 0 0)
(0 0 0)
(0 0 0)
(0 0 0)
(0 0 0)
(0 0 0)
(0 0 0)
(0 0 0)
(0 0 0)
(0 0 0)
(0 0 0)
(0 0 0)
(0 0 0)
(0 0 0)
(0 0 0)
(0 0 0)
(0 0 0)
(0 0 0)
(0 0 0)
(0 0 0)
(0 0 0)
(0 0 0)
(0 0 0)
(0 0 0)
(0 0 0)
(0 0 0)
(0 0 0)
(0 0 0)
(0 0 0)
(0 0 0)
(0 0 0)
(0 0 0)
(0 0 0)
(0 0 0)
(0 0 0)
(0 0 0)
(0 0 0)
(0 0 0)
(0 0 0)
(0 0 0)
(0 0 0)
(0 0 0)
(0 0 0)
(0 0 0)
(0 0 0)
(0 0 0)
(0 0 0)
(0 0 0)
(0 0 0)
(0 0 0)
(0 0 0)
(0 0 0)
(0 0 0)
(0 0 0)
(0 0 0)
(0 0 0)
(0 0 0)
(0 0 0)
(0 0 0)
(0 0 0)
(0 0 0)
(0 0 0)
(0 0 0)
(0 0 0)
(0 0 0)
(0 0 0)
(0 0 0)
(0 0 0)
(0 0 0)
(0 0 0)
(0 0 0)
(0 0 0)
(0 0 0)
(0 0 0)
(0 0 0)
(0 0 0)
(0 0 0)
(0 0 0)
(0 0 0)
(0 0 0)
(0 0 0)
(0 0 0)
(0 0 0)
(0 0 0)
(0 0 0)
(0 0 0)
(0 0 0)
(0 0 0)
(0 0 0)
(0 0 0)
(0 0 0)
(0 0 0)
(0 0 0)
(0 0 0)
(0 0 0)
(0 0 0)
(0 0 0)
(0 0 0)
(0 0 0)
(0 0 0)
(0 0 0)
(0 0 0)
(0 0 0)
(0 0 0)
(0 0 0)
(0 0 0)
(0 0 0)
(0 0 0)
(0 0 0)
(0 0 0)
(0 0 0)
(0 0 0)
(0 0 0)
(0 0 0)
(0 0 0)
(0 0 0)
(0 0 0)
(0 0 0)
(0 0 0)
(0 0 0)
(0 0 0)
(0 0 0)
(0 0 0)
(0 0 0)
(0 0 0)
(0 0 0)
(0 0 0)
(0 0 0)
(0 0 0)
(0 0 0)
(0 0 0)
(0 0 0)
(0 0 0)
(0 0 0)
(0 0 0)
(0 0 0)
(0 0 0)
(0 0 0)
(0 0 0)
(0 0 0)
(0 0 0)
(0 0 0)
(0 0 0)
(0 0 0)
(0 0 0)
(0 0 0)
(0 0 0)
(0 0 0)
(0 0 0)
(0 0 0)
(0 0 0)
(0 0 0)
(0 0 0)
(0 0 0)
(0 0 0)
(0 0 0)
(0 0 0)
(0 0 0)
(0 0 0)
(0 0 0)
(0 0 0)
(0 0 0)
(0 0 0)
(0 0 0)
(0 0 0)
(0 0 0)
(0 0 0)
(0 0 0)
(0 0 0)
(0 0 0)
(0 0 0)
(0 0 0)
(0 0 0)
(0 0 0)
(0 0 0)
(0 0 0)
(0 0 0)
(0 0 0)
(0 0 0)
(0 0 0)
(0 0 0)
(0 0 0)
(0 0 0)
(0 0 0)
(0 0 0)
(0 0 0)
(0 0 0)
(0 0 0)
(0 0 0)
(0 0 0)
(0 0 0)
(0 0 0)
(0 0 0)
(0 0 0)
(0 0 0)
(0 0 0)
(0 0 0)
(0 0 0)
(0 0 0)
(0 0 0)
(0 0 0)
(0 0 0)
(0 0 0)
(0 0 0)
(0 0 0)
(0 0 0)
(0 0 0)
(0 0 0)
(0 0 0)
(0 0 0)
(0 0 0)
(0 0 0)
(0 0 0)
(0 0 0)
(0 0 0)
(0 0 0)
(0 0 0)
(0 0 0)
(0 0 0)
(0 0 0)
(0 0 0)
(0 0 0)
(0 0 0)
(0 0 0)
(0 0 0)
(0 0 0)
(0 0 0)
(0 0 0)
(0 0 0)
(0 0 0)
(0 0 0)
(0 0 0)
(0 0 0)
(0 0 0)
(0 0 0)
(0 0 0)
(0 0 0)
(0 0 0)
(0 0 0)
(0 0 0)
(0 0 0)
(0 0 0)
(0 0 0)
(0 0 0)
(0 0 0)
(0 0 0)
(0 0 0)
(0 0 0)
(0 0 0)
(0 0 0)
(0 0 0)
(0 0 0)
(0 0 0)
(0 0 0)
(0 0 0)
(0 0 0)
(0 0 0)
(0 0 0)
(0 0 0)
(0 0 0)
(0 0 0)
(0 0 0)
(0 0 0)
(0 0 0)
(0 0 0)
(0 0 0)
(0 0 0)
(0 0 0)
(0 0 0)
(0 0 0)
(0 0 0)
(0 0 0)
(0 0 0)
(0 0 0)
(0 0 0)
(0 0 0)
(0 0 0)
(0 0 0)
(0 0 0)
(0 0 0)
(0 0 0)
(0 0 0)
(0 0 0)
(0 0 0)
(0 0 0)
(0 0 0)
(0 0 0)
(0 0 0)
(0 0 0)
(0 0 0)
(0 0 0)
(0 0 0)
(0 0 0)
(0 0 0)
(0 0 0)
(0 0 0)
(0 0 0)
(0 0 0)
(0 0 0)
(0 0 0)
(0 0 0)
(0 0 0)
(0 0 0)
(0 0 0)
(0 0 0)
(0 0 0)
(0 0 0)
(0 0 0)
(0 0 0)
(0 0 0)
(0 0 0)
(0 0 0)
(0 0 0)
(0 0 0)
(0 0 0)
(0 0 0)
(0 0 0)
(0 0 0)
(0 0 0)
(0 0 0)
(0 0 0)
(0 0 0)
(0 0 0)
(0 0 0)
(0 0 0)
(0 0 0)
(0 0 0)
(0 0 0)
(0 0 0)
(0 0 0)
(0 0 0)
(0 0 0)
(0 0 0)
(0 0 0)
(0 0 0)
(0 0 0)
(0 0 0)
(0 0 0)
(0 0 0)
(0 0 0)
(0 0 0)
(0 0 0)
(0 0 0)
(0 0 0)
(0 0 0)
(0 0 0)
(0 0 0)
(0 0 0)
(0 0 0)
(0 0 0)
(0 0 0)
(0 0 0)
(0 0 0)
(0 0 0)
(0 0 0)
(0 0 0)
(0 0 0)
(0 0 0)
(0 0 0)
(0 0 0)
(0 0 0)
(0 0 0)
(0 0 0)
(0 0 0)
(0 0 0)
(0 0 0)
(0 0 0)
(0 0 0)
(0 0 0)
(0 0 0)
(0 0 0)
(0 0 0)
(0 0 0)
(0 0 0)
(0 0 0)
(0 0 0)
(0 0 0)
(0 0 0)
(0 0 0)
(0 0 0)
(0 0 0)
(0 0 0)
(0 0 0)
(0 0 0)
(0 0 0)
(0 0 0)
(0 0 0)
(0 0 0)
(0 0 0)
(0 0 0)
(0 0 0)
(0 0 0)
(0 0 0)
(0 0 0)
(0 0 0)
(0 0 0)
(0 0 0)
(0 0 0)
(0 0 0)
(0 0 0)
(0 0 0)
(0 0 0)
(0 0 0)
(0 0 0)
(0 0 0)
(0 0 0)
(0 0 0)
(0 0 0)
(0 0 0)
(0 0 0)
(0 0 0)
(0 0 0)
(0 0 0)
(0 0 0)
(0 0 0)
(0 0 0)
(0 0 0)
(0 0 0)
(0 0 0)
(0 0 0)
(0 0 0)
(0 0 0)
(0 0 0)
(0 0 0)
(0 0 0)
(0 0 0)
(0 0 0)
(0 0 0)
(0 0 0)
(0 0 0)
(0 0 0)
(0 0 0)
(0 0 0)
(0 0 0)
(0 0 0)
(0 0 0)
(0 0 0)
(0 0 0)
(0 0 0)
(0 0 0)
(0 0 0)
(0 0 0)
(0 0 0)
(0 0 0)
(0 0 0)
(0 0 0)
(0 0 0)
(0 0 0)
(0 0 0)
(0 0 0)
(0 0 0)
(0 0 0)
(0 0 0)
(0 0 0)
(0 0 0)
(0 0 0)
(0 0 0)
(0 0 0)
(0 0 0)
(0 0 0)
(0 0 0)
(0 0 0)
(0 0 0)
(0 0 0)
(0 0 0)
(0 0 0)
(0 0 0)
(0 0 0)
(0 0 0)
(0 0 0)
(0 0 0)
(0 0 0)
(0 0 0)
(0 0 0)
(0 0 0)
(0 0 0)
(0 0 0)
(0 0 0)
(0 0 0)
(0 0 0)
(0 0 0)
(0 0 0)
(0 0 0)
(0 0 0)
(0 0 0)
(0 0 0)
(0 0 0)
(0 0 0)
(0 0 0)
(0 0 0)
(0 0 0)
(0 0 0)
(0 0 0)
(0 0 0)
(0 0 0)
(0 0 0)
(0 0 0)
(0 0 0)
(0 0 0)
(0 0 0)
(0 0 0)
(0 0 0)
(0 0 0)
(0 0 0)
(0 0 0)
(0 0 0)
(0 0 0)
(0 0 0)
(0 0 0)
(0 0 0)
(0 0 0)
(0 0 0)
(0 0 0)
(0 0 0)
(0 0 0)
(0 0 0)
(0 0 0)
(0 0 0)
(0 0 0)
(0 0 0)
(0 0 0)
(0 0 0)
(0 0 0)
(0 0 0)
(0 0 0)
(0 0 0)
(0 0 0)
(0 0 0)
(0 0 0)
(0 0 0)
(0 0 0)
(0 0 0)
(0 0 0)
(0 0 0)
(0 0 0)
(0 0 0)
(0 0 0)
(0 0 0)
(0 0 0)
(0 0 0)
(0 0 0)
(0 0 0)
(0 0 0)
(0 0 0)
(0 0 0)
(0 0 0)
(0 0 0)
(0 0 0)
(0 0 0)
(0 0 0)
(0 0 0)
(0 0 0)
(0 0 0)
(0 0 0)
(0 0 0)
(0 0 0)
(0 0 0)
(0 0 0)
(0 0 0)
(0 0 0)
(0 0 0)
(0 0 0)
(0 0 0)
(0 0 0)
(0 0 0)
(0 0 0)
(0 0 0)
(0 0 0)
(0 0 0)
(0 0 0)
(0 0 0)
(0 0 0)
(0 0 0)
(0 0 0)
(0 0 0)
(0 0 0)
(0 0 0)
(0 0 0)
(0 0 0)
(0 0 0)
(0 0 0)
(0 0 0)
(0 0 0)
(0 0 0)
(0 0 0)
(0 0 0)
(0 0 0)
(0 0 0)
(0 0 0)
(0 0 0)
(0 0 0)
(0 0 0)
(0 0 0)
(0 0 0)
(0 0 0)
(0 0 0)
(0 0 0)
(0 0 0)
(0 0 0)
(0 0 0)
(0 0 0)
(0 0 0)
(0 0 0)
(0 0 0)
(0 0 0)
(0 0 0)
(0 0 0)
(0 0 0)
(0 0 0)
(0 0 0)
(0 0 0)
(0 0 0)
(0 0 0)
(0 0 0)
(0 0 0)
(0 0 0)
(0 0 0)
(0 0 0)
(0 0 0)
(0 0 0)
(0 0 0)
(0 0 0)
(0 0 0)
(0 0 0)
(0 0 0)
(0 0 0)
(0 0 0)
(0 0 0)
(0 0 0)
(0 0 0)
(0 0 0)
(0 0 0)
(0 0 0)
(0 0 0)
(0 0 0)
(0 0 0)
(0 0 0)
(0 0 0)
(0 0 0)
(0 0 0)
(0 0 0)
(0 0 0)
(0 0 0)
(0 0 0)
(0 0 0)
(0 0 0)
(0 0 0)
(0 0 0)
(0 0 0)
(0 0 0)
(0 0 0)
(0 0 0)
(0 0 0)
(0 0 0)
(0 0 0)
(0 0 0)
(0 0 0)
(0 0 0)
(0 0 0)
(0 0 0)
(0 0 0)
(0 0 0)
(0 0 0)
(0 0 0)
(0 0 0)
(0 0 0)
(0 0 0)
(0 0 0)
(0 0 0)
(0 0 0)
(0 0 0)
(0 0 0)
(0 0 0)
(0 0 0)
(0 0 0)
(0 0 0)
(0 0 0)
(0 0 0)
(0 0 0)
(0 0 0)
(0 0 0)
(0 0 0)
(0 0 0)
(0 0 0)
(0 0 0)
(0 0 0)
(0 0 0)
(0 0 0)
(0 0 0)
(0 0 0)
(0 0 0)
(0 0 0)
(0 0 0)
(0 0 0)
(0 0 0)
(0 0 0)
(0 0 0)
(0 0 0)
(0 0 0)
(0 0 0)
(0 0 0)
(0 0 0)
(0 0 0)
(0 0 0)
(0 0 0)
(0 0 0)
(0 0 0)
(0 0 0)
(0 0 0)
(0 0 0)
(0 0 0)
(0 0 0)
(0 0 0)
(0 0 0)
(0 0 0)
(0 0 0)
(0 0 0)
(0 0 0)
(0 0 0)
(0 0 0)
(0 0 0)
(0 0 0)
(0 0 0)
(0 0 0)
(0 0 0)
(0 0 0)
(0 0 0)
(0 0 0)
(0 0 0)
(0 0 0)
(0 0 0)
(0 0 0)
(0 0 0)
(0 0 0)
(0 0 0)
(0 0 0)
(0 0 0)
(0 0 0)
(0 0 0)
(0 0 0)
(0 0 0)
(0 0 0)
(0 0 0)
(0 0 0)
(0 0 0)
(0 0 0)
(0 0 0)
(0 0 0)
(0 0 0)
(0 0 0)
(0 0 0)
(0 0 0)
(0 0 0)
(0 0 0)
(0 0 0)
(0 0 0)
(0 0 0)
(0 0 0)
(0 0 0)
(0 0 0)
(0 0 0)
(0 0 0)
(0 0 0)
(0 0 0)
(0 0 0)
(0 0 0)
(0 0 0)
(0 0 0)
(0 0 0)
(0 0 0)
(0 0 0)
(0 0 0)
(0 0 0)
(0 0 0)
(0 0 0)
(0 0 0)
(0 0 0)
(0 0 0)
(0 0 0)
(0 0 0)
(0 0 0)
(0 0 0)
(0 0 0)
(0 0 0)
(0 0 0)
(0 0 0)
(0 0 0)
(0 0 0)
(0 0 0)
(0 0 0)
(0 0 0)
(0 0 0)
(0 0 0)
(0 0 0)
(0 0 0)
(0 0 0)
(0 0 0)
(0 0 0)
(0 0 0)
(0 0 0)
(0 0 0)
(0 0 0)
(0 0 0)
(0 0 0)
(0 0 0)
(0 0 0)
(0 0 0)
(0 0 0)
(0 0 0)
(0 0 0)
(0 0 0)
(0 0 0)
(0 0 0)
(0 0 0)
(0 0 0)
(0 0 0)
(0 0 0)
(0 0 0)
(0 0 0)
(0 0 0)
(0 0 0)
(0 0 0)
(0 0 0)
(0 0 0)
(0 0 0)
(0 0 0)
(0 0 0)
(0 0 0)
(0 0 0)
(0 0 0)
(0 0 0)
(0 0 0)
(0 0 0)
(0 0 0)
(0 0 0)
(0 0 0)
(0 0 0)
(0 0 0)
(0 0 0)
(0 0 0)
(0 0 0)
(0 0 0)
(0 0 0)
(0 0 0)
(0 0 0)
(0 0 0)
(0 0 0)
(0 0 0)
(0 0 0)
(0 0 0)
(0 0 0)
(0 0 0)
(0 0 0)
(0 0 0)
(0 0 0)
(0 0 0)
(0 0 0)
(0 0 0)
(0 0 0)
(0 0 0)
(0 0 0)
(0 0 0)
(0 0 0)
(0 0 0)
(0 0 0)
(0 0 0)
(0 0 0)
(0 0 0)
(0 0 0)
(0 0 0)
(0 0 0)
(0 0 0)
(0 0 0)
(0 0 0)
(0 0 0)
(0 0 0)
(0 0 0)
(0 0 0)
(0 0 0)
(0 0 0)
(0 0 0)
(0 0 0)
(0 0 0)
(0 0 0)
(0 0 0)
(0 0 0)
(0 0 0)
(0 0 0)
(0 0 0)
(0 0 0)
(0 0 0)
(0 0 0)
(0 0 0)
(0 0 0)
(0 0 0)
(0 0 0)
(0 0 0)
(0 0 0)
(0 0 0)
(0 0 0)
(0 0 0)
(0 0 0)
(0 0 0)
(0 0 0)
(0 0 0)
(0 0 0)
(0 0 0)
(0 0 0)
(0 0 0)
(0 0 0)
(0 0 0)
(0 0 0)
(0 0 0)
(-0.0500808 0.0373749 0.0172218)
(-0.040238 0.0367628 -0.0220912)
(-0.0671231 0.0528859 0.0299822)
(-0.0347484 0.053266 0.0210201)
(-0.0146637 0.025171 -0.0216284)
(-0.013394 0.0248846 -0.00357013)
(-0.00780158 0.00848807 -0.00703195)
(-0.000917054 0.00771237 -0.00490677)
(-0.0632325 0.0817149 0.0165313)
(-0.0666083 0.0723401 0.00412776)
(-0.097027 0.0778897 0.0055737)
(-0.119791 0.135405 0.0116976)
(-0.17449 0.156928 -0.014293)
(-0.0440784 0.0890223 0.00879131)
(0.0136637 0.0577281 0.00181088)
(-0.124825 0.0938318 -0.0159083)
(-0.0699888 0.000630129 -0.00754641)
(-0.0267324 0.0123934 -2.1681e-06)
(-0.0335476 0.00126078 -0.00252652)
(-0.077141 -0.0335766 -0.00200996)
(-0.0447785 -0.0311628 -0.00596158)
(-0.0092514 0.00137769 -0.00685479)
(-0.00864787 -0.00101789 -0.0100373)
(-0.0192191 -0.0512744 -0.0139857)
(-0.0055741 -0.0286027 -0.00283573)
(0.00412701 -0.0135871 0.00497838)
(-0.0879623 0.0363695 0.0408802)
(-0.0286595 -0.0482622 0.028518)
(-0.122356 -0.0392123 0.0560441)
(-0.223655 0.0705106 0.0759635)
(-0.343375 0.0411035 0.0511613)
(-0.280731 -0.129492 0.078123)
(-0.422172 -0.244448 0.0136787)
(-0.321817 -0.10407 -0.0166514)
(-0.213514 -0.166844 -0.0565704)
(-0.348564 -0.216658 -0.0558364)
(-0.219579 -0.202952 -0.0595803)
(-0.137116 -0.177791 -0.0359191)
(-0.0782854 -0.139391 -0.021264)
(-0.150974 -0.188773 -0.0423395)
(-0.130036 -0.205554 -0.0620016)
(-0.0498275 -0.109281 -0.0137659)
(-0.0215148 -0.102087 -0.000345145)
(-0.0945671 -0.164082 -0.0315622)
(-0.030038 -0.122335 -0.0100432)
(0.00478308 -0.0547007 -0.00232805)
(0.013491 -0.0715572 -0.00823177)
(0.0218261 -0.0313942 0.00232485)
(-0.0167202 -0.0753741 0.0214603)
(-0.0886865 -0.141907 0.0500278)
(-0.0783342 -0.180174 0.0292148)
(-0.218513 -0.241055 0.0485332)
(-0.303551 -0.290869 0.00230575)
(-0.164005 -0.25047 0.0163006)
(-0.181513 -0.241016 -0.0128148)
(-0.28906 -0.241136 -0.0490956)
(-0.195598 -0.194683 -0.0450307)
(-0.219973 -0.205051 -0.0592317)
(-0.174636 -0.173114 -0.089133)
(-0.139678 -0.161605 -0.0259365)
(-0.130839 -0.174069 -0.0346124)
(-0.146024 -0.155058 -0.0603319)
(-0.11498 -0.150281 -0.0330271)
(-0.0956161 -0.144334 -0.0210895)
(-0.0185279 -0.109068 -0.0185286)
(-0.0582475 -0.134899 -0.0245525)
(-0.00622065 -0.0943639 -0.0182866)
(0.034179 -0.0747568 -0.00551216)
(0.0317002 -0.0431143 6.09888e-05)
(0.0224387 -0.0545028 -0.00683109)
(-0.0865923 -0.153823 0.00355662)
(-0.122312 -0.196849 -0.0139834)
(-0.0985617 -0.174378 -0.0287056)
(-0.0719745 -0.11259 -0.031248)
(-0.0676277 -0.107209 -0.0363928)
(-0.137187 -0.140651 -0.0273189)
(-0.146085 -0.127454 -0.0611881)
(-0.0915183 -0.105919 -0.0312613)
(-0.126875 -0.0982834 -0.0449681)
(-0.149584 -0.113546 -0.0581432)
(-0.120523 -0.0993531 -0.0346626)
(-0.12621 -0.0750317 -0.0281533)
(-0.0975262 -0.0424372 -0.0222774)
(-0.0463608 -0.0868255 -0.0333261)
(0.0108012 -0.047549 -0.0133595)
(-0.0332398 -0.0199275 -0.0247163)
(0.00200275 -0.0176665 -0.0126408)
(0.0241242 -0.0319549 -0.00171519)
(-0.0579471 -0.042599 -0.034324)
(-0.080552 -0.0412397 -0.0267675)
(-0.0880523 -0.0369321 -0.0291552)
(-0.0658739 -0.00374994 -0.0407501)
(-0.0564106 -0.0140298 -0.0179401)
(-0.055047 0.00648083 -0.0140182)
(-0.024992 0.00319199 -0.0293158)
(-0.027873 0.00879962 -0.0151001)
(-0.0481965 0.0220832 0.0315556)
(-0.0438132 0.00900521 0.071425)
(-0.115563 0.0169008 0.0382459)
(-0.0772312 0.0225343 0.050902)
(-0.105673 0.036684 0.0760636)
(-0.146733 0.0150123 0.0562429)
(-0.106282 -0.0055833 0.101845)
(-0.177337 0.00625893 0.116891)
(-0.10986 0.0242112 0.101397)
(-0.0928036 -0.0133597 0.0378033)
(-0.173656 -0.0106612 0.0399259)
(-0.197258 -0.0176432 0.106656)
(-0.132593 -0.0454687 0.0644438)
(-0.0643334 -0.0207551 -0.0348982)
(-0.097214 -0.0585455 -0.00698722)
(-0.122715 0.135379 0.00642978)
(-0.0924499 0.082697 -0.0171064)
(-0.0870568 0.0216289 0.0255348)
(-0.143979 0.109874 -0.00775705)
(-0.185675 0.0312261 -0.0206664)
(-0.0369242 0.0147054 0.00981552)
(-0.0779145 -0.0169758 0.0599994)
(-0.127236 0.0340914 -0.0250514)
(-0.158898 -0.0475931 -0.00736398)
(-0.0484264 -0.0364448 -0.100514)
(-0.0571938 -0.142272 -0.0819589)
(-0.0746561 -0.0755421 -0.123032)
(-0.124019 -0.0910198 -0.0340685)
(-0.0906888 -0.0772915 -0.108239)
(-0.121999 -0.162369 -0.0261969)
(-0.114975 -0.116732 -0.102656)
(-0.0700165 -0.0849309 -0.158186)
(-0.0707366 -0.0889824 -0.131127)
(-0.403866 0.135226 0.128818)
(-0.182215 -0.343375 -0.0464395)
(-0.636104 -0.332078 0.172141)
(-0.382793 0.0981325 0.128056)
(-0.128677 -0.288895 0.260277)
(-0.501023 -0.319013 0.229926)
(-0.0361669 -0.177969 -0.215809)
(-0.0245309 -0.164086 -0.175448)
(-0.0894921 -0.175507 -0.129472)
(-0.050602 -0.132037 -0.21691)
(-0.0150753 -0.127511 -0.126011)
(-0.284885 -0.412859 0.11429)
(-0.172955 -0.324428 0.0562096)
(-0.109881 -0.30511 0.154598)
(-0.32762 -0.40046 0.181064)
(-0.190285 -0.318281 0.11456)
(0.010306 -0.147667 -0.202592)
(0.0166115 -0.119143 -0.181778)
(-0.0241253 -0.101576 -0.258573)
(0.0100045 -0.114187 -0.159855)
(-0.018533 -0.0752668 -0.231666)
(-0.142537 -0.24767 0.0142143)
(-0.136185 -0.238807 0.0090176)
(-0.272888 -0.217083 -0.0957819)
(-0.149843 -0.167985 -0.0770675)
(-0.164289 -0.131154 -0.119799)
(-0.195963 -0.251588 -0.0542145)
(-0.249375 -0.210481 -0.0695878)
(-0.148607 -0.160696 -0.0829088)
(-0.184168 -0.137457 -0.0832857)
(0.00710305 -0.0764519 -0.128882)
(-0.0324357 -0.022496 -0.136481)
(-0.00234888 -0.0240733 -0.0973652)
(-0.049006 -0.0611425 -0.30089)
(-0.0152152 -0.0450374 -0.280583)
(-0.0272767 -0.0228797 -0.276934)
(0.00306545 -0.0121159 -0.237991)
(0.00641467 -0.0406011 -0.210083)
(-0.1305 -0.0707515 -0.144539)
(-0.128773 -0.076109 -0.10541)
(-0.123387 -0.0393728 -0.14611)
(-0.104107 -0.0114086 -0.167373)
(-0.134526 -0.0523568 -0.135722)
(-0.129193 -0.043115 -0.146787)
(-0.102478 -0.0106541 -0.148134)
(-0.0804096 -0.0143941 -0.175559)
(-0.0950016 -0.00311784 -0.197879)
(-0.0956214 -0.0208099 -0.194705)
(-0.0486861 -0.0170084 -0.227071)
(-0.0838377 -0.00145061 -0.170893)
(-0.0143109 -0.00392188 -0.240213)
(-0.0400428 -0.0143074 0.175363)
(-0.00452907 -0.0545723 0.276843)
(-0.222692 -0.0119928 0.0883697)
(-0.169625 -0.0442189 0.219604)
(-0.271687 -0.0762765 0.181767)
(-0.356134 -0.0543965 0.111604)
(-0.22987 -0.151166 0.312062)
(-0.392977 -0.209994 0.219631)
(-0.257804 -0.062242 0.112253)
(-0.194755 -0.0795304 0.0876158)
(-0.236539 -0.0397294 0.048037)
(-0.297502 -0.133002 0.131414)
(-0.211681 -0.10032 0.0939062)
(-0.15125 -0.0884331 0.0591361)
(-0.160795 -0.0933524 0.0862069)
(-0.0564803 0.0245636 0.0096274)
(0.0248042 -0.0404 0.000427406)
(-0.0885871 -0.0564287 0.138035)
(-0.0968372 -0.025466 0.000746106)
(-0.171429 -0.0962122 0.0299206)
(0.0429786 -0.074378 0.0321574)
(-0.0646739 -0.1086 0.201377)
(-0.0342837 -0.088128 0.00131798)
(-0.202733 -0.205288 0.0348957)
(-0.128981 -0.107075 0.0249445)
(-0.237956 -0.223392 0.0842075)
(-0.165795 -0.149302 0.05469)
(-0.211874 -0.155839 0.149625)
(-0.138045 -0.124082 0.113656)
(-0.262631 -0.244411 0.131134)
(-0.175733 -0.171614 0.12923)
(-0.118329 -0.139335 0.0262837)
(-0.0792858 -0.09638 0.124652)
(-0.268379 0.00209999 0.173702)
(-0.0145287 -0.100456 0.371409)
(-0.29853 -0.0167059 0.285199)
(-0.112731 -0.0262292 0.259467)
(-0.00257739 0.0521407 0.388309)
(-0.201864 -0.022896 0.349874)
(-0.0522402 -0.073916 -0.156621)
(-0.00980463 -0.0831308 -0.0594352)
(-0.0774789 -0.0737386 0.015297)
(-0.0569266 -0.0531787 -0.138195)
(-0.0134248 -0.0466657 -0.0256863)
(-0.295589 -0.250289 0.271826)
(-0.204585 -0.281075 0.152682)
(0.0504048 -0.000291478 0.237992)
(-0.0222431 -0.0656916 0.18481)
(-0.140438 -0.209173 -0.0665067)
(0.00803328 -0.0755602 -0.0794817)
(-0.0188554 -0.0450833 -0.20948)
(-0.0282829 -0.0453324 -0.218133)
(0.0045289 -0.0404244 -0.0572865)
(-0.0149849 -0.0306269 -0.220246)
(-0.137548 -0.215043 -0.0354186)
(-0.103702 -0.162662 -0.0952636)
(-0.196031 -0.199192 -0.0403202)
(-0.12613 -0.140664 -0.0853209)
(-0.163863 -0.137469 -0.0345588)
(-0.126379 -0.176725 -0.11959)
(-0.168415 -0.17727 -0.0461204)
(-0.106343 -0.118345 -0.0945877)
(-0.141508 -0.115349 -0.036947)
(-0.0181824 -0.0309954 -0.27151)
(-0.0281744 -0.0212595 -0.284555)
(-0.000731266 -0.00803418 -0.238519)
(-0.0481471 -0.0378757 -0.328273)
(-0.0194979 -0.0279615 -0.289212)
(-0.0359164 -0.0164014 -0.306206)
(-0.00654639 -0.00923062 -0.2536)
(0.00152339 -0.0108799 -0.182758)
(-0.130601 -0.0806717 -0.0235236)
(-0.109372 -0.0618893 0.00459683)
(-0.121332 -0.0431801 -0.075995)
(-0.0839111 -0.00665909 -0.0792768)
(-0.112974 -0.03471 0.0495962)
(-0.116043 -0.0232203 0.00267757)
(-0.0712855 -0.00748146 0.00473236)
(-0.0491951 -0.00460351 -0.204019)
(-0.0709127 0.0048446 -0.107542)
(-0.0941183 -0.00213379 -0.135652)
(-0.0630783 0.00140037 -0.218238)
(-0.0650974 0.00211863 -0.0573322)
(-0.03195 0.00440545 -0.241274)
(-0.0844817 0.0768552 -0.790211)
(-0.0893919 0.0635222 -0.784334)
(-0.378354 -0.209419 0.0127538)
(-0.466991 -0.314925 -0.0880019)
(-0.397312 -0.339443 0.147019)
(-0.290022 -0.285878 -0.0729112)
(-0.347875 -0.217621 -0.279693)
(-0.334754 -0.349369 0.0855842)
(-0.300634 -0.203289 0.141572)
(-0.200018 -0.109835 0.100515)
(-0.246868 -0.220031 -0.00189248)
(-0.263412 -0.267449 0.119433)
(-0.175405 -0.139316 0.110563)
(-0.134405 -0.0739933 0.0959377)
(-0.101895 -0.079411 0.0964837)
(0.0470473 -0.0869541 -0.00884535)
(0.0323336 -0.111596 0.0674641)
(0.151671 -0.253396 -0.244805)
(0.047864 -0.150321 -0.0933705)
(-0.016468 -0.261468 -0.102063)
(0.120803 -0.100296 -0.163139)
(0.146406 -0.286238 -0.281935)
(0.0681055 -0.148538 -0.0239786)
(0.114369 -0.184241 -0.111869)
(-0.0972358 -0.0785255 0.129205)
(-0.255105 -0.173651 0.189974)
(-0.130849 -0.0832303 0.121394)
(-0.135077 -0.123635 0.185423)
(-0.0466605 -0.0558401 0.097447)
(-0.181948 -0.129626 0.182757)
(-0.0264816 -0.0457785 0.0683373)
(-0.0428101 -0.0548042 0.082301)
(-0.0197692 -0.021488 0.0625625)
(-0.0370852 -0.0824434 0.330259)
(-0.0494998 0.00221385 0.415434)
(-0.158921 -0.034874 0.392603)
(-0.0169875 0.0511786 0.408218)
(-0.208362 -0.0572435 0.443998)
(-0.175704 -0.1049 0.406829)
(-0.0680925 -0.056485 -0.173122)
(-0.0211026 -0.0472844 -0.0749852)
(-0.0330213 -0.0267916 -0.0502648)
(-0.0539503 -0.0455751 -0.199741)
(-0.0245611 -0.0506267 -0.13401)
(-0.0867389 -0.0503835 0.261338)
(-0.0561246 -0.125662 -0.0414438)
(0.00211819 -0.0443015 0.349522)
(-0.0681067 -0.063966 0.311088)
(-0.0173508 -0.0773355 0.119436)
(-0.00552238 -0.0356952 -0.094498)
(-0.0253105 -0.0354237 -0.25166)
(-0.0310424 -0.03424 -0.259821)
(-0.00898169 -0.0304747 -0.152281)
(-0.0205114 -0.0336223 -0.282331)
(-0.0512185 -0.0915899 -0.102019)
(0.0148874 0.022177 -0.11276)
(-0.128748 -0.146826 -0.0564379)
(-0.0934052 -0.100755 -0.112709)
(-0.0962143 -0.106122 -0.0593552)
(-0.119953 -0.105814 -0.155235)
(-0.142709 -0.113115 -0.0693867)
(-0.0891067 -0.0896927 -0.138661)
(-0.0969587 -0.0891248 -0.0895616)
(-0.0188167 -0.0334668 -0.319382)
(-0.0417514 -0.0113224 -0.338688)
(-0.00472118 -0.0108995 -0.29196)
(-0.0409827 -0.0212053 -0.38192)
(-0.0194121 -0.0277384 -0.345532)
(-0.0345514 -0.00940705 -0.368707)
(-0.0094045 -0.0181151 -0.332042)
(-0.000783803 -0.0257841 -0.284914)
(-0.0857131 -0.0571632 -0.00819543)
(-0.0692897 -0.0448324 -0.0404923)
(-0.112927 -0.0545844 0.00166044)
(-0.0801616 -0.0114978 0.00143031)