/*--------------------------------*- C++ -*----------------------------------*\
| =========                 |                                                 |
| \\      /  F ield         | OpenFOAM: The Open Source CFD Toolbox           |
|  \\    /   O peration     | Version:  5.x                                   |
|   \\  /    A nd           | Web:      www.OpenFOAM.org                      |
|    \\/     M anipulation  |                                                 |
\*---------------------------------------------------------------------------*/
FoamFile
{
    version     2.0;
    format      ascii;
    class       volScalarField;
    location    "0.65";
    object      Ksl;
}
// * * * * * * * * * * * * * * * * * * * * * * * * * * * * * * * * * * * * * //

dimensions      [1 -3 -1 0 0 0 0];

internalField   nonuniform List<scalar> 
10571
(
7346.1
3950.73
2602.95
13.3028
1173.58
3527.71
0
316.949
4433.29
8993.14
830.958
950.2
86.0329
3569.27
10563.4
10647.1
2463.67
1136.9
9581.92
11790.7
11897.9
3863.78
10863
13373.7
9898.35
11820.2
5586.99
357.398
8444.74
9040.71
1986.67
3740.97
1558.76
1192.39
10291.9
2484.79
3416.45
2528.57
4547.34
11245.1
9279.41
746.363
2619.95
12149.3
10551.3
2585.46
2817.08
11659.9
12792.3
11666.9
11320.2
8489.41
7514.57
11479.8
1583.48
760.736
262.998
3.18589
9082.84
5302.92
611.651
169.286
313.809
3138.42
4765.81
4.18162
151.271
1802.02
5578.79
0
35.7068
10845.1
9197.09
1079.14
1232.75
2372.63
8.03351
77.3083
120.729
299.184
362.766
210.363
248.662
0
4.00898
59.9884
130.382
1561.76
0
0.814921
51.0812
403.834
4049.47
0
28.4017
7700.88
3232.68
37.6918
161.631
367.398
8.08268
143.718
224.974
73.8467
145.954
961.381
49.6203
0.454543
17.1964
52.4698
117.948
1832.81
0
1.68036
35.5381
337.947
4580.02
0
35.2737
8118.4
5309.67
10.4236
7.52993
187.544
216.648
94.0113
125.439
24.7555
98.7217
792.62
13608.2
37.9769
22.1776
27.1895
46.7982
141.398
5576.23
9172.17
0
3.88636
93.6983
551.765
3249.24
0
74.3281
6121.97
5874.67
12.6181
7.45966
10.7092
1958.53
39.2968
51.5402
17.5264
49.3646
540.847
10601.4
21.7696
16.1028
27.3633
73.1772
79.2778
489.473
7228.01
0
5.77697
220.814
699.789
5399.38
11891.4
0
198.341
8883.88
551.601
0.250167
0
8.72267
318.048
46.0241
50.2175
17.8747
57.2196
591.166
0
114.428
53.366
73.8519
70.4494
29.3871
28.8488
8680.96
0
12.3105
100.623
195.303
5011.37
10812.8
11.726
157.837
160.191
88.173
0
4.58475
21.2863
95.7729
11.6537
14.8907
15.6538
39.8534
261.007
0
-9.25089e-16
115.423
78.5551
27.4493
14.5991
63.0722
4.17563
0
30.2044
55.9211
60.4045
639.639
60.8677
106.46
39.1383
17.6343
0
0
6.30618
62.7098
10.125
7.16073
8.01765
33.26
139.143
42.5576
11.9252
28.716
13.4928
13.9864
197.459
0
61.0607
27.6468
31.713
205.922
84.3484
100.114
18.2208
51.8558
0
4.9705
13.2732
19.3581
0
3.53809
7.82654
20.6882
54.4697
85.2751
26.2213
22.1888
6.01554
17.4164
136.291
30.029
51.8766
14.808
18.4161
59.0657
127.904
33.6714
29.1608
49.2139
0
14.5424
19.6583
3.26179
0
2.76682
4.00006
13.4885
10.9656
0
50.4897
9.58629
1.79053
13.2125
104.067
54.3362
22.0543
3.17117
5.66393
28.0609
57.4858
11.4676
13.7185
52.2481
0
0
26.327
2.93791
4.79777
2.44502
3.16976
9.93562
15.034
0
5.48865
1.98948
2.58078
5.4002
66.9044
22.3285
4.50542
1.3329
0.221257
43.6384
0
0.759003
21.621
15.1206
0
4.69833
10.4908
7.28362
0.36287
1.14912
2.43763
10.9188
4.21891
0
0
0.630106
2.39005
6.00153
51.1956
0
2.56645
1.33169
0
30.9594
4.7262
0
2.36471
0
0
0
0
14.3163
0
0.629617
0.440347
8.84935
30.1263
0
0
0.0526606
0.623442
2.90584
43.4876
0
0.643803
1.00239
-1.09041e-15
11.5091
0
0
0
0
0
0
0
15.4096
0
0
0.413702
6.98023
24.9253
0
0
0
0.49382
0
21.339
0
0
0.431273
0
-1.33053e-15
0
0
0.767131
0
0
4.46412
0
9.46948
0
0
0
5.13148
56.9373
0
0
0.578014
0
0
1.08859
0.17777
0
0
0
3.71697
0
0
0
0
0
0
0
9.93415
0
0
0
3.0853
52.9339
0
0
0
0
0.377526
0
0
0
0
0
0
0
0
0
0
0
0
0
2.76018
0
0
0
0.400285
17.613
0
0
0
0
0
0
0
0
0
0
0
0
0
0
0
0
0
0
0
0
0
0
0
0
0
0
0
0
0
0
0
0
0
0
0
0
0
0
0
0
0
0
0
0
0
0
0
0
0
0
0
0
0
0
0
0
0
0
0
0
0
0
0
0
0
0
0
0
0
0
0
0
0
0
0
0
0
0
0
0
0
0
0
0
0
0
0
0
0
0
0
0
0
0
0
0
0
0
0
0
0
0
0
0
0
0
0
0
0
0
0
0
0
0
0
0
0
0
0
0
0
0
0
0
0
0
0
0
0
0
0
0
0
0
0
0
0
0
0
0
0
0
0
0
0
0
0
0
0
0
0
0
0
0
0
0
0
0
0
0
0
0
0
0
0
0
0
0
0
0
0
0
0
0
0
0
0
0
0
0
0
0
0
0
0
0
0
0
0
0
0
0
0
0
0
0
0
0
0
0
0
0
0
0
0
0
0
0
0
0
0
0
0
0
0
0
0
0
0
0
0
0
0
0
0
0
0
0
0
0
0
0
0
0
0
0
0
0
0
0
0
0
0
0
0
0
0
0
0
0
0
0
0
0
0
0
0
0
0
0
0
0
0
0
0
0
0
0
0
0
0
0
0
0
0
0
0
0
0
0
0
0
0
0
0
0
0
0
0
0
0
0
0
0
0
0
0
0
0
0
0
0
0
0
0
0
0
0
0
0
0
0
0
0
0
0
0
0
0
0
0
0
0
0
0
0
0
0
0
0
0
0
0
0
0
0
0
0
0
0
0
0
0
0
0
0
0
0
0
0
0
0
0
0
0
0
0
0
0
0
0
0
0
0
0
0
0
0
0
0
0
0
0
0
0
0
0
0
0
0
0
0
0
0
0
0
0
0
0
0
0
0
0
0
0
0
0
0
0
0
0
0
0
0
0
0
0
0
0
0
0
0
0
0
0
0
0
0
0
0
0
0
0
0
0
0
0
0
0
0
0
0
0
0
0
0
0
0
0
0
0
0
0
0
0
0
0
0
0
0
0
0
0
0
0
0
0
0
0
0
0
0
0
0
0
0
0
0
0
0
0
0
0
0
0
0
0
0
0
0
0
0
0
0
0
0
0
0
0
0
0
0
0
0
0
0
0
0
0
0
0
0
0
0
0
0
0
0
0
0
0
0
0
0
0
0
0
0
0
0
0
0
0
0
0
0
0
0
0
0
0
0
0
0
0
0
0
0
0
0
0
0
0
0
0
0
0
0
0
0
0
0
0
0
0
0
0
0
0
0
0
0
0
0
0
0
0
0
0
0
0
0
0
0
0
0
0
0
0
0
0
0
0
0
0
0
0
0
0
0
0
0
0
0
0
0
0
0
0
0
0
0
0
0
0
0
0
0
0
0
0
0
0
0
0
0
0
0
0
0
0
0
0
0
0
0
0
0
0
0
0
0
0
0
0
0
0
0
0
0
0
0
0
0
0
0
0
0
0
0
0
0
0
0
0
0
0
0
0
0
0
0
0
0
0
0
0
0
0
0
0
0
0
0
0
0
0
0
0
0
0
0
0
0
0
0
0
0
0
0
0
0
0
0
0
0
0
0
0
0
0
0
0
0
0
0
0
0
0
0
0
0
0
0
0
0
0
0
0
0
0
0
0
0
0
0
0
0
0
0
0
0
0
0
0
0
0
0
0
0
0
0
0
0
0
0
0
0
0
0
0
0
0
0
0
0
0
0
0
0
0
0
0
0
0
0
0
0
0
0
0
0
0
0
0
0
0
0
0
0
0
0
0
0
0
0
0
0
0
0
0
0
0
0
0
0
0
0
0
0
0
0
0
0
0
0
0
0
0
0
0
0
0
0
0
0
0
0
0
0
0
0
0
0
0
0
0
0
0
0
0
0
0
0
0
0
0
0
0
0
0
0
0
0
0
0
0
0
0
0
0
0
0
0
0
0
0
0
0
0
0
0
0
0
0
0
0
0
0
0
0
0
0
0
0
0
0
0
0
0
0
0
0
0
0
0
0
0
0
0
0
0
0
0
0
0
0
0
0
0
0
0
0
0
0
0
0
0
0
0
0
0
0
0
0
0
0
0
0
0
0
0
0
0
0
0
0
0
0
0
0
0
0
0
0
0
0
0
0
0
0
0
0
0
0
0
0
0
0
0
0
0
0
0
0
0
0
0
0
0
0
0
0
0
0
0
0
0
0
0
0
0
0
0
0
0
0
0
0
0
0
0
0
0
0
0
0
0
0
0
0
0
0
0
0
0
0
0
0
0
0
0
0
0
0
0
0
0
0
0
0
0
0
0
0
0
0
0
0
0
0
0
0
0
0
0
0
0
0
0
0
0
0
0
0
0
0
0
0
0
0
0
0
0
0
0
0
0
0
0
0
0
0
0
0
0
0
0
0
0
0
0
0
0
0
0
0
0
0
0
0
0
0
0
0
0
0
0
0
0
0
0
0
0
0
0
0
0
0
0
0
0
0
0
0
0
0
0
0
0
0
0
0
0
0
0
0
0
0
0
0
0
0
0
0
0
0
0
0
0
0
0
0
0
0
0
0
0
0
0
0
0
0
0
0
0
0
0
0
0
0
0
0
0
0
0
0
0
0
0
0
0
0
0
0
0
0
0
0
0
0
0
0
0
0
0
0
0
0
0
0
0
0
0
0
0
0
0
0
0
0
0
0
0
0
0
0
0
0
0
0
0
0
0
0
0
0
0
0
0
0
0
0
0
0
0
0
0
0
0
0
0
0
0
0
0
0
0
0
0
0
0
0
0
0
0
0
0
0
0
0
0
0
0
0
0
0
0
0
0
0
0
0
0
0
0
0
0
0
0
0
0
0
0
0
0
0
0
0
0
0
0
0
0
0
0
0
0
0
0
0
0
0
0
0
0
0
0
0
0
0
0
0
0
0
0
0
0
0
0
0
0
0
0
0
0
0
0
0
0
0
0
0
0
0
0
0
0
0
0
0
0
0
0
0
0
0
0
0
0
0
0
0
0
0
0
0
0
0
0
0
0
0
0
0
0
0
0
0
0
0
0
0
0
0
0
0
0
0
0
0
0
0
0
0
0
0
0
0
0
0
0
0
0
0
0
0
2765.12
3515.46
3145.38
4911.12
6259.36
5394.56
6463.98
7335.06
2760.21
4232.14
3604.16
1915.02
6232.03
4814.9
1545.49
2517.13
272.249
669.682
758.555
354.533
545.12
1400.93
4774.78
335.963
1557.47
6215.76
1972.94
1764.31
2792.76
4447.41
4367.68
6978.01
1219.03
516.58
272.075
442.414
453.316
253.934
592.586
387.329
676.447
851.88
1259
3633.71
4376.16
5433.51
5979.88
4839.53
1993.19
4196.98
6700.98
3655.57
331.461
1286.18
553.244
210.757
487.941
355.615
435.412
981.835
2397.97
2159.72
6837.93
6155.46
7649.26
8181.96
9615.48
6410.26
3503.61
8943.71
8889.85
2787.67
686.758
4242.93
701.348
684.858
1349.35
517.354
2058.93
5052.39
8506
7402.86
9713.05
8750.9
9660.45
9969.7
10132.8
9500.76
4018.98
2425.1
3794.29
3714.56
7459.92
9511.76
5087.13
10319.6
4863.3
10411.2
3949.75
4241.19
3631.95
10581.7
9468.49
6306.57
3233.8
4869.97
9891.49
3956.01
5932.03
8646.68
9081.7
3212.73
10730.1
3996.93
3166.62
5471.29
10593.4
9254
8952.92
6124.76
6554.54
730.403
5046.79
4056.77
8623.1
5053.54
10013.6
9075.97
10298
1263.18
155.642
1097.33
8172.59
5940.75
8414.04
9647.25
9201.49
9419.05
10936.8
9300.43
5308.89
8244.06
8503.04
10116.8
9927.55
9091.51
11219.5
11304.7
9164.77
10349.1
9689.24
10776.3
5.75068
5922.7
464.213
3665.67
1420.27
8597.04
6286.61
12070.7
12247.5
12620.1
12885.3
12567.7
12635.8
12577.4
11680.4
2347.79
9686.73
8715.09
8982.95
10703.6
8040.67
9362.42
11765.4
10398
10767.2
11837.1
10162.3
12786.3
11927.1
12346.6
10100.3
10293
9585.25
12595
10985.8
10963
6897.57
8338.98
11188.8
10356.9
9709.58
8862.29
9870.96
11653.1
12139.6
10679.9
10566.4
7277.39
12991.9
11330.3
11094.9
8810
9409.51
6115.11
5120.55
9789.02
8035.06
1780.23
668.248
4107.67
179.015
10173
10519.9
10151.9
10070
10456.4
10263.1
6603.35
6305.77
5.91503
1141.52
1910.46
10524.7
10068.3
10497.8
10489.6
9788.55
7061.38
9715.66
8619.81
4453.95
8864.48
10475
9713.98
6187.23
10558.3
8519.32
10762.4
2099.48
10610.2
2411.15
12327.9
12186
12162
7099.35
11498.7
11723.4
10922.5
9385.41
8780.22
843.692
80.2033
213.919
0
0
0
11120.6
1293.44
184.104
8290.4
102.028
11195.3
13714
11856.7
13134.5
11846.9
11391.6
12106.8
11316.4
10904.2
11334.4
10359.6
11272.1
11506.6
10804.7
9933.54
6930.29
11221.2
5377.72
11533.6
11044.7
10260.3
10678.8
10805.5
9689.87
7208.6
2018.85
307.286
76.8957
1456.11
81.8918
42.4979
3.82294
1.62155
0
9898.96
9817.85
10827.3
6150.15
6656.14
7830.76
667.968
219.299
30.1943
783.239
63.2284
11026.8
9953.86
6994.69
5630.19
3650.53
684.383
7773.88
1846.73
276.081
6294.63
8824.43
2416.52
58.1145
2568.92
49.0348
185.567
5.49341
43.7511
0
10326
10859.5
9100.31
520.032
8275.26
9848.33
6832.93
4036.83
0
0
0
0
0
0
0
3755.48
117.777
34.7582
2312.22
85.4158
9829.42
3053.51
1649.22
9207.51
3282.33
4866.3
4107.13
1827.63
807.03
7156.15
1618.99
3697.52
1134.37
96.8693
269.195
8.49335
251.37
164.608
1670.22
835.816
700.186
159.633
251.979
204.946
215.365
0
65.9523
0.287744
3.99122
0
417.216
47.2264
0
31.475
323.246
369.866
302.279
91.7823
41.2611
42.0017
1084.81
127.498
740.903
1456.9
160.77
40.545
22.3974
77.5694
23.4319
33.2723
274.664
4888.07
1788.36
340.251
2861.32
3.19103
2.30754
0
0
0
0
0
0
0
7560.73
8501.75
5068.84
347.494
7979.58
8055.45
6047.87
4059.24
0
0
0
0
0
4.13747
1.18075
1998.33
114.594
21.0132
1687.33
133.687
8560.72
271.921
30.0533
4755.91
1037.65
1592.72
4436.59
216.302
1248.88
1461.96
472.291
3727.2
2288.48
1039.48
0
0.641464
86.5211
69.0886
63.015
118.73
61.4147
25.1078
31.4577
56.1982
71.0889
4.78005
232.03
73.1838
9.59749
1.15889
222.317
27.697
59.2957
130.17
62.134
35.0027
54.5572
80.3986
28.604
36.7497
1599.4
320.319
848.203
1349.05
478.518
23.2652
18.982
38.2004
0
17.4532
308.865
1795.7
2694
356.24
1824.05
8.76148
0.358809
0
0
0
0
0
0
0
9213.19
4787.97
6016.22
441.461
9191.7
4695.65
8139.66
3422.82
0
0
-1.19897e-15
-2.1005e-15
0
0
45.7874
2033.74
121.784
31.5479
1788.39
176.659
5137.49
6.09734
20.0763
3222.4
59.5476
277.633
1729.64
26.8849
79.1451
2033.72
2819.04
4974.74
803.092
2756.88
164.951
674.951
33.3011
48.0156
3.25422
33.9175
40.3078
0
14.0103
22.1959
11.7721
0
305.943
59.6909
2005.33
50.0588
789.293
609.241
121.633
140.288
38.0525
53.4237
30.5628
44.6003
26.877
24.3857
3339.06
1461.65
8409.8
757.846
10175
394.149
10257.6
17568.9
13297.6
11263.6
23058.1
24710.8
19497.9
17028
10.2817
20.6091
14.0885
5.37292
23.0221
7785.69
4387.37
2803.47
3169.09
12758.3
16079.9
9747.79
9877.22
11142.6
5170.14
7056.35
15453.3
31936.8
17301.5
8.42807
11.8029
4.37144
0
0
0
0
0
5.27199
8968.16
5426.76
7279.73
698.36
7467.79
12381.7
8112.48
2535.42
0
0
0
36.8989
0
4.77582
102.778
2307.66
235.683
140.487
3149.98
332.286
7214.03
8.72944
24.9076
647.963
22.9127
34.1436
283.806
16.0381
39.64
459.279
1160.54
1559.73
331.062
485.716
767.486
401.987
8.22835
16.7572
5.79465
22.341
32.8659
12.6535
3.69965
5.63653
20.4788
462.315
276.313
796.25
684.418
646.445
234.103
597.729
279.405
798.176
335.79
22.6857
9859.6
17191.8
112.01
492.79
40.6278
32.145
29.1409
51.6462
30.7972
33.7608
1557.62
33.1777
4825.19
549.141
178.636
73.7296
1181.63
16348.2
15930.6
7957.62
377.071
2971.75
4896.03
9395.88
43.6255
25.9654
71.687
39.4044
8.96762
17354.5
7389.77
15676.7
25.5728
5033.57
644.823
11394.6
24209
11379.6
10803.1
9716.05
9231.7
10645.8
8909.24
0
14.7294
0
0
0
4.24385
0
0
5.36795
3896.06
9228.01
8567.27
322.918
2400.33
3769.73
20246.7
8864.48
8124.85
10167.6
10984.9
9035.74
2560.66
9.20804
0
4.80821
143.261
0.424593
23.433
231.978
2854.29
444.45
175.968
1161.63
625.436
5729.19
0
0
229.223
16.1321
62.9584
283.702
5.77394
46.1681
262.738
288.658
282.942
164.402
188.888
244.738
192.479
10.3833
7.55754
3.86135
14.7775
9.31978
0
3.76785
1.32136
13.1346
401.239
177.513
461.184
151.37
156.114
151.411
315.965
226.086
16.4794
147.879
8.97452
0
0.208509
0
0
27.6769
53.183
29.1833
3.59976
24.4136
38.986
183.351
117.862
444.16
336.607
163.934
189.503
473.69
35.7196
305.922
2277.08
0.253801
0
32.9527
6.69039
42.8662
19.0657
16.2034
17.7764
3.7258
621.209
70.3022
2785.46
38.223
421.848
184.339
178.343
8283.58
8596.65
8834.71
82.5879
465.067
238.756
1523.76
11.8599
3.00681
0
0
0
4.399
9.71163
0
0
1353.91
563.436
6793.71
132.887
1124.14
88.1595
749.204
3473.96
1028.06
70.9943
9463.53
1141.66
4164.26
0
0
23.6449
274.325
29.787
49.6896
253.899
299.678
535.078
142.043
134.777
455.734
45.9094
7.87325
8.81745
159.788
13.5022
29.3062
90.5426
4.76848
31.8126
77.1523
134.791
46.5049
49.9514
46.3016
97.1251
32.2659
8.73055
8.82639
3.86912
4.09079
6.29047
0
2.66167
7.79251
-9.42293e-17
87.3794
178.405
176.801
92.003
17.186
100.198
155.74
140.159
128.618
15.2899
27.0941
13.5178
4.82128
4.60865
4.17851
121.426
172.744
417.271
254.299
68.7598
183.113
392.204
0
0.021909
0
0
0
0
0
18.2644
11.0456
8.53545
6.30013
23.1005
503.534
278.932
222.015
140.283
607.479
318.051
241.778
0
0
0
0
0
0
0
18.5239
0
0
0
0
0
3.57277
0
5.82452
250.017
65.2076
122.76
39.431
75.0282
39.5399
142.369
305.806
0
21.9189
78.1342
285.631
91.1735
103.908
195.431
120.317
299.718
106.708
74.2714
199.641
19.6981
0
0.398254
42.2379
3.14008
19.7514
18.7756
13.0526
8.96865
30.3436
21.6296
41.6995
28.2554
42.6818
0.545654
6.69413
0
9.3545
1.3659
3.83132
4.90103
0
0
8.05479
0
1.11551
59.5419
40.5919
22.2933
-2.7266e-16
46.984
33.3659
51.0728
33.7366
4.8909
13.4273
21.5402
8.64927
0
12.771
168.811
269.483
58.9552
128.363
335.63
11.2767
11.2292
42.2625
25.5507
12.1629
692.288
223.183
150.591
4120.19
160.305
0
10.2999
8.2197
8.67222
3.70474
0
4.14542
9.33964
8.76923
56.1409
18.3211
60.9585
40.2998
18.3552
24.2764
61.4779
174.658
92.9806
74.7253
107.168
150.774
88.3479
93.184
160.765
39.7557
179.824
56.5618
7.22158
68.8503
34.1856
8.7406
0
31.0821
-1.43073e-15
18.0442
22.3287
0
29.8751
60.8387
34.2545
15.8783
64.6718
35.0159
7.24749
0
0
0.362325
4.13312
0
10.262
15.2015
4.22016
8.65165
4.84472
12.4067
17.0199
26.9799
6.78882
0
7.44028
0.323498
9.40937
14.3905
5.08171
0
4.39039
0
0.889554
12.5477
86.9458
297.595
40.7446
74.1716
190.508
100.854
228.108
13.33
7.04788
52.3736
1752.09
150.68
109.789
806.604
95.4565
136.26
82.4431
37.7131
105.548
61.9861
66.9824
42.8745
131.201
63.1704
21.9284
13.0409
21.4796
25.6627
30.9411
14.9352
22.4676
77.5287
182.143
148.152
113.607
112.606
86.95
61.3971
44.6729
12.0942
18.198
6.8857
0
0
20.7724
0
0.38872
11.4388
5.05201
7.51969
0
0
7.77558
83.0493
61.4928
27.0643
75.8434
29.7736
7.04931
7.02347
0
0
0
0
0
0
3.85692
4.29311
5.00064
0
17.4832
7.76901
8.27723
0
8.39285
8.82803
0
0
0
0
4.72867
0
0
4.57999
68.9487
87.5399
26.2805
61.7432
52.4694
4.76361
13.7327
14.7725
12.2558
0
448.361
56.6341
89.5915
194.223
40.9605
12.3566
0
48.3707
78.7599
57.3249
31.7192
88.7145
28.7448
89.7993
24.4856
11.2815
15.1831
10.5652
11.3608
4.16024
14.6448
44.5117
139.986
51.7626
19.946
13.4806
40.5683
2.9678
13.8944
17.3236
0.552152
7.91135
8.40938
12.0538
13.6837
9.13463
0
0
0
24.6451
2.67569
4.09468
17.8667
61.8331
20.5661
21.5049
36.2956
30.4797
0
30.167
-5.6393e-15
0
0
4.21544
0
0
4.11915
0
0
0
11.7008
5.94335
10.174
6.33425
10.6633
6.18776
0
0
0
0
0
0
10.1841
0
24.2432
86.3373
11.8165
30.2177
101.376
4.26509
6.1463
19.7121
7.01544
15.6963
193.439
51.6878
85.4584
162.391
33.2533
3.76085
0
30.8776
31.3172
7.58457
0
11.7038
16.549
7.86786
14.4409
8.7267
25.4234
3.51647
4.23872
2.89885
5.04012
1.06128
18.3011
4.02605
0.162274
0
0.751935
8.23402
0
4.43349
13.627
0
4.40241
0
4.55003
0
9.52711
18.7757
1.06629
3.83716
0
0
7.64258
6.45146
22.6506
0
3.78214
11.525
16.3706
15.3548
0
0
0
0
0
0
0
0
0
0
28.1933
5.64975
18.1028
0
15.1571
0
9.41257
0
0
0
0
5.72733
0
0
26.3802
89.5363
18.7472
9.34161
77.6086
2.99421
0
0
0
5.74016
203.914
34.072
26.4879
219.497
39.2039
0
11.6938
0
16.5414
3.08343
0
0
0
1.47827
4.01723
4.86025
12.3178
3.50128
1.5726
2.85796
2.24757
3.56331
0
9.56776
4.14116
0
0
0.243354
0
4.42841
0
1.03648
2.934
0
6.22535
9.46597
0
0
0
0
0
0
0
5.83479
6.50402
0
0.0954079
9.6144
24.7998
14.7485
0
0
0
0
0
0
0
0
0
0
25.8955
0
26.6334
0.231156
10.7715
8.92374
9.06374
17.3647
0
0
0
0
0
4.70997
21.7266
145.422
3.29324
38.3088
101.924
0
0.182155
0
0
0
180.307
15.8334
26.6478
141.734
29.503
0
0
5.64173
3.12184
0
5.2339
0
5.70328
0
2.77593
0
0
3.2405
3.71781
2.0253
0
3.6843
0
0
4.17919
0
0
0
0
0
0
0
0
0
0
0
0
0
0
0
0
0
0
0
6.51221
0
0
0
13.6145
6.82751
0
0
0
0
0
0
0
0
0
6.23943
18.1968
5.94146
22.8183
16.9411
15.7444
3.30489
8.8005
25.5843
0
0
0
0
0
0
31.2493
120.862
18.6475
31.8085
138.633
0
6.08686
0
4.94393
0
79.6285
5.33395
22.2827
75.3707
13.9115
0
11.6029
0
17.1233
0.143317
0
0
0
0
2.48675
0
0
0
0
0
0
0
0
0
0
0
0
0
14.259
4.14394
0
0
0
0
0
0
0
0
0
0
0
0
0
0
0
0
2.71729
0
15.346
10.6514
0
0
0
0
0
0
0
0
0
9.32797
5.4093
21.7375
5.22143
56.9686
2.57028
35.7928
15.8821
28.5209
0
0
0
0
0
0
33.9932
101.294
68.7034
25.0164
97.3718
0
0
0
0
0
26.2699
2.15001
7.99442
7.85208
0
0
0
0
0
0
0
0
0
0
2.60144
0
0
2.97397
0.246705
0
0
1.75986
0
0
0
0
0
0
0
0
0
0
0
0
0
0
2.90737
0
0
0
0
0
0
0
0
0
0
0
6.34151
0
0
0
0
0
0
0
3.12123
0
0
23.559
0
14.4006
3.00995
17.9342
0
24.9053
21.063
61.2506
0
0
0
0
0
0
26.592
20.5734
10.4962
12.627
0
0
0
0
0
0
0
0
0
0
0
0
12.1352
0
0
0
0
0
0
0
0
0
0
3.05671
0
0
0
0
0
0
0
0
0
0
0
0
0
0
0
0
0
0
0
0
0
0
0
0
0
0
0
0
0
0
0.185237
0
0
0
0
0
0
0
0
0
0
14.2894
0
6.32271
0
16.6582
0
-9.98009e-16
50.0491
7.88698
0
0
0
0
0
0
2.24215
0
6.81569
0.365528
0
0
0
0
0
0
0
0
0
0
0
0
0
0
0
0
0
0
0
0
0
0
0
0
0
0
0
0
0
0
0
0
0
0
0
0
0
0
0
0
0
0
0
0
0
0
0
0
0
0
0
0
0
0
0
0
0
0
0
0
0
0
0
0
0
0
0.192117
9.76262
0
5.88308
0
6.12529
7.84585
0
0
0
0
0
0
0
0
0
0
0
0
0
0
0
0
0
0
0
0
0
0
0
0
0
0
0
0
0
0
0
0
0
0
0
0
0
0
0
0
0
0
0
0
0
0
0
0
0
0
0
0
0
0
0
0
0
0
0
0
0
0
0
0
0
0
0
0
0
0
0
0
0
0
0
0
0
0
0
0
0
0
0
0
0
0
0
0
0
0
0
0
0
0
0
0
0
0
0
0
0
0
0
0
0
0
0
0
0
0
0
0
0
0
0
0
0
0
0
0
0
0
0
0
0
0
4.62276
0
0
8.97457
0
0
0
0
0
0
0
0
0
0
0
0
0
0
0
0
0
0
0
0
0
0
0
0
0
0
0
0
0
0
0
0
0
0
0
0
0
0
0
0
0
0
0
0
0
0
0
0.0944632
2.9561
0
0
0
0
0
0
0
0
0
0
0
0
0
0
0
0
0
0
0
0
0
0
0
0
0
0
0
0
0
0
0
0
0
0
0
0
0
0
0
0
0
0
0
0
0
0
0
0
0
0
0
0
0
0
0
0
0
0
0
0
0
0
0
0
0
0
0
0
0
0
0
0
0
0
0
0
0
0
0
0
0
0
0
0
0
0
0
0
0
0
0
0
0
0
0
0
0
0
0
0
0
0
0
0
0
0
0
0
0
0
0
0
0
0
0
0
0
0
0
0
0
0
0
0
0
0
0
0
0
0
0
0
0
0
0
0
0
0
0
0
0
0
0
0
0
0
0
0
0
0
0
0
0
0
0
0
0
0
0
0
0
0
0
0
0
0
0
0
0
0
0
0
0
0
0
0
0
0
0
0
0
0
0
0
0
0
0
0
0
0
0
0
0
0
0
0
0
0
0
0
0
0
0
0
0
0
0
0
0
0
0
0
0
0
0
0
0
0
0
0
0
0
0
0
0
0
0
0
0
0
0
0
0
0
0
0
0
0
0
0
0
0
0
0
0
0
0
0
0
0
0
0
0
0
0
0
0
0
0
0
0
0
0
0
0
0
0
0
0
0
0
0
0
0
0
0
0
0
0
0
0
0
0
0
0
0
0
0
0
0
0
0
0
0
0
0
0
0
0
0
0
0
0
0
0
0
0
0
0
0
0
0
0
0
0
0
0
0
0
0
0
0
0
0
0
0
0
0
0
0
0
0
0
0
0
0
0
0
0
0
0
0
0
0
0
0
0
0
0
0
0
0
0
0
0
0
0
0
0
0
0
0
0
0
0
0
0
0
0
0
0
0
0
0
0
0
0
0
0
0
0
0
0
0
0
0
0
0
0
0
0
0
0
0
0
0
0
0
0
0
0
0
0
0
0
0
0
0
0
0
0
0
0
0
0
0
0
0
0
0
0
0
0
0
0
0
0
0
0
0
0
0
0
0
0
0
0
0
0
0
0
0
0
0
0
0
0
0
0
0
0
0
0
0
0
0
0
0
0
0
0
0
0
0
0
0
0
0
0
0
0
0
0
0
0
0
0
0
0
0
0
0
0
0
0
0
0
0
0
0
0
0
0
0
0
0
0
0
0
0
0
0
0
0
0
0
0
0
0
0
0
0
0
0
0
0
0
0
0
0
0
0
0
0
0
0
0
0
0
0
0
0
0
0
0
0
0
0
0
0
0
0
0
0
0
0
0
0
0
0
0
0
0
0
0
0
0
0
0
0
0
0
0
0
0
0
0
0
0
0
0
0
0
0
0
0
0
0
0
0
0
0
0
0
0
0
0
0
0
0
0
0
0
0
0
0
0
0
0
0
0
0
0
0
0
0
0
0
0
0
0
0
0
0
0
0
0
0
0
0
0
0
0
0
0
0
0
0
0
0
0
0
0
0
0
0
0
0
0
0
0
0
0
0
0
0
0
0
0
0
0
0
0
0
0
0
0
0
0
0
0
0
0
0
0
0
0
0
0
0
0
0
0
0
0
0
0
0
0
0
0
0
0
0
0
0
0
0
0
0
0
0
0
0
0
0
0
0
0
0
0
0
0
0
0
0
0
0
0
0
0
0
0
0
0
0
0
0
0
0
0
0
0
0
0
0
0
0
0
0
0
0
0
0
0
0
0
0
0
0
0
0
0
0
0
0
0
0
0
0
0
0
0
0
0
0
0
0
0
0
0
0
0
0
0
0
0
0
0
0
0
0
0
0
0
0
0
0
0
0
0
0
0
0
0
0
0
0
0
0
0
0
0
0
0
0
0
0
0
0
0
0
0
0
0
0
0
0
0
0
0
0
0
0
0
0
0
0
0
0
0
0
0
0
0
0
0
0
0
0
0
0
0
0
0
0
0
0
0
0
0
0
0
0
0
0
0
0
0
0
0
0
0
0
0
0
0
0
0
0
0
0
0
0
0
0
0
0
0
0
0
0
0
0
0
0
0
0
0
0
0
0
0
0
0
0
0
0
0
0
0
0
0
0
0
0
0
0
0
0
0
0
0
0
0
0
0
0
0
0
0
0
0
0
0
0
0
0
0
0
0
0
0
0
0
0
0
0
0
0
0
0
0
0
0
0
0
0
0
0
0
0
0
0
0
0
0
0
0
0
0
0
0
0
0
0
0
0
0
0
0
0
0
0
0
0
0
0
0
0
0
0
0
0
0
0
0
0
0
0
0
0
0
0
0
0
0
0
0
0
0
0
0
0
0
0
0
0
0
0
0
0
0
0
0
0
0
0
0
0
0
0
0
0
0
0
0
0
0
0
0
0
0
0
0
0
0
0
0
0
0
0
0
0
0
0
0
0
0
0
0
0
0
0
0
0
0
0
0
0
0
0
0
0
0
0
0
0
0
0
0
0
0
0
0
0
0
0
0
0
0
0
0
0
0
0
0
0
0
0
0
0
0
0
0
0
0
0
0
0
0
0
0
0
0
0
0
0
0
0
0
0
0
0
0
0
0
0
0
0
0
0
0
0
0
0
0
0
0
0
0
0
0
0
0
0
0
0
0
0
0
0
0
0
0
0
0
0
0
0
0
0
0
0
0
0
0
0
0
0
0
0
0
0
0
0
0
0
0
0
0
0
0
0
0
0
0
0
0
0
0
0
0
0
0
0
0
0
0
0
0
0
0
0
0
0
0
0
0
0
0
0
0
0
0
0
0
0
0
0
0
0
0
0
0
0
0
0
0
0
0
0
0
0
0
0
0
0
0
0
0
0
0
0
0
0
0
0
0
0
0
0
0
0
0
0
0
0
0
0
0
0
0
0
0
0
0
0
0
0
0
0
0
0
0
0
0
0
0
0
0
0
0
0
0
0
0
0
0
0
0
0
0
0
0
0
0
0
0
0
0
0
0
0
0
0
0
0
0
0
0
0
0
0
0
0
0
0
0
0
0
0
0
0
0
0
0
0
0
0
0
0
0
0
0
0
0
0
0
0
0
0
0
0
0
0
0
0
0
0
0
0
0
0
0
0
0
0
0
0
0
0
0
0
0
0
0
0
0
0
0
0
0
0
0
0
0
0
0
0
0
0
0
0
0
0
0
0
0
0
0
0
0
0
0
0
0
0
0
0
0
0
0
0
0
0
0
0
0
0
0
0
0
0
0
0
0
0
0
0
0
0
0
0
0
0
0
0
0
0
0
0
0
0
0
0
0
0
0
0
0
0
0
0
0
0
0
0
0
0
0
0
0
0
0
0
0
0
0
0
0
0
0
0
0
0
0
0
0
0
0
0
0
0
0
0
0
0
0
0
0
0
0
0
0
0
0
0
0
0
0
0
0
0
0
0
0
0
0
0
0
0
0
0
0
0
0
0
0
0
0
0
0
0
0
0
0
0
0
0
0
0
0
0
0
0
0
0
0
0
0
0
0
0
0
0
0
0
0
0
0
0
0
0
0
0
0
0
0
0
0
0
0
0
0
0
0
0
0
0
0
0
0
0
0
0
0
0
0
0
0
0
0
0
0
0
0
0
0
0
0
0
0
0
0
0
0
0
0
0
0
0
0
0
0
0
0
0
0
0
0
0
0
0
0
0
0
0
0
0
0
0
0
0
0
0
0
0
0
0
0
0
0
0
0
0
0
0
0
0
0
0
0
0
0
0
0
0
0
0
0
0
0
0
0
0
0
0
0
0
0
0
0
0
0
0
0
0
0
0
0
0
0
0
0
0
0
0
0
0
0
0
0
0
0
0
0
0
0
0
0
0
0
0
0
0
0
0
0
0
0
0
0
0
0
0
0
0
0
0
0
0
0
0
0
0
0
0
0
0
0
0
0
0
0
0
0
0
0
0
0
0
0
0
0
0
0
0
0
0
0
0
0
0
0
0
0
0
0
0
0
0
0
0
0
0
0
0
0
0
0
0
0
0
0
0
0
0
0
0
0
0
0
0
0
0
0
0
0
0
0
0
0
0
0
0
0
0
0
0
0
0
0
0
0
0
0
0
0
0
0
0
0
0
0
0
0
0
0
0
0
0
0
0
0
0
0
0
0
0
0
0
0
0
0
0
0
0
0
0
0
0
0
0
0
0
0
0
0
0
0
0
0
0
0
0
0
0
0
0
0
0
0
0
0
0
0
0
0
0
0
0
0
0
0
0
0
0
0
0
0
0
0
0
0
0
0
0
0
0
0
0
0
0
0
0
0
0
0
0
0
0
0
0
0
0
0
0
0
0
0
0
0
0
0
0
0
0
0
0
0
0
0
0
0
0
0
0
0
0
0
0
0
0
0
0
0
0
0
0
0
0
0
0
0
0
0
0
0
0
0
0
0
0
0
0
0
0
0
0
0
0
0
0
0
0
0
0
0
0
0
0
0
0
0
0
0
0
0
0
0
0
0
0
0
0
0
0
0
0
0
0
0
0
0
0
0
0
0
0
0
0
0
0
0
0
0
0
0
0
0
0
0
0
0
0
0
0
0
0
0
0
0
0
0
0
0
0
0
0
0
0
0
0
0
0
0
0
0
0
0
0
0
0
0
0
0
0
0
0
0
0
0
0
0
0
0
0
0
0
0
0
0
0
0
0
0
0
0
0
0
0
0
0
0
0
0
0
0
0
0
0
0
0
0
0
0
0
0
0
0
0
0
0
0
0
0
0
0
0
0
0
0
0
0
0
0
0
0
0
0
0
0
0
0
0
0
0
0
0
0
0
0
0
0
0
0
0
0
0
0
0
0
0
0
0
0
0
0
0
0
0
0
0
0
0
0
0
0
0
0
0
0
0
0
0
0
0
0
0
0
0
0
0
0
0
0
0
0
0
0
0
0
0
0
0
0
0
0
0
0
0
0
0
0
0
0
0
0
0
0
0
0
0
0
0
0
0
0
0
0
0
0
0
0
0
0
0
0
0
0
0
0
0
0
0
0
0
0
0
0
0
0
0
0
0
0
0
0
0
0
0
0
0
0
0
0
0
0
0
0
0
0
0
0
0
0
0
0
0
0
0
0
0
0
0
0
0
0
0
0
0
0
0
0
0
0
0
0
0
0
0
0
0
0
0
0
0
0
0
0
0
0
0
0
0
0
0
0
0
0
0
0
0
0
0
0
0
0
0
0
0
0
0
0
0
0
0
0
0
0
0
0
0
0
0
0
0
0
0
0
0
0
0
0
0
0
0
0
0
0
0
0
0
0
0
0
0
0
0
0
0
0
0
0
0
0
0
0
0
0
0
0
0
0
0
0
0
0
0
0
0
0
0
0
0
0
0
0
0
0
0
0
0
0
0
0
0
0
0
0
0
0
0
0
0
0
0
0
0
0
0
0
0
0
0
0
0
0
0
0
0
0
0
0
0
0
0
0
0
0
0
0
0
0
0
0
0
0
0
0
0
0
0
0
0
0
0
0
0
0
0
0
0
0
0
0
0
0
0
0
0
0
0
0
0
0
0
0
0
0
0
0
0
0
0
0
0
0
0
0
0
0
0
0
0
0
0
0
0
0
0
0
0
0
0
0
0
0
0
0
0
0
0
0
0
0
0
0
0
0
0
0
0
0
0
0
0
0
0
0
0
0
0
0
0
0
0
0
0
0
0
0
0
0
0
0
0
0
0
0
0
0
0
0
0
0
0
0
0
0
0
0
0
0
0
0
0
0
0
0
0
0
0
0
0
0
0
0
0
0
0
0
0
0
0
0
0
0
0
0
0
0
0
0
0
0
0
0
0
0
0
0
0
0
0
0
0
0
0
0
0
0
0
0
0
0
0
0
0
0
0
0
0
0
0
0
0
0
0
0
0
0
0
0
0
0
0
0
0
0
0
0
0
0
0
0
0
0
0
0
0
0
0
0
0
0
0
0
0
0
0
0
0
0
0
0
0
0
0
0
0
0
0
0
0
0
0
0
0
0
0
0
0
0
0
0
0
0
0
0
0
0
0
0
0
0
0
0
0
0
0
0
0
0
0
0
0
0
0
0
0
0
0
0
0
0
0
0
0
0
0
0
0
0
0
0
0
0
0
0
0
0
0
0
0
0
0
0
0
0
0
0
0
0
0
0
0
0
0
0
0
0
0
0
0
0
0
0
0
0
0
0
0
0
0
0
0
0
0
0
0
0
0
0
0
0
0
0
0
0
0
0
0
0
0
0
0
0
0
0
0
0
0
0
0
0
0
0
0
0
0
0
0
0
0
0
0
0
0
0
0
0
0
0
0
0
0
0
0
0
0
0
0
0
0
0
0
0
0
0
0
0
0
0
0
0
0
0
0
0
0
0
0
0
0
0
0
0
0
0
0
0
0
0
0
0
0
0
0
0
0
0
0
0
0
0
0
0
0
0
0
0
0
0
0
0
0
0
0
0
0
0
0
0
0
0
0
0
0
0
0
0
0
0
0
0
0
0
0
0
0
0
0
0
0
0
0
0
0
0
0
0
0
0
0
0
0
0
0
0
0
0
0
0
0
0
0
0
0
0
0
0
0
0
0
0
0
0
0
0
0
0
0
0
0
0
0
0
0
0
0
0
0
0
0
0
0
0
0
0
0
0
0
0
0
0
0
0
0
0
0
0
0
0
0
0
0
0
0
0
0
0
0
0
0
0
0
0
0
0
0
0
0
0
0
0
0
0
0
0
0
0
0
0
0
0
0
0
0
0
0
0
0
0
0
0
0
0
0
0
0
0
0
0
0
0
0
0
0
0
0
0
0
0
0
0
0
0
0
0
0
0
0
0
0
0
0
0
0
0
0
0
0
0
0
0
0
0
0
0
0
0
0
0
0
0
0
0
0
0
0
0
0
0
0
0
0
0
0
0
0
0
0
0
0
0
0
0
0
0
0
0
0
0
0
0
0
0
0
0
0
0
0
0
0
0
0
0
0
0
0
0
0
0
0
0
0
0
0
0
0
0
0
0
0
0
0
0
0
0
0
0
0
0
0
0
0
0
0
0
0
0
0
0
0
0
0
0
0
0
0
0
0
0
0
0
0
0
0
0
0
0
0
0
0
0
0
0
0
0
0
0
0
0
0
0
0
0
0
0
0
0
0
0
0
0
0
0
0
0
0
0
0
0
0
0
0
0
0
0
0
0
0
0
0
0
0
0
0
0
0
0
0
0
0
0
0
0
0
0
0
0
0
0
0
0
0
0
0
0
0
0
0
0
0
0
0
0
0
0
0
0
0
0
0
0
0
0
0
0
0
0
0
0
0
0
0
0
0
0
0
0
0
0
0
0
0
0
0
0
0
0
0
0
0
0
0
0
0
0
0
0
0
0
0
0
0
0
0
0
0
0
0
0
0
0
0
0
0
0
0
0
0
0
0
0
0
0
0
0
0
0
0
0
0
0
0
0
0
0
0
0
0
0
0
0
0
0
0
0
0
0
0
0
0
0
0
0
0
0
0
0
0
0
0
0
0
0
0
0
0
0
0
0
0
0
0
0
0
0
0
0
0
0
0
0
0
0
0
0
0
0
0
0
0
0
0
0
0
0
0
0
0
0
0
0
0
0
0
0
0
0
0
0
0
0
0
0
0
0
0
0
0
0
0
0
0
0
0
0
0
0
0
0
0
0
0
0
0
0
0
0
0
0
0
0
0
0
0
0
0
0
0
0
0
0
0
0
0
0
0
0
0
0
0
0
0
0
0
0
0
0
0
0
0
0
0
0
0
0
0
0
0
0
0
0
0
0
0
0
0
0
0
0
0
0
0
0
0
0
0
0
0
0
0
0
0
0
0
0
0
0
0
0
0
0
0
0
0
0
0
0
0
0
0
0
0
0
0
0
0
0
0
0
0
0
0
0
0
0
0
0
0
0
0
0
0
0
0
0
0
0
0
0
0
0
0
0
0
0
0
0
0
0
0
0
0
0
0
0
0
0
0
0
0
0
0
0
0
0
0
0
0
0
0
0
0
0
0
0
0
0
0
0
0
0
0
0
0
0
0
0
0
0
0
0
0
0
0
0
0
0
0
0
0
0
0
0
0
0
0
0
0
0
0
0
0
0
0
0
0
0
0
0
0
0
0
0
0
0
0
0
0
0
0
0
0
0
0
0
0
0
0
0
0
0
0
0
0
0
0
0
0
0
0
0
0
0
0
0
0
0
0
0
0
0
0
0
0
0
0
0
0
0
0
0
0
0
0
0
0
0
0
0
0
0
0
0
0
0
0
0
0
0
0
0
0
0
0
0
0
0
0
0
0
0
0
0
0
0
0
0
0
0
0
0
0
0
0
0
0
0
0
0
0
0
0
0
0
0
0
0
0
0
0
0
0
0
0
0
0
0
0
0
0
0
0
0
0
0
0
0
0
0
0
0
0
0
0
0
0
0
0
0
0
0
0
0
0
0
0
0
0
0
0
0
0
0
0
0
0
0
0
0
0
0
0
0
0
0
0
0
0
0
0
0
0
0
0
0
0
0
0
0
0
0
0
0
0
0
0
0
0
0
0
0
0
0
0
0
0
0
0
0
0
0
0
0
0
0
0
0
0
0
0
0
0
0
0
0
0
0
0
0
0
0
0
0
0
0
0
0
0
0
0
0
0
0
0
0
0
0
0
0
0
0
0
0
0
0
0
0
0
0
0
0
0
0
0
0
0
0
0
0
0
0
0
0
0
0
0
0
0
0
0
0
0
0
0
0
0
0
0
0
0
0
0
0
0
0
0
0
0
0
0
0
0
0
0
0
0
0
0
0
0
0
0
0
0
0
0
0
0
0
0
0
0
0
0
0
0
0
0
0
0
0
0
0
0
0
0
0
0
0
0
0
0
0
0
0
0
0
0
0
0
0
0
0
0
0
0
0
0
0
0
0
0
0
0
0
0
0
0
0
0
0
0
0
0
0
0
0
0
0
0
0
0
0
0
0
0
0
0
0
0
0
0
0
0
0
0
0
0
0
0
0
0
0
0
0
0
0
0
0
0
0
0
0
0
0
0
0
0
0
0
0
0
0
0
0
0
0
0
0
0
0
0
0
0
0
0
0
0
0
0
0
0
0
0
0
0
0
0
0
0
0
0
0
0
0
0
0
0
0
0
0
0
0
0
0
0
0
0
0
0
0
0
0
0
0
0
0
0
0
0
0
0
0
0
0
0
0
0
0
0
0
0
0
0
0
0
0
0
0
0
0
0
0
0
0
0
0
0
0
0
0
0
0
0
0
0
0
0
0
0
0
0
0
0
0
0
0
0
0
0
0
0
0
0
0
0
0
0
0
0
0
0
0
0
0
0
0
0
0
0
0
0
0
0
0
0
0
0
0
0
0
0
0
0
0
0
0
0
0
0
0
0
0
0
0
0
0
0
0
0
0
0
0
0
0
0
0
0
0
0
0
0
0
0
0
0
0
0
0
0
0
0
0
0
0
0
0
0
0
0
0
0
0
0
0
0
0
0
0
0
0
0
0
0
0
0
0
0
0
0
0
0
0
0
0
0
0
0
0
0
0
0
0
0
0
0
0
0
0
0
0
0
0
0
0
0
0
0
0
0
0
0
0
0
0
0
0
0
0
0
0
0
0
0
0
0
0
0
0
0
0
0
0
0
0
0
0
0
0
0
0
0
0
0
0
0
0
0
0
0
0
0
0
0
0
0
0
0
0
0
0
0
0
0
0
0
0
0
0
0
0
0
0
0
0
0
0
0
0
0
0
0
0
0
0
0
0
0
0
0
0
0
0
0
0
0
0
0
0
0
0
0
0
0
0
0
0
0
0
0
0
0
0
0
0
0
0
0
0
0
0
0
0
0
0
0
0
0
0
0
0
0
0
0
0
0
0
0
0
0
0
0
0
0
0
0
0
0
0
0
0
0
0
0
0
0
0
0
0
0
0
0
0
0
0
0
0
0
0
0
0
0
0
0
0
0
0
0
0
0
0
0
0
0
0
0
0
0
0
0
0
0
0
0
0
0
0
0
0
0
0
0
0
0
0
0
0
0
0
0
0
0
0
0
0
0
0
0
0
0
0
0
0
0
0
0
0
0
0
0
0
0
0
0
0
0
0
0
0
0
0
0
0
0
0
0
0
0
0
0
0
0
0
0
0
0
0
0
0
0
0
0
0
0
0
0
0
0
0
0
0
0
0
0
0
0
0
0
0
0
0
0
0
0
0
0
0
0
0
0
0
0
0
0
0
0
0
0
0
0
0
0
0
0
0
0
0
0
0
0
0
0
0
0
0
0
0
0
0
0
0
0
0
0
0
0
0
0
0
0
0
0
0
0
0
0
0
0
0
0
0
0
0
0
0
0
0
0
0
0
0
0
0
0
0
0
0
0
0
0
0
0
0
0
0
0
0
0
0
0
0
0
0
0
0
0
0
0
0
0
0
0
0
0
0
103.64
395.521
0
2753.66
51.4767
155.916
2.60635
24.6564
3.69478
63.2764
17.215
199.792
440.493
1579.76
1593.28
3798.72
121.057
6928.88
1163.37
4420.54
11.9651
0
3.97288
37.16
15.5604
524.604
315.229
1133.67
1479.52
1120.61
4618.03
2029.37
4916.99
3307.92
7337.51
6929.92
8182.74
9478.47
7272.79
9390.03
9907.02
10834.2
3.09994
447.946
14.3455
796.162
123.713
697.838
481.724
709.991
384.261
3614.06
1545.94
3202.14
4591.87
7010.88
7659.12
6856.14
9836.93
5977.84
9599.81
8836.06
10679.7
10896.6
11372.1
12480.9
12167.4
12387.2
12334.7
12767.6
7123.21
1818.38
8176.66
7038.29
9086.68
8271.5
7131.09
11939.8
10983.1
12493
10926.4
12336.7
10912.2
12658.4
731.671
395.165
1133.95
10681.6
7412.44
4363.44
4884.3
2624.74
3381.62
4900.17
5527.81
6910.87
5784.12
5435.75
1037.37
5012.37
1207.12
10676.1
4419.37
9134.66
3863.56
3622.13
3295.05
4670.88
6982.77
3624.22
7633.63
3757.54
9644.52
5549.06
3577.77
7682.16
5621.82
1668.69
638.616
9410.46
2114.72
2766.9
6381.86
4381.83
437.871
332.755
4303.99
7817.72
4196.86
5004.22
1733.88
863.049
812.67
3439.76
4970
874.679
254.858
123.352
204.844
23.8282
1903.74
340.499
316.593
342.267
306.037
164.608
292.159
376.737
733.883
776.121
483.923
157.639
225.391
563.468
151.012
0
26.4795
125.768
159.27
27.3209
6.17868
0
1.69817
0
5.17568
0
0
0
277.855
64.1729
77.5968
49.7312
185.171
79.434
24.1353
211.416
111.319
403.274
388.87
271.576
64.2278
263.172
153.722
110.396
78.2932
119.616
88.3833
95.9378
95.5521
17.9581
3.35696
0
26.6027
42.4656
-3.70706e-16
0
27.4273
49.2846
29.3443
28.0938
8.20454
38.6056
10.6424
921.723
70.5426
237.739
32.815
537.708
39.4495
136.107
81.1086
51.5649
111.809
58.3367
91.1748
37.3729
79.8684
27.4906
0.413895
7.87843
12.4306
27.9279
12.1831
0
7.25537
16.6219
0.430103
13.0626
10.9431
16.2655
10.3105
177.848
16.9998
57.1782
12.9641
99.3396
21.0402
37.4708
83.369
76.9039
51.7987
53.0001
72.3329
48.1848
41.4561
15.2695
0.468212
13.6613
23.8931
7.05733
6.61511
2.39414
9.73754
10.8728
9.89987
4.61821
12.5189
11.473
14.7579
101.097
10.1674
18.7734
21.1682
125.234
8.19247
12.2178
70.8979
79.4411
64.6374
10.6329
18.9261
69.2082
111.068
6.64916
10.5129
18.357
39.9627
24.3051
13.7083
14.0535
4.19389
0
4.74325
0
4.11881
5.32625
0
124
7.917
27.986
18.4752
112.887
6.87411
19.5297
5.73411
61.4944
112.546
8.33472
7.59719
15.3939
16.3216
177.787
12.764
6.67781
53.2741
57.7724
6.40683
11.5935
8.64367
0
12.5039
0
12.6579
0
4.76509
85.3343
4.62606
15.8513
28.0866
50.3933
0
21.9955
9.54378
15.3885
4.5123
1.33711
0
0
10.0627
10.2391
6.72914
9.33883
26.13
12.3202
6.4744
15.5152
0.140901
0
0
0