/*--------------------------------*- C++ -*----------------------------------*\
| =========                 |                                                 |
| \\      /  F ield         | OpenFOAM: The Open Source CFD Toolbox           |
|  \\    /   O peration     | Version:  5.x                                   |
|   \\  /    A nd           | Web:      www.OpenFOAM.org                      |
|    \\/     M anipulation  |                                                 |
\*---------------------------------------------------------------------------*/
FoamFile
{
    version     2.0;
    format      ascii;
    class       volScalarField;
    location    "2";
    object      p;
}
// * * * * * * * * * * * * * * * * * * * * * * * * * * * * * * * * * * * * * //

dimensions      [0 2 -2 0 0 0 0];

internalField   nonuniform List<scalar> 
10571
(
63.6812
87.3989
86.9533
103.449
131.681
79.7021
142.194
167.408
180.314
173.037
74.5037
99.0132
176.872
209.006
210.288
181.215
131.207
183.333
204.828
188.495
164.489
142.178
147.042
145.157
41.3221
45.925
43.4507
38.6778
39.1311
43.4047
36.8043
29.624
12.267
49.7357
42.9183
41.43
32.6138
12.3769
12.3765
53.1253
47.7832
31.1279
31.7837
58.1073
54.9488
53.199
48.3469
50.3786
11.3724
4.0898
6.71077
7.29313
2.36133
28.5652
2.38818
1.67125
1.10542
2.01527
32.8815
35.2796
2.12473
1.66054
1.49815
1.98379
8.75544
1.92999
1.72117
2.25085
2.25408
3.31417
3.56827
3.07972
2.70076
2.69074
2.70585
2.67269
2.52473
2.40031
2.31851
2.66801
2.66361
2.43478
2.3275
2.234
2.51453
2.95179
2.75305
2.47328
2.65479
2.51591
2.64739
2.55334
2.52987
2.81212
2.90933
2.80995
2.48654
2.57767
2.51847
2.48449
2.53141
2.57848
2.6593
2.72242
2.48771
2.46866
2.62518
2.66262
2.66082
2.5695
2.47249
2.47445
2.55544
2.52463
2.58096
2.50092
2.49089
2.60269
2.59489
2.59458
2.5154
2.54591
2.5191
2.5092
2.52507
2.58331
2.53498
2.57652
2.51866
2.48355
2.51473
2.60708
2.60857
2.5649
2.54022
2.50352
2.49772
2.50618
2.5446
2.51716
2.52525
2.51932
2.50204
2.54621
2.53426
2.53461
2.53037
2.54345
2.53344
2.52804
2.53744
2.57807
2.54864
2.52594
2.53829
2.50761
2.51475
2.57562
2.58495
2.54418
2.55369
2.51621
2.50804
2.51594
2.5565
2.52979
2.53202
2.50274
2.50962
2.51934
2.52925
2.52916
2.51696
2.52689
2.53876
2.53244
2.53377
2.52916
2.5594
2.56959
2.53462
2.52458
2.50208
2.50715
2.56017
2.56264
2.55247
2.55054
2.51652
2.50973
2.51764
2.55241
2.5305
2.52968
2.4891
2.5011
2.51928
2.53141
2.52539
2.51271
2.52844
2.53723
2.53428
2.53132
2.5206
2.54382
2.56042
2.53782
2.5154
2.50388
2.514
2.54922
2.54705
2.54835
2.53982
2.51827
2.51075
2.52658
2.54186
2.52067
2.52248
2.48195
2.49694
2.52936
2.52052
2.51358
2.52727
2.5325
2.53106
2.52559
2.51298
2.53198
2.53366
2.52539
2.5034
2.50327
2.53725
2.53193
2.53175
2.52442
2.51443
2.51033
2.53078
2.5127
2.52096
2.48784
2.50104
2.5245
2.51785
2.51298
2.52356
2.52014
2.51732
2.51518
2.50965
2.51786
2.50353
2.50739
2.49883
2.50731
2.51975
2.51246
2.51282
2.51437
2.51314
2.50952
2.52028
2.50956
2.52591
2.49731
2.50704
2.51954
2.51997
2.51599
2.51382
2.51068
2.49656
2.49899
2.51347
2.50667
2.48065
2.49644
2.51356
2.5144
2.50798
2.49511
2.50227
2.51624
2.51625
2.51921
2.51095
2.51376
2.52799
2.50937
2.521
2.51987
2.52627
2.52313
2.51275
2.51371
2.50201
2.49709
2.52138
2.50571
2.48433
2.50377
2.53641
2.52677
2.51253
2.49911
2.51226
2.52543
2.53519
2.53233
2.51275
2.5237
2.53569
2.53056
2.53996
2.52674
2.53556
2.53378
2.52422
2.52625
2.52183
2.51326
2.52582
2.51933
2.51238
2.5308
2.54976
2.54036
2.52955
2.51896
2.53342
2.54252
2.55813
2.54535
2.52507
2.54079
2.55184
2.55643
2.55781
2.53889
2.54623
2.5462
2.54045
2.54194
2.54131
2.53436
2.53612
2.54034
2.54043
2.55533
2.55213
2.54899
2.55052
2.5427
2.55318
2.5634
2.56948
2.55594
2.54166
2.55686
2.5658
2.56747
2.56587
2.55149
2.55815
2.55733
2.55305
2.55673
2.55797
2.55226
2.55218
2.55872
2.55896
2.56428
2.55219
2.55292
2.567
2.56308
2.5644
2.57482
2.57315
2.56222
2.55783
2.56908
2.57132
2.56632
2.56712
2.56186
2.56568
2.5653
2.56431
2.56703
2.57034
2.56921
2.56367
2.56692
2.57318
2.56725
2.5512
2.55545
2.57467
2.57153
2.572
2.57548
2.57256
2.5651
2.56847
2.57268
2.57187
2.56629
2.56685
2.56825
2.56855
2.56905
2.57241
2.57198
2.57495
2.5783
2.56796
2.56903
2.57649
2.57218
2.55139
2.55782
2.57824
2.57379
2.5786
2.57309
2.57292
2.56613
2.57294
2.5701
2.57225
2.56608
2.56689
2.56847
2.57018
2.57069
2.57393
2.5735
2.57632
2.57764
2.56926
2.57085
2.57622
2.57293
2.5535
2.56055
2.58071
2.57509
2.57911
2.57361
2.57217
2.5663
2.57413
2.56731
2.5722
2.56696
2.56748
2.5663
2.57062
2.571
2.57292
2.57253
2.57532
2.57635
2.5668
2.57142
2.57431
2.57049
2.55523
2.56336
2.57668
2.57591
2.57851
2.57259
2.57045
2.56632
2.57224
2.56443
2.57022
2.56721
2.56759
2.56369
2.56749
2.56886
2.56975
2.56982
2.57255
2.57164
2.56431
2.56853
2.56999
2.56622
2.55614
2.56615
2.56052
2.56808
2.57605
2.56966
2.56866
2.56612
2.56699
2.56364
2.56913
2.56583
2.56697
2.56542
2.5677
2.56616
2.56507
2.56667
2.56845
2.56583
2.56033
2.56243
2.56403
2.56021
2.55362
2.56756
2.54835
2.5571
2.56922
2.56696
2.56466
2.56618
2.56397
2.56607
2.56879
2.56353
2.5662
2.56727
2.56439
2.56507
2.56055
2.56435
2.56393
2.5604
2.55495
2.56102
2.55555
2.55627
2.5499
2.56703
2.55609
2.54895
2.56406
2.56406
2.56028
2.56805
2.56693
2.56967
2.56651
2.56092
2.5653
2.56771
2.56506
2.56409
2.55767
2.56212
2.55965
2.55668
2.5539
2.56241
2.55007
2.55249
2.5507
2.5643
2.57032
2.56202
2.55821
2.55937
2.55791
2.57139
2.56912
2.56678
2.5616
2.55864
2.56444
2.56597
2.5657
2.56173
2.55617
2.55995
2.55619
2.55436
2.55882
2.562
2.54844
2.55023
2.55871
2.56166
2.59297
2.56282
2.55359
2.55415
2.55717
2.57029
2.56639
2.56051
2.55759
2.55547
2.56274
2.56314
2.56043
2.558
2.55665
2.55861
2.55521
2.55391
2.56152
2.56169
2.55367
2.55157
2.57647
2.56438
2.57176
2.55762
2.54935
2.55178
2.55922
2.56639
2.56208
2.55459
2.55637
2.55395
2.5609
2.56101
2.55727
2.55609
2.55944
2.55866
2.55619
2.5554
2.56035
2.56353
2.56344
2.55566
2.58821
2.56899
2.56664
2.56085
2.5492
2.55427
2.56547
2.5634
2.56068
2.55061
2.55699
2.55464
2.56211
2.55969
2.55772
2.5575
2.56449
2.55968
2.55705
2.55943
2.55978
2.56571
2.56649
2.56193
2.58284
2.57035
2.56699
2.56521
2.55789
2.55948
2.57471
2.56575
2.56092
2.55117
2.56034
2.56042
2.56881
2.56063
2.56162
2.56305
2.5703
2.56191
2.55786
2.56471
2.56225
2.56705
2.56593
2.56787
2.5741
2.56935
2.56711
2.56585
2.56345
2.56732
2.58106
2.5698
2.56064
2.55557
2.5648
2.56834
2.57678
2.56341
2.56719
2.57062
2.5748
2.56564
2.56098
2.56885
2.56582
2.5681
2.56655
2.57242
2.56752
2.56993
2.56699
2.56522
2.56459
2.57398
2.58035
2.57228
2.56153
2.56263
2.56782
2.57222
2.5793
2.56548
2.57103
2.57582
2.57728
2.56988
2.56681
2.57127
2.56901
2.56921
2.56793
2.57457
2.56618
2.57227
2.56693
2.56478
2.5653
2.57544
2.57758
2.57508
2.56339
2.56706
2.56742
2.57443
2.5791
2.56734
2.5719
2.57767
2.57776
2.57359
2.57437
2.57499
2.57408
2.57046
2.57245
2.58029
2.56745
2.5744
2.56703
2.56373
2.56754
2.57556
2.57461
2.5757
2.56568
2.56943
2.56638
2.57549
2.57983
2.57051
2.57041
2.57586
2.57845
2.57571
2.57979
2.57777
2.57604
2.57107
2.5754
2.58503
2.56934
2.5745
2.56727
2.56291
2.57136
2.5764
2.57252
2.57371
2.56861
2.57269
2.5653
2.57183
2.57546
2.57499
2.56939
2.57194
2.57872
2.57565
2.58046
2.57907
2.57598
2.56992
2.57466
2.5824
2.57031
2.57333
2.56765
2.56248
2.57189
2.57688
2.5692
2.5713
2.57157
2.5755
2.56772
2.56764
2.57062
2.57919
2.57057
2.56958
2.57535
2.5742
2.57803
2.57878
2.57442
2.56878
2.57265
2.57778
2.5678
2.57156
2.56932
2.56376
2.57129
2.57381
2.56633
2.56926
2.5736
2.5777
2.57139
2.56555
2.56825
2.5815
2.57331
2.57038
2.56968
2.57283
2.57424
2.57355
2.57204
2.56897
2.56772
2.57381
2.56441
2.57061
2.57155
2.56759
2.56998
2.57025
2.5653
2.56787
2.5768
2.58108
2.57404
2.56668
2.56912
2.5826
2.57646
2.57422
2.56915
2.57278
2.57195
2.56583
2.57065
2.57135
2.56171
2.56954
2.5622
2.5705
2.57194
2.57014
2.56859
2.56866
2.56546
2.56829
2.57997
2.58498
2.57586
2.57197
2.5724
2.58021
2.57826
2.57769
2.58024
2.57349
2.57319
2.57057
2.57038
2.57349
2.5637
2.56536
2.5626
2.57074
2.57155
2.56963
2.56835
2.56905
2.56743
2.571
2.57915
2.58238
2.57844
2.57579
2.57581
2.57768
2.57786
2.57804
2.58354
2.57361
2.57322
2.5737
2.56939
2.57372
2.56878
2.56254
2.56542
2.571
2.57152
2.57043
2.56769
2.56755
2.5693
2.57269
2.57531
2.57807
2.58009
2.57653
2.57706
2.57555
2.57645
2.57671
2.57595
2.57317
2.57213
2.57263
2.5687
2.57252
2.57295
2.56338
2.56821
2.57062
2.57205
2.57001
2.56629
2.56624
2.56871
2.57269
2.57208
2.5734
2.57766
2.57452
2.5755
2.5734
2.5744
2.57439
2.57207
2.57273
2.5713
2.57078
2.5685
2.57118
2.57607
2.5658
2.56975
2.57079
2.57213
2.56921
2.56724
2.56631
2.56707
2.57104
2.57128
2.56849
2.57386
2.57168
2.57192
2.57131
2.57205
2.57172
2.57013
2.57217
2.57102
2.5691
2.5686
2.57198
2.576
2.56763
2.57103
2.57208
2.57358
2.57331
2.57052
2.56645
2.56567
2.56898
2.57192
2.5668
2.5701
2.56848
2.56935
2.56987
2.56983
2.5688
2.56919
2.57125
2.57047
2.56776
2.56887
2.57252
2.57305
2.56861
2.57212
2.57301
2.57321
2.57263
2.57036
2.56601
2.56511
2.56761
2.57162
2.56739
2.56694
2.56583
2.56762
2.56903
2.56752
2.5664
2.56873
2.57004
2.56947
2.56681
2.56918
2.57239
2.56982
2.56912
2.57073
2.57283
2.57202
2.57159
2.57085
2.56481
2.56612
2.56771
2.57072
2.56727
2.56411
2.564
2.56702
2.56822
2.56581
2.5643
2.56857
2.56848
2.56813
2.56598
2.56906
2.57218
2.56697
2.56889
2.56907
2.57148
2.57098
2.57124
2.5744
2.56624
2.56712
2.56844
2.56958
2.56552
2.56117
2.5631
2.56753
2.56761
2.56467
2.56365
2.5687
2.56764
2.56704
2.56528
2.56884
2.5701
2.56366
2.56574
2.56793
2.57016
2.57037
2.57019
2.57372
2.5697
2.56831
2.56889
2.56787
2.5635
2.56037
2.56306
2.56867
2.56706
2.56456
2.56416
2.56861
2.56777
2.56641
2.5655
2.56808
2.56727
2.55964
2.56422
2.5679
2.56882
2.56993
2.56877
2.5717
2.57055
2.56814
2.56887
2.56628
2.56162
2.56124
2.56317
2.56967
2.56641
2.56515
2.56496
2.56794
2.56785
2.56635
2.56583
2.56797
2.5648
2.55899
2.56499
2.56871
2.56834
2.56763
2.56602
2.56861
2.5688
2.56703
2.56847
2.56495
2.5615
2.56216
2.56299
2.56996
2.56584
2.56604
2.56541
2.56665
2.56672
2.56652
2.56569
2.56554
2.56233
2.56071
2.56581
2.56907
2.56758
2.56403
2.56323
2.56577
2.56591
2.56636
2.56763
2.56393
2.56229
2.56305
2.56236
2.56942
2.56534
2.56672
2.56559
2.56548
2.56558
2.56634
2.56476
2.56422
2.56108
2.56253
2.56527
2.56683
2.56615
2.56148
2.56196
2.56326
2.56359
2.56599
2.56625
2.56372
2.56357
2.56365
2.56176
2.56822
2.5649
2.5672
2.56547
2.56516
2.56549
2.56629
2.5642
2.56373
2.56283
2.5639
2.56389
2.56337
2.56458
2.5643
2.56295
2.56134
2.56184
2.56499
2.56478
2.56441
2.56482
2.56364
2.56217
2.56703
2.5646
2.56742
2.56841
2.56505
2.56586
2.56628
2.5643
2.56347
2.56529
2.56541
2.56316
2.56094
2.5635
2.56652
2.56466
2.55978
2.56066
2.56415
2.56382
2.56555
2.56593
2.56301
2.56331
2.56609
2.56417
2.56678
2.57093
2.56503
2.56566
2.56613
2.56439
2.56357
2.56495
2.56704
2.56404
2.56034
2.56329
2.56627
2.56461
2.56047
2.56121
2.56365
2.56357
2.56642
2.56632
2.56259
2.56402
2.56548
2.56436
2.56542
2.57051
2.56459
2.56532
2.56612
2.5642
2.56333
2.56423
2.56762
2.56547
2.56111
2.56335
2.56556
2.56382
2.5624
2.56232
2.56306
2.56357
2.56694
2.5665
2.56247
2.56401
2.5648
2.5656
2.56434
2.56782
2.56371
2.56515
2.56518
2.56361
2.5626
2.56396
2.56635
2.56535
2.56094
2.5618
2.56582
2.56329
2.5644
2.56319
2.56133
2.56205
2.56763
2.56766
2.56275
2.56342
2.56352
2.56742
2.56442
2.56555
2.56258
2.56551
2.56375
2.56184
2.56071
2.56443
2.5649
2.56438
2.55897
2.55922
2.56722
2.56376
2.56587
2.56328
2.55875
2.55909
2.56875
2.56928
2.56383
2.56322
2.56118
2.56926
2.56561
2.56437
2.56163
2.56681
2.56328
2.56058
2.55775
2.566
2.56384
2.56265
2.55502
2.55464
2.5698
2.56549
2.56648
2.56255
2.55485
2.55416
2.5704
2.57176
2.56513
2.56089
2.55729
2.57129
2.56699
2.56364
2.56186
2.56928
2.56483
2.56041
2.55434
2.56892
2.56298
2.5597
2.54946
2.54686
2.57307
2.56883
2.56679
2.55997
2.54887
2.54598
2.57325
2.57432
2.5666
2.55859
2.55203
2.57271
2.56908
2.56397
2.56218
2.57293
2.56736
2.5603
2.54999
2.5732
2.56424
2.55527
2.53983
2.53331
2.57656
2.57288
2.56828
2.55568
2.53874
2.53012
2.57543
2.57619
2.56767
2.55464
2.5436
2.57539
2.57097
2.56433
2.56149
2.57688
2.56988
2.55909
2.5452
2.57885
2.56714
2.55026
2.52468
2.5065
2.57975
2.57736
2.57006
2.55113
2.52196
2.49656
2.57971
2.57878
2.56936
2.54968
2.52879
2.57921
2.57501
2.56583
2.5615
2.5815
2.57454
2.559
2.54146
2.58366
2.57164
2.54558
2.49874
2.45161
2.58413
2.58208
2.57223
2.54471
2.49329
2.42067
2.58518
2.58239
2.57183
2.54304
2.50081
2.58392
2.57955
2.56859
2.56575
2.58747
2.58369
2.56345
2.54105
2.58791
2.57539
2.54047
2.46205
2.31231
2.59114
2.58887
2.57613
2.53458
2.45312
2.23892
2.59208
2.58702
2.57301
2.53208
2.4455
2.58972
2.58277
2.57122
2.58289
2.59384
2.59349
2.57312
2.54292
2.59356
2.58174
2.53237
2.43156
1.92684
2.59896
2.59725
2.58345
2.52861
2.41344
1.92394
-2.05062
2.60045
2.59472
2.5771
2.51444
2.31029
2.59788
2.58728
2.57525
2.60222
2.60031
2.60041
2.58686
2.55327
2.60095
2.59186
2.54881
2.42936
1.76059
0.122965
2.60681
2.60577
2.59481
2.5484
2.40037
1.94208
0.0567552
2.60916
2.60304
2.58555
2.50656
2.15264
2.60735
2.59602
2.58281
2.61279
2.60726
2.60672
2.59966
2.57646
2.60879
2.60143
2.56901
2.4677
1.98383
0.517875
2.61377
2.61344
2.60584
2.57145
2.45495
1.96927
0.456787
2.61659
2.61312
2.5971
2.53164
2.23407
0.636701
2.61741
2.60793
2.59598
2.61367
2.61491
2.61243
2.60515
2.58772
2.61609
2.61045
2.58731
2.51974
2.12753
0.529683
2.6207
2.62017
2.61479
2.59192
2.51846
2.16902
0.394738
2.62254
2.62142
2.61148
2.56133
2.25321
2.62376
2.61779
2.60167
2.62238
2.62494
2.62252
2.61766
2.60409
2.62385
2.61931
2.60704
2.57533
2.30675
2.62776
2.62638
2.62088
2.60938
2.57827
2.333
-0.975815
2.62637
2.62492
2.61712
2.5892
2.46979
2.62529
2.61983
2.60946
2.62585
2.63288
2.632
2.62306
2.61704
2.62995
2.62622
2.62074
2.60767
2.55269
2.6323
2.62987
2.62507
2.6223
2.62087
2.55469
2.6296
2.62712
2.62651
2.61312
2.58298
2.62524
2.62234
2.61962
2.62516
2.63259
2.62899
2.61948
2.62294
2.63214
2.62786
2.62626
2.62141
2.60697
2.63362
2.63109
2.62719
2.62972
2.63008
2.6098
2.63064
2.62976
2.62818
2.62314
2.61434
2.62715
2.6264
2.62531
2.62831
2.63039
2.62616
2.62451
2.62695
2.63231
2.62941
2.6287
2.6257
2.62043
2.63241
2.63052
2.63175
2.63299
2.63465
2.62437
2.6306
2.63136
2.62886
2.62735
2.62494
2.62987
2.62916
2.62842
2.63124
2.63104
2.62939
2.62937
2.62825
2.63241
2.62965
2.62842
2.62475
2.62548
2.63256
2.6311
2.63167
2.63135
2.63106
2.62817
2.63042
2.63055
2.62954
2.62913
2.62907
2.63089
2.63036
2.63003
2.63252
2.63256
2.63191
2.63105
2.62955
2.63228
2.62929
2.62819
2.62727
2.6291
2.63264
2.63095
2.63006
2.62958
2.63106
2.63055
2.6296
2.63045
2.63014
2.63043
2.63148
2.63095
2.63125
2.63137
2.63372
2.63424
2.63325
2.63206
2.63149
2.63313
2.62875
2.62919
2.62891
2.63198
2.63231
2.63019
2.62859
2.62938
2.63107
2.63271
2.62823
2.62998
2.63138
2.63203
2.63375
2.63122
2.63251
2.63332
2.63533
2.63607
2.63444
2.6333
2.63329
2.63532
2.62984
2.62988
2.63005
2.63439
2.63401
2.63139
2.62769
2.62906
2.63083
2.6351
2.62805
2.62855
2.63078
2.63339
2.63617
2.63199
2.63408
2.63571
2.63679
2.63764
2.6354
2.6344
2.63404
2.63743
2.63215
2.63114
2.63197
2.63634
2.63694
2.63392
2.62937
2.63033
2.63261
2.63696
2.63021
2.62975
2.63207
2.63509
2.63808
2.634
2.63581
2.63751
152.29
149.85
161.594
162.886
149.634
168.45
175.182
179.408
150.503
154.087
169.437
169.367
177.708
176.577
183.684
190.597
203.637
192.486
201.986
209.147
217.174
203.365
202.136
225.681
227.717
222.026
163.61
153.029
163.855
173.779
191.248
182.081
206.051
216.439
232.729
233.493
249.118
241.399
245.838
258.371
265.093
250.839
254.554
266.896
270.332
242.852
260.621
243.628
156.169
172.898
177.941
191.353
216.339
201.289
224.536
243.593
259.984
250.215
265.044
268.831
274.112
273.583
277.103
275.446
275.796
276.553
269.261
260.736
242.794
247.268
181.048
203.966
229.547
199.658
223.958
252.401
266.386
247.844
258.971
272.455
272.796
259.523
256.229
264.666
246.224
237.146
223.208
232.575
215.145
229.507
233.006
215.251
229.497
223.055
213.436
217.103
81.2672
50.3709
63.1944
75.0801
77.0257
42.9111
48.1061
45.467
81.4632
93.9534
41.4365
43.466
46.3404
112.906
50.9114
75.9219
48.4924
87.1629
82.3115
87.8236
52.0063
52.2244
50.6018
49.8055
145.819
143.096
159.016
58.0055
75.7277
50.0101
85.228
163.294
93.9887
70.5569
68.0263
75.0093
48.3605
48.0344
49.6436
183.05
167.939
103.262
108.221
99.0062
87.0386
99.0227
49.2599
52.1329
54.2913
166.438
168.202
105.007
97.3708
91.7303
115.546
52.9087
150.908
136.825
148.076
59.2006
68.919
60.5758
72.0478
171.576
159.511
154.099
108.527
94.3214
74.0403
71.1041
93.047
141.883
66.3329
149.802
134.975
70.4321
65.6487
56.9758
141.511
134.205
57.7393
55.0304
53.4839
58.6076
45.3885
40.9128
42.143
44.4142
42.246
41.9242
42.0803
40.9612
41.1482
40.7466
40.6768
40.7801
39.5498
40.4241
32.8922
45.2228
43.6986
45.8169
45.4486
43.913
40.7431
41.5443
42.3582
42.0116
41.6741
37.4468
42.1653
29.2433
17.3415
35.587
14.8584
46.4806
11.3479
44.3038
43.1972
43.1758
43.0818
43.626
43.5242
51.8833
49.8006
9.5603
9.84541
14.0357
42.6849
44.3187
43.5265
43.3216
42.8688
50.8968
52.8257
12.307
15.4106
21.0269
46.5381
45.0796
49.2686
50.0805
52.9752
45.0658
44.3002
47.2363
45.6545
55.9865
52.7594
53.1284
19.5405
24.4238
38.6152
38.1356
22.058
53.4444
48.0846
49.871
49.4418
45.7026
47.2816
52.1099
47.9366
48.3059
50.3061
49.0147
51.545
46.9103
3.57392
2.08704
7.02869
4.26512
6.16298
1.69495
1.99894
1.82986
5.57777
3.08401
1.56444
1.71552
1.93408
2.58912
2.05329
8.94811
2.26123
4.63785
8.81399
10.8167
2.12451
2.11529
2.21599
2.21602
2.20502
3.58025
2.23852
2.08649
2.1126
1.8207
2.1614
2.36522
2.31763
26.3486
33.96
36.5216
2.69471
2.80169
2.92535
2.04753
2.20985
2.26112
2.26007
2.18429
35.8862
24.9158
2.75845
2.89711
2.52082
2.09819
2.20366
2.24526
2.20437
2.11544
9.87475
2.17481
5.62196
3.82778
3.39196
2.11255
1.92115
2.09795
2.08241
2.30809
2.76182
2.73346
2.24871
2.16676
2.03996
2.09227
2.2101
3.13439
2.06466
3.2165
3.50819
1.94848
1.93105
1.91739
3.6195
3.78449
1.81969
1.7455
1.8002
2.02748
2.69874
2.40977
2.70613
2.69756
2.71529
2.41435
2.37904
2.38056
2.73772
2.67518
2.4764
2.39894
2.33848
2.59433
2.32937
2.55436
2.53921
2.70312
2.59692
2.58157
2.43959
2.40441
2.47097
2.51665
2.47243
2.63933
2.42483
2.30565
2.34807
2.45401
2.37654
2.41384
2.40871
2.4183
2.32246
2.33111
2.669
2.81062
2.8083
2.44781
2.49685
2.3978
2.38769
2.41763
2.33107
2.45554
2.81222
2.80686
2.67356
2.52311
2.51795
2.41605
2.43839
2.43093
2.61399
2.52181
2.72706
2.72948
2.78849
2.43817
2.43772
2.44157
2.42588
2.56621
2.74415
2.6727
2.42219
2.43702
2.47654
2.46507
2.39617
2.79932
2.41405
2.83176
2.83808
2.46713
2.44889
2.43915
2.92625
2.89356
2.44814
2.48988
2.44977
2.41436
2.56819
2.51059
2.48452
2.53799
2.50659
2.51115
2.50652
2.51308
2.50854
2.54299
2.50393
2.50213
2.46862
2.54963
2.45172
2.54996
2.56836
2.57468
2.53772
2.53455
2.52379
2.50681
2.54681
2.54431
2.49757
2.50735
2.48286
2.43254
2.44814
2.51089
2.44934
2.47557
2.47023
2.58483
2.61908
2.61845
2.59648
2.61483
2.61111
2.48004
2.47103
2.44893
2.46882
2.39242
2.62211
2.59205
2.61202
2.60625
2.58257
2.46609
2.46657
2.47816
2.37076
2.48788
2.54824
2.54976
2.57735
2.59866
2.62454
2.52135
2.50596
2.50736
2.4981
2.51496
2.56315
2.5554
2.4753
2.47418
2.50242
2.489
2.48491
2.62638
2.49858
2.61021
2.60371
2.48662
2.5145
2.5297
2.58627
2.59276
2.54004
2.55357
2.5457
2.51696
2.52922
2.53653
2.51851
2.51708
2.51683
2.52458
2.52844
2.52444
2.51226
2.5129
2.52449
2.52287
2.5216
2.51788
2.50915
2.56391
2.57082
2.53192
2.54825
2.54751
2.55157
2.54042
2.56293
2.55175
2.51284
2.52421
2.51468
2.49276
2.49679
2.52679
2.49943
2.50239
2.49461
2.58983
2.60772
2.60343
2.58646
2.59122
2.58812
2.50163
2.50485
2.53518
2.49616
2.51849
2.50038
2.49888
2.51887
2.50683
2.51433
2.51775
2.51863
2.51473
2.5142
2.60136
2.58408
2.59033
2.58509
2.57682
2.52634
2.49599
2.48675
2.50398
2.49511
2.5066
2.50152
2.51606
2.51153
2.51726
2.51706
2.51608
2.51442
2.5171
2.56028
2.56513
2.53529
2.56222
2.56712
2.55208
2.5399
2.54269
2.53192
2.5356
2.5248
2.5293
2.50663
2.5021
2.51348
2.50468
2.50036
2.56185
2.5253
2.55302
2.5548
2.52499
2.53308
2.53856
2.53412
2.53885
2.53161
2.52352
2.53519
2.5272
2.5311
2.52901
2.52721
2.5313
2.52754
2.52769
2.53045
2.52764
2.53034
2.53015
2.53099
2.53167
2.53198
2.53211
2.52584
2.56342
2.55793
2.53019
2.55592
2.54623
2.5422
2.52791
2.55347
2.54089
2.52603
2.53724
2.53113
2.52202
2.51833
2.53956
2.52382
2.50909
2.51487
2.5006
2.51038
2.51568
2.5213
2.51178
2.52098
2.58143
2.57781
2.57706
2.57216
2.56877
2.56871
2.51581
2.50175
2.50759
2.5
2.50234
2.49986
2.50968
2.51702
2.51208
2.51419
2.50657
2.51435
2.50984
2.51427
2.57356
2.57014
2.56788
2.56585
2.56432
2.50886
2.51137
2.51389
2.50908
2.51378
2.50956
2.51621
2.51717
2.51577
2.51783
2.5161
2.51792
2.51847
2.51892
2.5647
2.5606
2.54387
2.55092
2.54328
2.55635
2.54747
2.54948
2.53895
2.50665
2.51229
2.51019
2.4965
2.50462
2.50999
2.50834
2.5187
2.50862
2.52307
2.51925
2.51921
2.52021
2.53687
2.53742
2.52951
2.53164
2.53098
2.52902
2.53072
2.52227
2.53277
2.52759
2.52414
2.53086
2.51264
2.5294
2.53346
2.52656
2.5296
2.52735
2.52598
2.53152
2.5274
2.52824
2.53053
2.52296
2.5231
2.52687
2.52607
2.52167
2.55135
2.54637
2.52786
2.5475
2.53601
2.5386
2.53102
2.54479
2.53428
2.52696
2.53314
2.52791
2.52271
2.52059
2.52434
2.51869
2.50571
2.50911
2.50022
2.51023
2.51103
2.51993
2.5128
2.52198
2.5597
2.5611
2.56177
2.55034
2.56014
2.55718
2.50417
2.50091
2.51296
2.50267
2.50875
2.49834
2.5146
2.5167
2.51007
2.51606
2.50993
2.52
2.51359
2.51868
2.55698
2.55842
2.55344
2.54865
2.55182
2.51702
2.51133
2.52102
2.50859
2.52043
2.50952
2.5251
2.51959
2.52021
2.52079
2.52125
2.52383
2.52161
2.52403
2.55439
2.54821
2.54728
2.54563
2.53543
2.5474
2.54408
2.54307
2.53387
2.50298
2.5094
2.50942
2.48359
2.50085
2.50731
2.50845
2.52336
2.48826
2.52324
2.52221
2.51934
2.52512
2.53675
2.53575
2.52868
2.52974
2.53083
2.52778
2.5285
2.52555
2.52941
2.52287
2.52543
2.52789
2.51216
2.53699
2.53683
2.53394
2.53501
2.52997
2.54015
2.53753
2.53418
2.52044
2.52265
2.5305
2.51996
2.51775
2.51776
2.51378
2.54076
2.53529
2.53379
2.54074
2.5343
2.53614
2.53475
2.53606
2.53215
2.52028
2.51352
2.51271
2.51646
2.51577
2.50349
2.50469
2.50747
2.50197
2.54333
2.55731
2.55125
2.53673
2.54652
2.54256
2.51692
2.50183
2.52007
2.50306
2.51614
2.50295
2.51818
2.52401
2.52085
2.52227
2.52459
2.52584
2.53117
2.52493
2.54506
2.54673
2.5436
2.54172
2.54192
2.52656
2.51046
2.52924
2.50903
2.52367
2.50845
2.52358
2.52695
2.52176
2.52605
2.53611
2.53143
2.52656
2.52669
2.54317
2.53811
2.53781
2.53764
2.52935
2.53634
2.53126
2.53282
2.52463
2.49855
2.51071
2.50918
2.48348
2.49772
2.51065
2.51009
2.5
2.53286
2.52955
2.5262
2.52659
2.52722
2.52417
2.5246
2.52445
2.52642
2.51874
2.52307
2.52511
2.51217
2.53358
2.52849
2.53837
2.53685
2.53445
2.53451
2.53313
2.53211
2.51968
2.51445
2.52533
2.52021
2.51325
2.51143
2.51036
2.52972
2.52401
2.5321
2.53016
2.52751
2.52677
2.52618
2.52416
2.52056
2.51207
2.49517
2.50019
2.51028
2.50807
2.49041
2.49311
2.50386
2.50187
2.52991
2.53557
2.53345
2.52298
2.52622
2.52516
2.5053
2.53002
2.50555
2.50635
2.47933
2.53583
2.53534
2.52889
2.52758
2.5258
2.53651
2.50415
2.50406
2.48161
2.50547
2.53231
2.52535
2.52345
2.52703
2.51851
2.5254
2.51545
2.5211
2.5117
2.49936
2.51218
2.51154
2.49289
2.50178
2.51306
2.51281
2.5036
2.52576
2.5214
2.52193
2.52273
2.52198
2.52048
2.52144
2.52222
2.52461
2.51829
2.52231
2.52513
2.51386
2.52234
2.51551
2.52959
2.5268
2.52783
2.52234
2.51743
2.52079
2.51919
2.51387
2.51913
2.51545
2.5143
2.51103
2.51231
2.51882
2.51444
2.51954
2.51863
2.51331
2.51414
2.51213
2.514
2.50679
2.50814
2.4908
2.49565
2.51006
2.50698
2.49709
2.49576
2.50396
2.50509
2.51684
2.5187
2.51828
2.51185
2.51319
2.51326
2.51015
2.5097
2.50925
2.51058
2.51171
2.51874
2.51642
2.51215
2.51104
2.5103
2.51103
2.50876
2.51449
2.51592
2.5118
2.51866
2.51317
2.50609
2.51571
2.50592
2.51448
2.49753
2.51184
2.50051
2.50711
2.51475
2.51595
2.50358
2.51388
2.51724
2.51937
2.51297
2.51764
2.51405
2.51908
2.52154
2.51851
2.51962
2.52276
2.52387
2.52697
2.5227
2.52585
2.52882
2.51912
2.51033
2.50876
2.51459
2.50805
2.51259
2.50962
2.50307
2.5065
2.51114
2.51394
2.5112
2.50957
2.51424
2.51512
2.51849
2.51186
2.51186
2.50647
2.51147
2.50211
2.51045
2.50538
2.51167
2.50243
2.51139
2.50899
2.50455
2.51746
2.51359
2.51952
2.51115
2.51174
2.51649
2.50899
2.51042
2.51077
2.50883
2.51055
2.51104
2.51369
2.51646
2.51831
2.51783
2.52132
2.50639
2.50792
2.50829
2.50602
2.50926
2.52113
2.51615
2.52548
2.52717
2.52221
2.51049
2.51106
2.49522
2.51049
2.50141
2.51003
2.49776
2.51111
2.50405
2.52049
2.52061
2.52442
2.51992
2.52814
2.52545
2.53011
2.52983
2.51402
2.51584
2.52108
2.52456
2.52196
2.5236
2.52771
2.52785
2.53163
2.53035
2.53071
2.53493
2.52805
2.5119
2.51828
2.50947
2.50457
2.50581
2.51412
2.51157
2.51065
2.51214
2.51658
2.51726
2.51678
2.52084
2.52206
2.52528
2.5147
2.51976
2.51
2.51486
2.50715
2.51925
2.51717
2.51993
2.51562
2.51961
2.52816
2.52272
2.52364
2.52423
2.53239
2.53073
2.52501
2.53167
2.51207
2.51392
2.51447
2.51797
2.51996
2.52028
2.52445
2.52825
2.53348
2.53107
2.53483
2.51034
2.5141
2.51987
2.51804
2.52175
2.53417
2.53
2.53907
2.54106
2.53771
2.51497
2.52161
2.50565
2.51581
2.51204
2.51784
2.51538
2.52157
2.52091
2.53733
2.53193
2.53809
2.54431
2.54744
2.53945
2.54607
2.54942
2.52094
2.52748
2.52807
2.53156
2.53227
2.53292
2.53558
2.53404
2.53878
2.54036
2.53867
2.54291
2.53991
2.52637
2.53486
2.52213
2.52125
2.51972
2.53118
2.53139
2.52958
2.52434
2.52681
2.53241
2.53304
2.53348
2.52888
2.53375
2.52627
2.53383
2.5255
2.52618
2.52689
2.53398
2.53404
2.533
2.53738
2.53012
2.53402
2.53816
2.52976
2.53644
2.53467
2.54398
2.53774
2.54269
2.52613
2.52785
2.52786
2.53526
2.53664
2.53638
2.53832
2.54147
2.54527
2.54392
2.54665
2.52787
2.53124
2.5401
2.53835
2.54126
2.54804
2.54562
2.55097
2.5539
2.55285
2.52988
2.53895
2.52671
2.5294
2.53114
2.53306
2.53914
2.53743
2.54092
2.55811
2.54651
2.55413
2.56522
2.56578
2.55197
2.55996
2.56358
2.53481
2.54241
2.5391
2.54178
2.54537
2.54542
2.54804
2.54544
2.54821
2.55202
2.55173
2.5533
2.55235
2.54308
2.55092
2.54013
2.54086
2.53891
2.54799
2.54927
2.54669
2.54102
2.5399
2.54727
2.54716
2.54566
2.53933
2.54518
2.54199
2.5498
2.54283
2.54042
2.54524
2.5497
2.55115
2.54779
2.55102
2.54301
2.53614
2.54825
2.54383
2.5495
2.53842
2.55252
2.54665
2.54993
2.54453
2.54578
2.54508
2.55299
2.55462
2.55329
2.54849
2.55084
2.55132
2.55173
2.55387
2.54867
2.55056
2.55979
2.55794
2.5583
2.55893
2.55815
2.55953
2.56267
2.56168
2.54754
2.55559
2.54989
2.54557
2.55002
2.55023
2.55961
2.55327
2.55798
2.56887
2.55512
2.56356
2.56707
2.57011
2.55856
2.56534
2.56698
2.54972
2.5561
2.55155
2.55456
2.55704
2.55654
2.56009
2.5584
2.55878
2.5627
2.56341
2.5629
2.56141
2.55804
2.56432
2.55483
2.55681
2.55319
2.56121
2.5636
2.55927
2.55249
2.55104
2.55868
2.55786
2.55619
2.55082
2.5565
2.55675
2.56249
2.55886
2.55475
2.55573
2.56259
2.56543
2.56103
2.56153
2.55508
2.53943
2.55468
2.55951
2.55947
2.54265
2.55738
2.55225
2.55447
2.55989
2.5624
2.56042
2.56466
2.56832
2.56615
2.55429
2.55621
2.5542
2.5562
2.55802
2.56527
2.5647
2.57198
2.57038
2.56929
2.5654
2.564
2.564
2.56746
2.56564
2.56169
2.56696
2.56415
2.56037
2.56412
2.56419
2.56582
2.56596
2.56836
2.56968
2.56218
2.56672
2.56635
2.56848
2.56534
2.56741
2.56715
2.56115
2.56494
2.5607
2.56479
2.5654
2.56372
2.56837
2.5674
2.56581
2.56754
2.57074
2.56773
2.56783
2.5694
2.57287
2.56738
2.56942
2.56592
2.57257
2.57385
2.5718
2.56341
2.56218
2.5691
2.56825
2.56717
2.56138
2.56514
2.56683
2.56987
2.57017
2.56647
2.56929
2.57006
2.57337
2.57061
2.5772
2.56236
2.54804
2.55935
2.56616
2.56486
2.55462
2.56255
2.55678
2.55928
2.56746
2.5724
2.57031
2.56849
2.57488
2.57315
2.55773
2.55939
2.55658
2.55904
2.5607
2.57356
2.57301
2.57647
2.57549
2.57637
2.56887
2.56683
2.56581
2.57004
2.56799
2.57131
2.57375
2.56754
2.56967
2.5706
2.57116
2.56968
2.5721
2.57226
2.56696
2.56773
2.56759
2.56614
2.566
2.56903
2.5677
2.56672
2.56747
2.56903
2.56661
2.57052
2.5688
2.56783
2.57162
2.57276
2.56897
2.5696
2.57471
2.56995
2.56999
2.57468
2.57532
2.5759
2.57617
2.57546
2.57699
2.57668
2.57632
2.57191
2.57035
2.57378
2.57321
2.57205
2.56785
2.56939
2.5718
2.57277
2.57497
2.57285
2.58047
2.57307
2.57563
2.57344
2.5797
2.56681
2.5601
2.56565
2.56908
2.56828
2.56433
2.56862
2.56164
2.56358
2.56878
2.57669
2.57508
2.56959
2.57768
2.57599
2.56023
2.56195
2.55912
2.56137
2.56308
2.57682
2.57973
2.57984
2.57796
2.58216
2.57066
2.56871
2.56629
2.57099
2.56918
2.57535
2.57691
2.56966
2.57322
2.57219
2.57395
2.57058
2.57342
2.57204
2.56544
2.56964
2.56778
2.56647
2.56536
2.56989
2.56794
2.56723
2.56938
2.569
2.56853
2.57137
2.56746
2.56808
2.57043
2.57539
2.57065
2.57051
2.57517
2.57152
2.57112
2.57513
2.57439
2.57664
2.5763
2.57585
2.57567
2.57558
2.57493
2.57324
2.57244
2.5736
2.57338
2.57254
2.57011
2.57024
2.57316
2.57327
2.57564
2.57317
2.57761
2.57329
2.57513
2.57252
2.5755
2.5693
2.56725
2.57048
2.56851
2.56971
2.57028
2.57148
2.56492
2.56577
2.57194
2.57735
2.57559
2.57507
2.5756
2.57331
2.56246
2.56408
2.56183
2.56343
2.56483
2.57863
2.58264
2.58
2.57794
2.58102
2.5708
2.56937
2.56636
2.57065
2.56939
2.57752
2.57728
2.57161
2.57294
2.57113
2.57376
2.5736
2.57184
2.56985
2.56561
2.56992
2.56798
2.56727
2.56595
2.56961
2.56804
2.56768
2.5681
2.56703
2.5665
2.56896
2.56481
2.56345
2.56657
2.57354
2.57165
2.56996
2.5712
2.57065
2.57023
2.57328
2.57194
2.57444
2.57461
2.57382
2.57296
2.5732
2.57244
2.57318
2.57209
2.57162
2.57201
2.57088
2.56968
2.5685
2.5724
2.57068
2.57405
2.57158
2.57366
2.57131
2.57257
2.57024
2.57245
2.56929
2.57197
2.57068
2.56544
2.56799
2.57127
2.56807
2.5661
2.56553
2.57749
2.57265
2.56883
2.57685
2.56908
2.56326
2.56464
2.5653
2.56451
2.5654
2.56571
2.57409
2.57646
2.56989
2.56504
2.56828
2.57023
2.56917
2.5663
2.56991
2.56897
2.57534
2.57077
2.57456
2.57019
2.56832
2.56974
2.57433
2.56835
2.56698
2.56657
2.56911
2.56794
2.56686
2.56666
2.56837
2.56765
2.56741
2.56615
2.566
2.56051
2.5644
2.56462
2.56044
2.56288
2.56793
2.5686
2.56642
2.56357
2.56849
2.56727
2.57033
2.56884
2.57126
2.57155