/*--------------------------------*- C++ -*----------------------------------*\
| =========                 |                                                 |
| \\      /  F ield         | OpenFOAM: The Open Source CFD Toolbox           |
|  \\    /   O peration     | Version:  5.x                                   |
|   \\  /    A nd           | Web:      www.OpenFOAM.org                      |
|    \\/     M anipulation  |                                                 |
\*---------------------------------------------------------------------------*/
FoamFile
{
    version     2.0;
    format      ascii;
    class       surfaceScalarField;
    location    "2";
    object      phi;
}
// * * * * * * * * * * * * * * * * * * * * * * * * * * * * * * * * * * * * * //

dimensions      [0 3 -1 0 0 0 0];

internalField   nonuniform List<scalar> 
29271
(
-3.12442e-06
2.23828e-08
-9.41571e-07
4.02693e-06
-4.58379e-06
2.70542e-07
5.85618e-07
3.71765e-06
-1.10476e-05
6.72454e-09
-3.77764e-07
-2.4565e-08
-2.77407e-07
1.17206e-05
-1.10253e-05
6.70098e-07
5.942e-07
-1.09184e-06
-5.80115e-07
1.1433e-05
-1.10044e-05
9.62944e-07
-1.44994e-06
-4.38299e-07
1.05223e-05
1.40744e-06
-1.14756e-05
-5.03052e-07
-8.97648e-08
-6.39084e-07
-3.86815e-08
1.27462e-05
-9.79078e-06
1.96744e-06
1.91583e-06
-9.67959e-07
-1.23381e-06
8.10927e-06
-9.45453e-06
2.45175e-06
4.55717e-07
-7.18151e-07
-1.785e-06
9.05022e-06
-1.01528e-05
1.88909e-06
9.31059e-07
-9.2333e-07
-1.38458e-06
9.64051e-06
-8.86812e-06
4.30093e-07
-5.34005e-07
8.47644e-06
4.7107e-07
-2.9008e-06
1.72162e-07
-4.71047e-07
3.1833e-06
-1.15874e-05
3.40728e-07
8.01988e-07
-1.33908e-06
-1.47159e-06
1.32554e-05
-9.57615e-06
8.05542e-07
2.48339e-06
-1.43794e-06
-6.8602e-07
8.41118e-06
-9.24768e-06
9.72593e-07
7.13139e-07
-3.6446e-07
-3.54746e-07
8.28115e-06
-9.64427e-06
5.83997e-07
8.7301e-08
1.2761e-07
6.89137e-09
8.83847e-06
-1.05765e-05
-1.04261e-07
4.91833e-07
6.12567e-07
9.94569e-06
-3.69342e-07
-1.08781e-05
7.20806e-07
-6.78398e-07
-8.30465e-07
1.03467e-05
1.31945e-06
-9.75731e-06
1.57853e-06
4.54521e-07
-9.62368e-07
4.50163e-08
8.64161e-06
-9.39734e-06
-1.61802e-07
3.72037e-07
-4.09054e-08
7.94315e-07
8.43369e-06
-1.02495e-05
1.2385e-07
8.62088e-07
1.02839e-05
-6.51157e-07
-3.69173e-07
-4.0998e-06
-6.4595e-08
9.16365e-10
4.10614e-06
-8.83007e-06
-1.10091e-07
-6.96587e-08
9.63719e-06
-7.15789e-07
-1.22022e-05
-5.93325e-08
-1.58546e-07
3.73219e-07
1.34947e-05
-1.44785e-06
-4.03306e-06
-5.60352e-07
3.32245e-07
4.18541e-06
-5.56781e-06
-4.91621e-06
4.27653e-06
6.2075e-06
-3.12704e-06
5.06683e-07
7.12677e-07
1.90752e-06
-1.45539e-06
-2.94781e-06
-1.1705e-05
4.57781e-06
5.89033e-06
5.64008e-06
-8.58572e-06
-1.24235e-05
-4.62476e-06
3.63012e-06
1.19308e-05
1.00731e-05
-1.00162e-05
-1.50995e-06
-7.33809e-07
6.39889e-06
5.80446e-06
5.65849e-08
-2.38318e-06
-1.56429e-06
-1.35042e-05
3.93295e-06
1.91516e-06
1.16035e-05
1.70136e-06
6.12612e-07
4.67665e-05
-4.94031e-06
-5.50915e-06
-5.47634e-06
-5.82898e-06
-4.93836e-06
-3.90153e-06
-1.82476e-06
-2.28258e-06
-4.63556e-06
-2.8859e-06
-3.09302e-06
-3.764e-06
1.37193e-06
2.09445e-06
6.30486e-05
-7.12965e-06
-7.62227e-06
-7.36387e-06
-7.51232e-06
-8.6248e-06
-1.2033e-05
-6.81275e-06
-7.71497e-06
-1.07782e-06
-1.27308e-07
5.10719e-05
-1.22454e-05
-6.85154e-07
-1.63125e-06
-5.69797e-07
-9.27945e-07
-4.75315e-07
-5.18727e-07
-8.15336e-06
-7.60293e-06
-7.72046e-06
-7.9645e-06
-8.02476e-06
1.1434e-07
-3.96265e-07
7.24176e-06
-4.2032e-06
-2.3407e-07
9.23835e-07
3.5181e-06
-1.19922e-06
-1.37202e-05
-7.99548e-07
2.29061e-06
-1.46702e-06
1.48954e-05
2.15481e-06
-3.9702e-07
4.05154e-05
-6.21362e-06
-6.68475e-06
-6.35327e-06
-6.97212e-06
-4.08492e-06
-4.44695e-06
-4.27667e-06
-2.62832e-06
-4.54679e-07
-2.58912e-06
3.90608e-05
-7.77968e-06
-7.91062e-06
-7.9026e-06
-8.1748e-06
-1.16737e-06
-1.72315e-06
4.23554e-05
-2.54041e-06
-5.74624e-07
-8.29282e-07
-1.92222e-06
-7.15954e-07
-8.48737e-07
-8.14099e-06
-8.13159e-06
-8.0785e-06
-8.26456e-06
-9.01408e-06
2.35209e-08
1.90497e-07
4.87491e-07
7.1452e-06
-1.02813e-05
2.042e-06
4.95652e-07
-3.1352e-06
6.91712e-06
3.96169e-06
5.33128e-08
-3.41929e-06
4.29165e-05
-3.11069e-06
-1.97635e-06
-1.16211e-06
-7.75945e-07
-4.34079e-06
-1.04918e-06
-1.12449e-06
-6.7345e-06
-6.59961e-06
-6.45465e-06
-6.61921e-06
-8.97706e-07
-9.89415e-06
5.51765e-05
-2.32264e-06
-1.25609e-07
-4.28177e-07
-1.25106e-05
-1.49725e-06
-1.69777e-06
-7.2185e-06
-7.32868e-06
-6.96915e-06
-6.82213e-06
-9.41966e-06
-9.43674e-08
6.28655e-07
6.26451e-06
-4.02611e-06
5.58744e-07
-1.59482e-07
3.5301e-06
-1.01471e-05
-7.69731e-07
1.54035e-06
5.91838e-06
-1.64986e-05
-2.30671e-06
3.58739e-06
-4.53008e-06
9.85383e-06
-5.06246e-06
-3.47811e-06
4.76097e-06
3.76754e-06
-6.24226e-06
1.78408e-07
1.25633e-06
4.86584e-06
-2.08765e-06
-6.52571e-09
-3.8153e-07
2.45242e-06
1.19987e-07
1.15618e-07
-4.92235e-06
-1.76349e-07
-1.82502e-07
5.0456e-06
5.25681e-08
-7.91487e-06
-1.70881e-07
4.21358e-07
-7.31728e-07
8.34355e-06
-5.79907e-06
-1.85846e-07
3.39179e-07
1.03745e-07
5.88099e-06
-3.39003e-07
1.20096e-06
-4.00776e-08
-1.12106e-05
1.10773e-06
-6.92996e-07
9.63497e-06
5.94511e-06
3.34763e-06
5.28929e-05
-9.52929e-07
-1.84898e-06
-1.14696e-06
-1.41448e-06
-2.46939e-06
-3.44453e-06
-1.97429e-06
-2.1676e-06
-7.30248e-07
7.88973e-06
7.38455e-05
-3.74676e-06
-3.51887e-06
-2.45873e-06
-2.28685e-06
-4.73941e-07
5.52051e-07
7.10879e-05
-4.16404e-07
-5.1128e-07
-4.10655e-06
-4.90977e-06
-5.9995e-07
-5.89691e-06
-4.38345e-06
-6.91086e-06
-3.51199e-07
1.42142e-08
6.78096e-06
-2.67289e-06
-3.84467e-08
-2.22661e-07
2.93048e-06
-3.54265e-07
-1.44861e-05
-6.63119e-08
2.13093e-06
8.08424e-07
1.19673e-05
6.42182e-06
-5.68615e-07
4.74044e-05
-3.07127e-06
-1.93164e-06
-2.2861e-06
-2.10557e-06
-8.39065e-07
-1.73461e-06
5.5946e-05
-3.58407e-07
-5.1391e-07
5.61017e-05
-5.71766e-08
-3.15445e-06
-3.37921e-06
-3.11071e-07
-2.96301e-06
-3.29605e-06
-7.97408e-06
5.31078e-08
-4.75048e-07
-2.33254e-07
8.27087e-06
-6.02504e-06
-1.6142e-07
3.69107e-07
4.54257e-07
6.54982e-06
-1.18673e-06
8.2242e-07
2.63844e-07
4.33028e-05
-1.40578e-07
4.05055e-08
-1.09704e-06
-1.09333e-06
2.10157e-07
-5.18235e-08
9.0905e-08
-6.71132e-08
1.16149e-07
5.56649e-05
3.09924e-07
1.49772e-07
-8.60853e-07
1.45494e-07
-7.43179e-07
-4.5079e-07
-6.51249e-06
-8.42363e-08
-3.4543e-07
6.36113e-06
-3.55409e-06
1.61862e-07
-3.38887e-08
3.43588e-06
-5.25179e-06
-3.13709e-08
-3.99563e-08
5.62223e-06
-8.27597e-06
5.90603e-08
3.69795e-08
-1.16711e-07
8.41279e-06
-3.11622e-06
2.17254e-07
-6.43264e-08
2.99354e-06
-5.08686e-06
7.22892e-08
-7.72578e-07
5.78715e-06
-2.86896e-06
2.46928e-08
2.95513e-06
-1.10864e-07
-1.37223e-06
-1.40585e-06
-5.02302e-06
1.11967e-06
2.84446e-06
3.83697e-06
-1.53814e-06
-8.59697e-06
3.67135e-07
-1.20047e-06
3.23999e-06
7.72846e-06
-2.79105e-06
1.77647e-07
-3.68997e-08
1.11365e-06
7.13515e-07
8.23135e-07
-5.21843e-06
2.23859e-07
-8.8649e-06
2.96041e-07
3.81282e-06
9.75061e-06
3.9893e-06
4.4281e-06
7.17642e-05
-3.60041e-06
-3.5751e-06
-4.53362e-06
-4.0787e-06
-2.39191e-06
-1.59131e-06
-4.11514e-06
-3.40245e-06
-6.18273e-06
4.90238e-06
8.73568e-05
-2.53026e-06
-2.37008e-06
-1.88539e-06
-1.4559e-06
-1.84777e-07
2.74367e-07
6.35209e-05
-2.39278e-06
-1.14958e-06
3.60383e-07
1.03643e-06
1.05297e-07
2.12208e-06
1.21286e-06
-2.46029e-06
-4.35098e-07
1.5747e-07
2.55314e-06
-2.96427e-06
1.8715e-07
-3.90144e-07
3.16726e-06
-4.21467e-07
-1.1165e-05
3.80304e-07
-1.04144e-06
-3.91567e-06
1.61633e-05
7.27807e-07
-9.5592e-06
6.3713e-05
4.51475e-07
-9.82889e-07
-7.66943e-07
-1.75076e-06
-3.12466e-07
-8.77046e-07
6.27657e-05
4.4174e-07
-1.49638e-06
5.52085e-05
-8.57036e-07
1.70787e-06
8.46736e-07
-1.47906e-06
7.68571e-07
9.22599e-07
-4.56551e-06
2.11775e-07
1.37323e-07
-2.07139e-07
4.86529e-06
-6.10614e-06
2.01378e-06
-6.66319e-07
-3.46677e-06
3.55653e-06
4.66891e-06
-3.23557e-07
-2.8996e-06
5.12895e-05
-1.52621e-06
-1.50927e-06
-1.77886e-06
-1.9138e-06
-2.6553e-06
-2.74011e-06
-2.19922e-06
-1.11355e-06
-1.10552e-06
6.18094e-05
-1.50765e-06
-1.09657e-06
-1.05061e-06
-1.16698e-06
-5.46097e-08
-2.49565e-07
-3.74839e-06
-4.91385e-07
-1.47814e-06
3.10798e-06
-2.18886e-06
1.00473e-06
-6.70569e-07
1.8547e-06
-5.73598e-06
2.64007e-08
-1.90232e-07
3.00021e-06
-8.86191e-06
2.21571e-07
-2.93954e-07
3.87753e-08
7.79e-06
-1.80207e-06
2.60956e-08
3.75289e-07
1.40069e-06
-5.21171e-06
2.77567e-07
-1.40724e-07
5.07487e-06
9.66739e-08
3.78417e-07
-3.96e-07
-7.90906e-08
-2.57332e-07
-3.22778e-07
-2.59753e-06
-1.3732e-07
1.4819e-06
1.83306e-06
-2.45297e-08
-7.65678e-06
9.22053e-07
-1.40874e-06
4.20711e-07
7.74729e-06
-1.55774e-06
7.35972e-07
-5.16047e-07
-2.26632e-07
5.12198e-08
1.51323e-06
5.94633e-07
2.51747e-08
-7.89554e-06
1.12062e-06
-5.22806e-07
6.67792e-06
4.41321e-06
4.49411e-06
7.60764e-05
-2.29269e-06
-2.84984e-06
3.85087e-07
-9.21644e-07
-2.44636e-06
-2.7596e-06
-5.42884e-07
-1.79165e-06
-2.05688e-06
4.45857e-06
9.25591e-05
-1.53786e-06
-1.28243e-06
-3.13404e-07
-5.7167e-08
1.29029e-06
5.09663e-07
5.63562e-05
-4.34934e-07
-4.45879e-07
2.61703e-07
3.89952e-07
4.78419e-07
1.64493e-06
1.41367e-06
-3.63302e-06
-1.41763e-06
1.50253e-06
4.83841e-06
-3.21653e-06
2.24228e-07
-2.94319e-07
3.28662e-06
6.89116e-08
-1.68375e-05
4.28522e-07
4.97925e-07
1.75794e-07
1.56664e-05
2.88728e-06
-5.6991e-06
7.31033e-05
-1.0452e-06
-1.35837e-06
-1.969e-07
5.16121e-07
5.96537e-07
-1.07855e-06
7.05936e-05
5.51132e-07
-6.13151e-07
5.40671e-05
4.5342e-07
1.41743e-06
4.40228e-07
-1.09576e-07
-1.74997e-07
2.83148e-07
-6.45673e-06
-4.25385e-07
7.10719e-07
-2.58454e-07
6.98098e-06
-1.66377e-06
-4.90183e-07
6.63879e-07
-9.86527e-08
1.86717e-06
-2.78451e-07
-1.46984e-06
-7.7981e-07
5.09896e-05
-1.54415e-06
-3.50484e-08
-2.97532e-07
-2.71504e-08
-1.90544e-06
8.96795e-07
-2.37e-07
-4.15867e-07
-6.37645e-07
6.2142e-05
-1.55719e-06
1.12629e-06
6.29525e-08
-7.88746e-07
-1.98289e-07
-4.72478e-07
-2.52363e-06
-1.35484e-07
-3.35281e-07
1.96538e-06
-3.03185e-06
-3.62806e-07
-1.62118e-08
3.41086e-06
-1.50574e-06
-1.32786e-06
4.71375e-07
1.58242e-06
-7.76443e-06
2.75448e-07
-1.61221e-07
3.42932e-08
6.97827e-06
-3.12723e-06
-4.38123e-07
3.02285e-07
3.26307e-06
-4.88651e-06
1.85331e-07
-6.25872e-08
4.76377e-06
-7.24856e-08
8.60629e-07
-1.32432e-06
5.36174e-07
5.94963e-07
2.97029e-07
-2.80109e-06
-7.27679e-07
-1.33773e-06
3.97451e-06
4.83545e-07
-7.81897e-06
5.39307e-07
-3.03599e-07
-7.056e-07
7.80531e-06
-3.01654e-07
-6.71731e-08
2.4277e-07
2.50235e-07
-1.7196e-07
4.77824e-08
1.41177e-06
6.95468e-09
-6.39608e-06
-2.21849e-07
-1.03856e-06
6.23776e-06
2.93778e-06
3.74493e-06
7.20671e-05
6.27723e-07
-4.94936e-07
4.88498e-07
1.62543e-07
-3.27988e-07
-1.52984e-06
-6.57675e-07
-9.41724e-07
-2.97712e-06
5.52541e-06
9.25768e-05
-4.81159e-07
-2.37035e-07
4.51155e-07
6.38845e-07
1.09693e-06
6.27418e-07
5.20772e-05
-5.32311e-07
-4.24636e-07
-5.34553e-07
-4.33195e-07
5.85206e-07
4.63625e-07
4.53401e-07
-5.14891e-06
-1.30883e-06
2.00327e-06
1.51604e-06
4.03536e-06
1.2058e-07
-4.77297e-07
7.45602e-07
-3.88885e-07
-3.38634e-06
8.645e-08
-2.10359e-07
3.51025e-06
2.21773e-07
-1.4356e-05
1.3497e-07
1.09369e-09
1.39121e-06
1.26069e-05
3.64844e-06
-3.93717e-06
7.66071e-05
-4.95073e-07
3.68463e-07
-2.48155e-08
6.81248e-07
9.29729e-07
5.40362e-07
7.82973e-05
6.25231e-07
-7.01126e-07
5.60542e-05
7.1942e-08
3.59998e-07
-1.54991e-07
-7.73822e-08
-4.24774e-07
-1.28864e-07
-6.90494e-06
-7.25345e-07
2.16796e-06
1.07876e-06
5.00879e-06
-4.77918e-07
-1.77856e-06
-5.29513e-07
-3.35062e-07
3.12106e-06
-2.33565e-06
-1.0524e-06
6.52003e-07
1.56904e-06
3.20683e-06
-2.03982e-06
-8.54531e-07
8.98345e-07
4.96711e-05
-7.05532e-07
-1.07102e-06
-8.19242e-07
-1.39881e-06
2.55455e-07
7.94916e-07
2.81726e-07
1.29562e-07
1.67806e-07
6.10386e-05
-2.94238e-07
1.60606e-07
-4.98942e-07
-2.2805e-08
4.6017e-07
6.87074e-07
-3.10156e-06
4.5176e-07
-1.08386e-06
3.1621e-06
-4.12703e-06
-2.18475e-07
-1.90678e-08
4.36457e-06
-2.61941e-06
-1.26345e-07
7.32731e-07
2.91137e-06
-6.17535e-06
3.18896e-07
-4.39062e-07
-1.51064e-07
6.61439e-06
-2.69621e-06
8.26428e-07
2.64169e-07
1.60562e-06
-4.65834e-06
2.56059e-07
-2.12719e-07
4.615e-06
-3.02636e-07
3.60925e-07
-3.64785e-07
3.06495e-07
6.15644e-07
1.28628e-07
-5.25108e-06
-6.54819e-07
-1.10075e-06
6.26238e-06
4.01363e-07
-7.80057e-06
6.11094e-07
-9.88191e-09
-1.13086e-06
7.92885e-06
-3.69141e-07
9.98097e-08
-5.26929e-07
2.8619e-07
6.84612e-07
-1.74542e-07
5.03263e-07
-5.17539e-07
-6.18303e-06
9.54333e-07
-3.05198e-07
5.54817e-06
3.23256e-06
4.97036e-06
6.7634e-05
3.05123e-07
7.11683e-08
1.33208e-07
3.21692e-07
-1.2106e-06
-1.09564e-06
-1.29279e-06
-1.0019e-06
-3.29049e-06
5.63855e-06
9.22443e-05
1.35583e-07
2.47035e-07
4.24801e-07
4.096e-07
-3.82961e-07
1.94943e-06
5.00528e-05
-1.05154e-06
-7.13277e-07
-7.45801e-07
-4.68916e-07
3.78098e-07
-6.19874e-07
3.88682e-07
-3.17281e-06
-1.89311e-07
-5.78092e-07
1.28756e-06
2.26969e-06
4.47733e-07
-6.05915e-07
1.51479e-06
-1.41393e-06
3.05226e-07
-2.47905e-07
-3.65879e-06
-6.79131e-08
-6.4478e-08
3.79118e-06
-1.13992e-07
-1.10066e-05
-2.22759e-07
1.75084e-07
1.27224e-06
9.89598e-06
2.99875e-06
-2.16066e-06
8.00468e-05
-2.35426e-07
2.88448e-07
1.46412e-07
4.93125e-07
1.15734e-06
1.55217e-06
8.42251e-05
4.86674e-07
-4.64495e-07
5.82798e-05
1.44864e-07
4.57667e-07
2.63818e-07
8.19224e-08
-1.661e-07
7.68307e-08
-5.48172e-06
-7.73731e-07
7.8332e-07
-1.50952e-07
6.10976e-06
-3.91031e-06
-5.14639e-07
-8.21439e-07
3.40206e-07
5.96209e-07
4.30997e-06
-3.62362e-06
-8.03079e-07
7.87598e-07
1.50368e-06
3.69432e-06
-1.55889e-06
-4.16513e-08
5.50598e-07
5.11623e-05
-1.1075e-06
-1.24183e-06
-1.00218e-06
-1.03974e-06
1.58052e-07
1.74972e-07
-1.02545e-07
-3.25153e-07
6.31113e-07
6.15708e-05
-8.89926e-07
-4.07071e-07
-1.02435e-06
1.09953e-06
7.2572e-07
1.16843e-06
-3.84469e-06
-3.8184e-07
-7.86785e-07
4.22367e-06
-3.47369e-06
-9.82001e-07
6.00958e-07
3.79036e-07
3.4757e-06
-5.75689e-07
3.66064e-08
-2.16158e-08
5.607e-07
-3.26733e-06
2.94244e-07
-2.0844e-07
3.73213e-06
-7.59155e-06
6.76204e-07
-1.1109e-06
1.78698e-07
8.47866e-06
-4.59803e-07
4.20346e-07
-6.202e-08
1.01477e-07
-4.61668e-06
3.33131e-07
-3.08287e-07
4.59184e-06
-1.54685e-07
-7.41075e-07
6.86022e-07
2.09738e-07
-3.65044e-08
7.20149e-07
-6.916e-06
-7.72517e-07
-2.62528e-07
7.2674e-06
-7.68129e-08
-8.08291e-06
6.9268e-07
-4.38453e-07
-3.83243e-07
8.28874e-06
-1.03249e-06
1.38515e-07
-4.2617e-07
1.57797e-07
8.95048e-07
2.67304e-07
-9.63342e-08
-4.43369e-07
-4.93461e-06
9.40241e-07
1.20525e-07
4.41355e-06
3.22318e-06
4.69465e-06
6.39027e-05
-9.12824e-09
-3.8599e-08
-1.87663e-07
1.87661e-08
-9.83827e-07
-1.19864e-06
-7.46219e-07
-1.04124e-06
-2.15248e-06
6.2506e-06
9.15611e-05
-9.70721e-08
-2.59627e-07
1.13372e-07
5.15312e-08
-6.39998e-07
2.94195e-06
4.87093e-05
-8.11226e-07
-4.82424e-07
-5.43499e-07
-3.62451e-07
-3.89564e-08
-6.586e-07
-2.13691e-07
-2.06074e-06
2.85762e-07
-9.21136e-07
2.53487e-07
1.80263e-06
4.43865e-07
7.81277e-07
7.99043e-07
-4.83304e-07
-8.06273e-07
-7.34608e-07
-3.84942e-06
-1.48609e-07
2.29275e-07
3.76875e-06
-3.5045e-07
-9.48563e-06
-2.78589e-07
2.01209e-07
4.48154e-07
9.4653e-06
3.32893e-06
-9.89766e-07
8.19908e-05
-1.16421e-07
9.56381e-08
1.38428e-07
2.93883e-07
2.2524e-06
1.98752e-06
8.95647e-05
6.69531e-07
-1.26739e-07
6.06995e-05
6.35155e-07
7.03474e-07
3.64824e-07
2.19795e-07
1.18518e-07
1.90116e-07
-6.72578e-06
-2.18302e-07
6.37731e-07
-2.46667e-07
7.22255e-06
-4.37042e-06
2.97113e-07
-9.05513e-07
5.41116e-07
1.77668e-07
4.26003e-06
-3.54698e-06
-4.75563e-07
4.69055e-07
1.08015e-06
3.29587e-06
-8.2254e-07
1.29164e-06
-1.32389e-07
5.31676e-05
-1.06883e-06
-7.52726e-07
-8.07386e-07
-6.44671e-07
-2.76917e-07
-2.91947e-07
-3.11841e-07
-4.61867e-07
7.27345e-07
6.33004e-05
-7.46898e-07
-1.86104e-07
-7.83263e-07
1.14522e-06
7.56901e-07
1.09819e-06
-4.90937e-06
-8.16921e-07
-3.82679e-07
5.52037e-06
-2.71822e-06
-3.25318e-07
2.01779e-06
-1.05131e-06
2.07706e-06
-5.16601e-07
-2.78491e-07
2.66027e-07
2.66261e-07
2.62805e-07
-4.04341e-06
8.54417e-07
-1.09917e-06
4.15578e-06
-9.18081e-06
8.64547e-07
-9.50705e-07
4.93234e-07
9.50108e-06
-3.87099e-08
2.00925e-07
-2.50492e-07
8.82769e-08
-4.37431e-06
3.77547e-07
1.66726e-07
3.83004e-06
-1.42902e-07
-8.87709e-07
9.8749e-07
4.31212e-08
-8.56573e-07
9.64634e-07
-7.58895e-06
-1.07983e-06
9.70188e-07
7.59053e-06
-5.20011e-07
-8.36748e-06
9.01199e-07
-5.37537e-07
5.08922e-07
8.0149e-06
-5.58196e-07
-2.25594e-08
-2.65708e-07
2.35181e-07
3.42593e-07
2.6869e-07
-2.59056e-07
-1.79172e-07
-4.21269e-06
6.88236e-07
-1.73208e-07
4.13589e-06
3.64649e-06
4.49404e-06
6.25079e-05
-7.07284e-07
-6.21165e-07
-1.02472e-06
-6.39749e-07
-6.56074e-07
-1.42266e-06
-5.24905e-07
-1.14913e-06
-9.19537e-07
6.0244e-06
9.12656e-05
-5.50228e-07
-2.77599e-07
-4.20031e-07
8.50192e-08
-9.6458e-07
3.86956e-06
4.8814e-05
-5.95576e-07
-1.21736e-07
-4.11768e-07
-2.48828e-07
-3.93577e-07
-1.45963e-06
-6.98182e-07
-1.84811e-06
1.40726e-06
-1.35167e-06
-6.25265e-07
1.4532e-06
1.61975e-06
5.07246e-07
2.31349e-07
-1.48584e-06
-8.72501e-07
-3.54743e-06
-5.01987e-07
8.39412e-07
3.21001e-06
-8.65302e-07
-9.57837e-06
-5.60809e-09
7.06849e-07
3.04559e-07
9.43787e-06
3.80762e-06
-1.71455e-07
8.38284e-05
-4.96202e-07
-1.43245e-07
-5.14718e-07
1.7447e-07
2.66129e-06
2.55679e-06
9.41787e-05
6.61263e-07
1.74514e-07
6.48377e-05
3.88761e-07
2.14801e-07
-4.12328e-07
5.31114e-07
4.83873e-07
3.50603e-07
-7.29868e-06
4.49337e-07
3.33718e-07
1.75845e-07
7.00104e-06
-3.74686e-06
9.73318e-07
-7.03235e-07
1.12821e-06
4.41925e-08
2.30438e-06
-3.20178e-06
-4.53782e-07
3.1495e-07
7.28692e-07
3.2325e-06
-6.20578e-07
2.51796e-06
-4.25173e-07
5.47936e-05
-8.24029e-07
-5.687e-07
-6.16654e-07
-5.32008e-07
-4.52262e-07
-4.26216e-07
-4.70351e-07
-1.04789e-07
6.81472e-07
6.59076e-05
-5.54832e-07
2.38315e-07
-5.84326e-07
1.06099e-06
7.02025e-07
1.02869e-06
-6.44779e-06
-5.4434e-07
-1.39713e-07
7.20157e-06
-1.57259e-06
-1.53859e-06
1.55207e-06
1.55911e-06
-4.14863e-06
9.98086e-07
-1.33198e-06
4.05736e-06
-9.65273e-06
8.70889e-07
-8.57062e-07
7.28004e-07
9.59237e-06
-1.68648e-07
7.03704e-08
-1.75445e-07
2.73722e-07
-3.18058e-06
1.44188e-07
4.14554e-07
2.62184e-06
1.03483e-07
-3.97464e-07
6.03236e-07
-3.09255e-07
-1.24899e-06
7.7511e-07
-7.43508e-06
-9.82861e-07
1.81277e-06
7.07905e-06
-6.60979e-07
-7.42539e-06
9.06084e-07
-5.80198e-07
9.78758e-07
6.78173e-06
-3.71379e-07
-1.40554e-07
-2.19509e-07
-6.68046e-08
5.48276e-07
2.4997e-07
-2.70574e-07
-7.89312e-09
-4.17902e-06
5.2687e-07
-1.80071e-07
4.11068e-06
3.52919e-06
5.31918e-06
6.32601e-05
-1.55357e-06
-1.39827e-06
-1.66996e-06
-1.33562e-06
-6.40802e-07
-1.38158e-06
-6.19834e-07
-1.001e-06
-1.38688e-06
5.8286e-06
9.20306e-05
-9.42371e-07
-2.78691e-07
-5.98817e-07
1.4241e-07
-1.5467e-06
3.26816e-06
4.96387e-05
-2.9506e-07
-1.64112e-07
-5.85536e-08
-1.46457e-07
-1.47913e-06
-8.67025e-07
-9.22648e-07
-1.54596e-06
1.01844e-06
-1.72326e-06
7.04081e-07
-2.77296e-06
-3.31918e-07
7.96534e-07
2.30834e-06
-1.42894e-06
-9.13107e-06
1.12542e-08
1.60995e-06
3.34977e-07
8.60382e-06
3.69063e-06
3.01948e-07
8.70235e-05
-1.18732e-06
-1.34039e-07
-9.41237e-07
3.94077e-07
2.73107e-06
3.06361e-06
9.79032e-05
-2.36724e-07
2.72115e-07
6.95204e-05
-5.45233e-07
2.30062e-07
-1.53215e-07
4.67957e-07
7.10563e-07
5.71045e-07
-8.44561e-06
7.23963e-07
-7.33347e-07
3.49638e-07
7.86863e-06
-3.25277e-06
-2.27725e-07
1.29398e-07
4.19954e-07
3.28463e-06
-3.53484e-07
2.36155e-06
-4.49699e-07
5.66243e-05
-5.57987e-07
-4.14573e-07
-3.42396e-07
-3.9929e-07
-6.3765e-07
-4.194e-07
-6.69283e-07
9.04187e-08
7.09024e-07
6.8084e-05
-4.49676e-07
5.06803e-07
-4.5032e-07
1.08747e-06
7.16936e-07
1.03817e-06
-8.28651e-06
-1.5973e-07
1.26429e-07
8.68235e-06
-1.48849e-06
-5.79089e-07
9.63877e-07
1.1037e-06
-3.9756e-06
9.54561e-07
-1.35355e-06
3.92489e-06
-9.51985e-06
8.65805e-07
-8.68816e-07
8.76554e-07
9.35533e-06
-4.17669e-07
-8.54005e-08
-8.58452e-08
5.88915e-07
-2.04257e-06
-1.16148e-07
6.88396e-07
1.47033e-06
5.22672e-07
6.69756e-08
1.11695e-07
-7.01342e-07
-1.13602e-06
4.51648e-07
-6.71829e-06
-9.33774e-07
1.9517e-06
6.38474e-06
-1.11434e-06
-6.37842e-06
8.25588e-07
-5.49466e-07
1.06358e-06
6.15306e-06
-8.75992e-07
-2.21636e-07
-2.25239e-07
-4.43898e-07
1.4229e-06
3.43863e-07
-2.45111e-07
-1.36255e-09
-4.05281e-06
4.30603e-07
-7.41615e-08
3.94284e-06
3.06027e-06
5.23109e-06
6.4881e-05
-1.77761e-06
-1.76748e-06
-1.60872e-06
-1.41747e-06
-7.05186e-07
-1.17175e-06
-6.63844e-07
-8.00201e-07
-1.56366e-06
5.19015e-06
9.29343e-05
-9.53371e-07
-2.79247e-07
-4.20289e-07
1.82907e-07
-5.01713e-07
1.21254e-06
4.76049e-05
3.29517e-07
3.29525e-07
6.84482e-07
1.51988e-07
-6.94178e-07
-5.04756e-07
-5.37291e-07
-6.61843e-07
4.5868e-07
-1.26664e-06
9.68087e-07
-1.90373e-06
-1.77519e-07
4.51274e-07
1.62997e-06
-1.29481e-06
-8.04063e-06
3.0979e-08
1.62328e-06
9.8029e-08
7.58314e-06
2.89502e-06
8.21553e-08
8.98652e-05
-1.10809e-06
1.8403e-07
-4.02213e-07
7.38494e-07
3.20453e-06
2.91914e-06
9.98647e-05
5.38011e-07
3.3252e-07
6.9863e-05
2.56037e-07
6.40914e-07
3.0689e-07
6.26774e-07
7.75277e-07
5.98024e-07
-7.0493e-06
6.89937e-07
4.14164e-07
-1.00986e-07
6.5842e-06
-3.24024e-06
5.47715e-09
-1.64607e-07
1.19984e-07
3.23417e-06
4.52099e-08
6.4065e-07
-2.9679e-07
5.8046e-05
-1.08463e-07
-4.50321e-08
1.67981e-07
-5.2629e-08
-7.08457e-07
-2.42021e-07
-6.94865e-07
1.39482e-07
7.06625e-07
6.83768e-05
-3.99236e-07
5.24552e-07
-4.30322e-07
1.07142e-06
6.82964e-07
9.71479e-07
-9.54738e-06
3.31381e-07
2.80238e-07
9.40776e-06
-1.09221e-06
-1.37881e-07
-6.70831e-08
1.29717e-06
-3.91884e-06
7.84032e-07
-1.19725e-06
4.03528e-06
-9.16633e-06
8.06785e-07
-8.11147e-07
9.57298e-07
8.92002e-06
-7.69023e-07
-1.62297e-07
-5.5453e-08
9.86773e-07
-1.00792e-06
-3.2777e-07
6.27384e-07
7.08304e-07
8.48884e-07
1.45699e-07
-6.65818e-08
-9.28001e-07
-4.52614e-07
1.68616e-07
-6.06258e-06
-7.81943e-07
1.13011e-06
5.99841e-06
-8.44827e-07
-6.14634e-06
1.10536e-06
-9.36709e-07
3.75068e-07
6.44744e-06
-2.00642e-06
-1.42129e-07
-1.64827e-07
-1.03965e-06
2.7796e-06
5.7343e-07
-3.01624e-07
1.13458e-07
-3.8437e-06
2.32821e-07
5.00186e-08
3.74903e-06
1.36541e-06
3.03849e-06
6.53669e-05
-9.69976e-07
-1.14255e-06
-4.68165e-07
-2.82722e-07
-5.28803e-07
-7.45785e-07
-4.18568e-07
-3.33241e-07
-1.40818e-06
3.14628e-06
9.14521e-05
-2.75374e-07
1.38303e-07
4.76872e-07
7.69776e-07
-4.37911e-08
-1.06502e-06
4.36791e-05
1.19179e-06
7.28039e-07
1.51899e-06
5.72374e-07
-1.92881e-07
-6.98242e-08
-1.2207e-07
-1.25938e-06
3.45844e-07
-9.33644e-07
1.80339e-06
-1.48745e-06
-2.83384e-08
6.52671e-08
1.45052e-06
-4.48473e-07
-7.37682e-06
1.4266e-07
4.20074e-07
-2.53159e-07
7.51572e-06
1.1638e-06
-9.51279e-07
9.0502e-05
-1.57288e-07
5.16074e-07
6.92065e-07
1.13833e-06
2.83416e-06
1.86019e-06
9.94804e-05
6.45205e-07
4.2766e-07
6.66446e-05
5.30014e-07
6.90309e-07
5.53487e-07
6.17444e-07
8.88766e-07
6.34632e-07
-6.3324e-06
6.73552e-07
6.70974e-07
-5.76562e-07
6.20964e-06
-3.18993e-06
1.319e-07
-5.27473e-07
-5.65536e-08
3.29753e-06
3.44529e-07
-2.16023e-06
1.01955e-07
5.74833e-05
6.146e-07
5.34441e-07
9.23115e-07
4.79546e-07
-5.43402e-07
1.16862e-07
-4.55403e-07
5.56831e-08
5.94223e-07
6.56688e-05
-4.13911e-07
3.94027e-07
-4.471e-07
9.18842e-07
5.20839e-07
7.85402e-07
-9.81179e-06
5.64385e-07
4.79876e-07
9.25087e-06
-1.53687e-06
2.58338e-07
-4.88992e-07
1.76753e-06
-4.13895e-06
4.94989e-07
-6.80854e-07
4.42677e-06
-8.74019e-06
7.02383e-07
-7.28861e-07
7.77674e-07
8.58322e-06
-1.24107e-06
-2.60487e-07
-4.10339e-08
1.54259e-06
-5.63523e-07
-3.93585e-07
4.1798e-07
5.39128e-07
9.35379e-07
-6.54432e-08
9.44421e-09
-8.7938e-07
4.43402e-07
3.25231e-07
-6.20013e-06
-1.01477e-06
-3.18074e-07
6.76434e-06
-1.08088e-10
-6.80208e-06
1.41167e-06
-1.02091e-06
-7.67868e-07
7.17929e-06
-3.61227e-06
-2.35578e-07
5.06143e-09
-1.01118e-06
4.39755e-06
4.5641e-07
-4.36932e-07
4.50028e-07
-3.71728e-06
-3.17098e-07
1.83054e-07
3.83823e-06
-2.42866e-06
5.30638e-07
6.36736e-05
3.41174e-07
2.62599e-07
5.00802e-07
8.10951e-07
2.75641e-07
2.26928e-07
4.76919e-07
6.96316e-07
-1.16688e-06
1.52474e-06
8.48956e-05
5.87211e-07
7.15194e-07
1.28303e-06
1.18449e-06
2.66934e-07
-1.35816e-06
3.87337e-05
1.4695e-06
7.6705e-07
1.23385e-06
6.36847e-07
2.46388e-07
2.16778e-07
2.99401e-07
-2.26791e-06
3.55704e-07
-7.22114e-07
2.90126e-06
-1.48505e-06
2.14608e-08
-1.28286e-07
1.59188e-06
4.93303e-07
-7.84532e-06
2.454e-07
-8.60245e-07
-3.66495e-07
8.33336e-06
-1.07059e-06
-1.24989e-06
8.79571e-05
9.04498e-07
1.06808e-06
1.69105e-06
1.73236e-06
2.15277e-06
1.81952e-06
9.59623e-05
7.8807e-07
7.52498e-07
6.07403e-05
7.43669e-07
8.65538e-07
7.67489e-07
8.09665e-07
1.14362e-06
8.28401e-07
-6.27909e-06
6.57957e-07
7.40942e-07
-8.81929e-07
6.55019e-06
-3.51466e-06
1.30838e-07
-7.75288e-07
-4.60245e-08
3.89694e-06
3.0819e-07
-3.85972e-06
4.31574e-07
5.56162e-05
1.03494e-06
7.9722e-07
1.26424e-06
7.03065e-07
-1.47611e-07
4.31896e-07
-3.84489e-08
-9.75926e-08
5.73849e-07
6.15641e-05
-4.07969e-07
1.63404e-07
-3.82907e-07
9.02865e-07
5.06058e-07
8.06787e-07
-9.25699e-06
6.4422e-07
7.55121e-07
8.51255e-06
-1.97941e-06
4.57498e-07
-6.98936e-07
2.22084e-06
-4.60122e-06
2.22797e-07
-9.12373e-08
4.90124e-06
-8.57592e-06
5.25651e-07
-5.76159e-07
3.56876e-07
8.8434e-06
-1.89453e-06
-3.06942e-07
-9.14785e-08
2.29295e-06
-5.98555e-07
-4.32145e-07
3.11443e-07
7.19257e-07
7.88988e-07
-1.83626e-07
6.45116e-08
-6.69873e-07
8.29068e-07
2.58616e-07
-7.34283e-06
-6.96935e-07
-9.24633e-07
7.87671e-06
3.54371e-07
-7.6396e-06
9.20708e-07
-3.13999e-07
-1.45319e-06
8.13171e-06
-4.9549e-06
-4.58221e-07
3.50765e-07
5.47353e-08
5.2386e-06
-2.30984e-07
-3.93811e-07
7.50814e-07
-4.04414e-06
-9.08985e-07
1.73723e-07
4.4224e-06
-5.3556e-06
-1.04159e-06
6.13856e-05
9.58871e-07
1.10496e-06
8.80744e-07
1.44596e-06
9.86481e-07
9.3286e-07
1.10277e-06
1.27252e-06
-1.71298e-06
2.43049e-07
7.49593e-05
1.37458e-06
1.16419e-06
1.94024e-06
1.5716e-06
2.2836e-07
-5.10294e-07
3.49696e-05
5.23317e-07
3.63339e-07
3.01412e-07
2.63864e-07
3.88439e-07
1.07975e-07
3.84642e-07
-3.42725e-06
3.89489e-07
-6.53154e-07
3.91927e-06
-1.76162e-06
3.18365e-08
-2.56261e-07
1.98605e-06
1.08197e-06
-8.92189e-06
3.118e-07
-1.69896e-06
-3.00317e-07
9.5274e-06
-3.40566e-06
-7.51317e-07
8.3043e-05
1.73606e-06
1.68766e-06
2.33922e-06
2.26652e-06
1.82371e-06
2.99053e-06
8.79855e-05
9.64372e-07
7.39652e-07
5.51404e-05
8.80755e-07
1.03409e-06
9.11819e-07
8.10861e-07
8.58659e-07
7.13137e-07
-7.01518e-06
6.43554e-07
7.43242e-07
-1.04203e-06
7.63479e-06
-4.41379e-06
4.91941e-08
-8.17857e-07
1.20713e-07
4.97171e-06
9.00293e-08
-4.08977e-06
6.42044e-07
5.37412e-05
1.03883e-06
6.8704e-07
1.19604e-06
5.68537e-07
1.61889e-07
6.64477e-07
2.5464e-07
-2.7679e-07
6.48778e-07
5.80735e-05
-2.57677e-07
-2.71892e-08
-1.48875e-07
9.42459e-07
6.53818e-07
8.56827e-07
-8.36658e-06
5.23174e-07
6.0592e-07
7.70035e-06
-2.45476e-06
5.79448e-07
-7.56991e-07
2.6323e-06
-5.09855e-06
3.28374e-08
3.55733e-07
5.35202e-06
-9.24945e-06
2.76249e-07
-3.28488e-07
7.77719e-08
9.8727e-06
-2.67784e-06
-5.63679e-08
-2.54041e-07
2.98825e-06
-8.69038e-07
-4.15363e-07
2.75189e-07
1.00921e-06
5.17574e-07
-2.04734e-07
2.49423e-08
-3.37782e-07
9.38538e-07
1.98405e-07
-8.14623e-06
-2.57196e-07
-9.24141e-07
8.19062e-06
2.52011e-07
-8.59591e-06
9.14651e-08
6.78816e-07
-1.2802e-06
8.85382e-06
-5.38273e-06
-4.50187e-07
6.44089e-07
8.27991e-07
5.35604e-06
-9.952e-07
-9.65546e-08
6.39471e-07
-4.88712e-06
-1.07313e-06
-4.31475e-08
5.46048e-06
-5.33572e-06
-2.4376e-06
5.97574e-05
9.69325e-07
1.45432e-06
8.78843e-07
1.75108e-06
1.08475e-06
9.55718e-07
1.07715e-06
1.23036e-06
-1.80251e-06
-1.67652e-06
6.64008e-05
1.76881e-06
1.39639e-06
1.94355e-06
1.5931e-06
-2.26381e-08
-4.11683e-08
3.40437e-05
-4.29529e-07
-1.4611e-07
-5.3419e-07
-1.59085e-07
3.09852e-07
-1.44015e-07
2.90285e-07
-4.29449e-06
3.86251e-07
-6.85892e-07
4.57149e-06
-2.26494e-06
5.49917e-08
-3.77857e-07
2.58781e-06
1.45223e-06
-1.01056e-05
4.51616e-07
-2.03166e-06
-3.19066e-07
1.05525e-05
-4.79569e-06
-5.76486e-07
7.74571e-05
1.94518e-06
1.86368e-06
2.40273e-06
2.30888e-06
1.62169e-06
2.68326e-06
7.72083e-05
1.02044e-06
1.4799e-08
5.19283e-05
9.19556e-07
1.08494e-06
9.89501e-07
3.36515e-07
1.51766e-07
2.75084e-07
-8.31555e-06
6.05256e-07
7.38338e-07
-9.61889e-07
8.95429e-06
-5.54395e-06
-1.49817e-07
-5.60568e-07
3.96203e-07
6.00342e-06
-1.45289e-07
-3.19452e-06
8.35256e-07
5.15425e-05
7.80155e-07
4.03797e-07
7.93659e-07
3.09797e-07
4.02542e-07
8.08783e-07
4.82694e-07
-2.28638e-07
5.85386e-07
5.48893e-05
1.12942e-09
1.34497e-07
8.13911e-08
7.60937e-07
6.32666e-07
7.05578e-07
-7.77585e-06
2.97345e-07
-1.03263e-07
7.36793e-06
-2.77091e-06
5.39641e-07
-5.93644e-07
2.82492e-06
-5.57864e-06
-5.54712e-08
5.73142e-07
5.89622e-06
-1.05434e-05
2.55749e-08
-5.6507e-08
-2.94533e-08
1.11891e-05
-3.15086e-06
3.83362e-07
-3.90761e-07
3.15826e-06
-1.12592e-06
-3.69437e-07
2.51266e-07
1.24409e-06
1.40334e-07
-1.57711e-07
-3.75451e-08
5.49223e-08
1.02285e-06
2.51627e-07
-8.0123e-06
4.4105e-08
-9.31047e-07
7.62477e-06
1.79698e-07
-8.94879e-06
-5.64894e-07
1.11418e-06
-7.2774e-07
8.94755e-06
-5.14913e-06
-3.27445e-07
6.04938e-07
1.21836e-06
4.81802e-06
-1.16474e-06
1.01741e-07
2.98266e-07
-6.06854e-06
-7.14939e-07
-2.03081e-07
6.58656e-06
-3.62808e-06
-2.98334e-06
5.92134e-05
7.54783e-07
1.29759e-06
8.31839e-07
1.37043e-06
7.1983e-07
7.44579e-07
3.89658e-07
1.04675e-06
-8.62965e-07
-3.27239e-06
6.18824e-05
1.34877e-06
9.94275e-07
1.57592e-06
1.10667e-06
-1.96081e-07
5.30837e-07
3.55873e-05
-1.1196e-06
-4.4194e-07
-1.03078e-06
-3.57684e-07
2.43414e-07
-2.79022e-07
2.44278e-07
-4.75422e-06
4.1884e-07
-8.01145e-07
4.94044e-06
-2.92964e-06
2.43135e-08
-3.51686e-07
3.25701e-06
1.48786e-06
-1.09871e-05
5.8969e-07
-1.96463e-06
-4.30666e-07
1.13048e-05
-4.1271e-06
2.62725e-08
7.18393e-05
1.59979e-06
1.54838e-06
1.80393e-06
1.78324e-06
1.33921e-06
8.21457e-07
6.76481e-05
1.01879e-06
-4.96061e-07
5.03189e-05
9.75933e-07
1.09649e-06
1.06954e-06
5.43465e-09
-2.1758e-07
2.68647e-08
-9.57635e-06
5.88963e-07
7.45387e-07
-8.02092e-07
1.00629e-05
-6.33073e-06
-4.56033e-07
7.14233e-08
6.03559e-07
6.42905e-06
-3.17269e-07
-9.48506e-07
9.90977e-07
4.88084e-05
1.23059e-07
1.50588e-08
1.94743e-07
-2.66021e-08
7.15391e-07
8.99459e-07
7.96835e-07
7.3911e-08
3.85862e-07