/*--------------------------------*- C++ -*----------------------------------*\
| =========                 |                                                 |
| \\      /  F ield         | OpenFOAM: The Open Source CFD Toolbox           |
|  \\    /   O peration     | Version:  5.x                                   |
|   \\  /    A nd           | Web:      www.OpenFOAM.org                      |
|    \\/     M anipulation  |                                                 |
\*---------------------------------------------------------------------------*/
FoamFile
{
    version     2.0;
    format      ascii;
    class       volVectorField;
    location    "2";
    object      U;
}
// * * * * * * * * * * * * * * * * * * * * * * * * * * * * * * * * * * * * * //

dimensions      [0 1 -1 0 0 0 0];

internalField   nonuniform List<vector> 
10571
(
(-0.00398639 0.108249 0.746414)
(0.0144365 0.0430445 0.586268)
(-0.0254139 -0.10657 0.750356)
(-0.113117 -0.176319 0.931181)
(-0.16488 -0.162867 0.931788)
(-0.133059 -0.0213915 0.760032)
(-0.302093 -0.331455 0.910349)
(-0.0743416 -0.424555 1.01244)
(-0.0527728 -0.343135 1.03414)
(-0.0190131 -0.116695 0.946642)
(0.117305 -0.0330502 0.626148)
(-0.210364 -0.157542 0.892732)
(-0.398649 -0.104601 0.96787)
(-0.0740589 -0.0923029 0.952636)
(0.0833733 -0.0230019 0.995514)
(0.12155 0.040704 0.937786)
(-0.161885 -0.107358 0.892378)
(-0.27679 0.0567592 0.948033)
(-0.0112559 0.154387 0.953001)
(0.142699 0.217047 0.943647)
(-0.0111217 0.0131856 0.858935)
(-0.0412176 0.0813637 0.982263)
(-0.00759242 0.194118 1.0704)
(-0.0415442 0.0303219 0.852711)
(0.639026 0.0262113 1.29107)
(0.0170292 0.0271076 0.554571)
(0.330363 0.197503 0.850996)
(0.396893 0.583963 1.19763)
(-0.0942272 0.0958679 0.943033)
(0.108208 0.18523 0.788248)
(0.0590225 0.0265136 0.496413)
(0.0864419 0.0819703 0.604416)
(-0.0398684 0.0525851 0.454021)
(-0.184247 -0.0466636 0.853756)
(0.053273 0.036679 0.86881)
(0.0245089 -0.0377253 0.805328)
(0.0775405 0.0116161 0.42329)
(0.0465071 -0.0074841 0.469216)
(-0.0672189 -0.0732729 0.47364)
(-0.137888 0.0174081 0.822973)
(-0.136091 -0.34759 0.956132)
(0.0417341 -0.0508788 0.397176)
(-0.0241303 -0.0971105 0.466425)
(-0.0795153 -0.144433 0.900494)
(0.0209796 -0.0436355 0.943954)
(0.107391 -0.463017 1.13666)
(0.285049 -1.08404 1.46401)
(-0.335228 0.293568 1.24739)
(-0.0217446 0.108963 0.481135)
(0.00584754 -0.0398745 0.170216)
(-0.0287204 -0.0378796 0.153321)
(0.0496809 -0.0812856 0.216051)
(0.0492465 0.0023278 0.350744)
(0.0471529 -0.169879 0.308622)
(0.293713 0.189075 0.82445)
(0.0633092 0.415223 1.30164)
(-0.0867978 0.151078 1.42802)
(-0.053958 0.0255104 0.752196)
(-0.0227735 0.00724287 0.199393)
(0.130719 0.0814282 0.482427)
(0.299221 0.0212523 0.858692)
(0.0650443 0.0170766 1.11887)
(-0.0838158 -0.116333 1.19267)
(-0.0380863 -0.0132969 0.67524)
(0.0425176 0.122774 0.180206)
(0.0637885 -0.0415031 0.943517)
(-0.0210264 -0.0743517 1.20622)
(-0.0141049 -0.0347706 0.528771)
(0.00226717 -0.0143949 0.563152)
(0.0011208 -0.0190181 0.311381)
(-0.00771115 -0.0338225 0.378576)
(0.0142412 -0.0171394 0.395664)
(-0.032994 -0.031933 0.68911)
(-0.0210194 0.0879607 0.0194819)
(0.129987 0.184897 0.0464938)
(-0.0859564 0.231807 0.181689)
(-0.0513414 0.00101163 -0.247857)
(-0.00836595 0.407501 0.696706)
(0.308486 0.286083 0.851042)
(-0.155324 0.216064 0.883492)
(-0.0518837 0.0591228 0.541159)
(-0.00108158 0.0584704 -0.00892192)
(-0.0212266 -0.0456639 0.746713)
(0.00342171 -0.19189 1.017)
(0.120096 -0.114237 0.660925)
(-0.0870232 -0.0242219 0.426919)
(0.0608809 -0.0453141 0.409531)
(0.00486379 0.0194775 0.0319987)
(-0.135015 -0.310542 0.0961913)
(0.129338 -0.229429 0.509212)
(-0.138742 -0.0212911 0.592547)
(-0.0417305 -0.15129 -0.0843669)
(0.0490264 -0.117711 -0.0765606)
(0.0167205 -0.151658 -0.0424639)
(-0.0326617 -0.0765359 0.0150645)
(-0.041275 0.00323013 -0.26267)
(-0.0515121 0.00433144 0.752697)
(0.021512 -0.0263604 0.0539909)
(0.0177534 0.0218294 0.0716668)
(-0.103835 -0.010789 0.345125)
(-0.0944726 -0.0263082 -0.108419)
(-0.001082 -0.0469188 0.347981)
(0.227689 0.177694 0.6847)
(-0.0789802 0.148603 0.870019)
(-0.0345903 0.0892695 0.656001)
(0.121293 0.0923512 0.168703)
(-0.0105956 -0.0395298 0.502204)
(0.00650284 -0.0393833 0.718984)
(0.105069 -0.0310247 0.659368)
(-0.0226947 -0.0131935 0.704745)
(0.0132396 -0.072396 0.625615)
(0.0224354 -0.009558 0.242579)
(0.0206951 -0.0225591 0.0506536)
(0.129022 -0.178438 0.515641)
(-0.179393 -0.0229904 0.61622)
(0.0380906 -0.027949 -0.0520041)
(0.0375882 0.0650789 0.251226)
(0.0893995 0.00782911 -0.0587091)
(-0.0255197 -0.055741 0.246401)
(-0.0250586 0.0422763 0.226685)
(-0.037471 0.0116975 0.689395)
(0.0622956 -0.0680828 0.087241)
(-0.061586 -0.0562385 0.161246)
(-0.0368989 -0.0565621 0.339545)
(0.00759199 0.0434301 -0.0686937)
(0.0279915 -0.0910243 0.276544)
(0.198131 0.153689 0.756825)
(-0.0967764 0.142069 0.940936)
(-0.0338113 0.12482 0.619651)
(0.0909765 0.12774 0.206389)
(-0.11844 0.0531908 -0.010952)
(-0.00504149 -0.0118861 0.483787)
(0.00692092 0.0370099 0.591316)
(0.104465 -0.0182378 0.756379)
(0.0120736 0.0399443 0.794014)
(-0.00093051 -0.105179 0.612507)
(0.0459796 -0.020482 0.230493)
(0.105914 0.016466 0.11812)
(0.106331 0.131439 0.12073)
(0.168197 -0.12669 0.534681)
(-0.198521 -0.0236729 0.666766)
(0.107226 -0.0120982 0.0883427)
(0.0335371 0.0470506 0.318232)
(0.0705859 0.152599 0.112466)
(-0.0341778 0.0208449 0.245253)
(-0.0263515 0.00721374 0.21024)
(-0.0455784 0.00222548 0.65887)
(0.0162207 -0.00573282 0.0457136)
(-0.0385009 -0.0495009 0.254613)
(-0.0385972 -0.0422379 0.346032)
(-0.0121256 0.0132422 -0.0112376)
(0.0857861 -0.0273198 0.256366)
(0.18177 0.153921 0.72498)
(-0.0790648 0.147615 0.965053)
(-0.0334208 0.175204 0.543624)
(-0.0236383 0.0634593 0.104348)
(-0.095587 0.000854769 -0.00979616)
(0.00188323 0.00550946 0.543442)
(0.0481485 0.056839 0.455624)
(0.0907638 0.0125933 0.818609)
(0.0179987 0.0600624 0.846136)
(0.0128954 -0.106628 0.631119)
(0.0581676 -0.0153334 0.26832)
(0.0728174 0.0225702 0.157232)
(0.0849475 0.098716 0.147973)
(0.184723 -0.0906423 0.529634)
(-0.185835 -0.016529 0.656281)
(0.0571823 0.00723374 0.16923)
(0.033178 0.0106327 0.251659)
(0.0148367 0.0121872 0.0448514)
(0.00152269 0.0948114 0.180617)
(-0.0510733 0.0621207 0.316654)
(0.046165 0.0301513 0.00899517)
(-0.0499041 -0.0018957 0.660108)
(-0.0377496 0.0502392 0.0195059)
(-0.0481128 0.0166682 0.314503)
(-0.0477861 0.0264352 0.359734)
(-0.0277869 0.0291549 0.0314904)
(0.0875046 -0.0157168 0.201611)
(0.147083 0.117956 0.648724)
(-0.0438116 0.147872 0.943327)
(-0.0281811 0.177695 0.540414)
(-0.0578348 -0.0315795 0.100204)
(-0.0392309 -0.0639113 -0.0263171)
(0.0125015 0.0226472 0.548217)
(0.0609604 0.00854052 0.413838)
(0.0811163 0.0352988 0.825537)
(0.0371352 0.0748732 0.896096)
(0.0372417 -0.0685171 0.649245)
(0.0439372 -0.0337913 0.328947)
(0.0662863 -0.00564696 0.172828)
(0.0497921 0.0624239 0.13036)
(0.180535 -0.0725427 0.546559)
(-0.128203 -0.00903701 0.657296)
(0.0211416 0.0307198 0.221285)
(-0.0907887 0.0650485 0.142149)
(0.0527599 0.0139741 0.0278616)
(-0.0651136 0.0203399 0.209472)
(-0.0644171 0.0688932 0.367653)
(0.0435748 0.0292157 -0.00181364)
(-0.0456241 0.0277049 0.60049)
(-0.0404784 0.0587747 0.00760748)
(-0.0765665 0.0880771 0.33641)
(-0.0636965 0.0765335 0.365299)
(-0.0280905 0.0538755 0.0116482)
(0.0737048 -0.025902 0.182666)
(0.112315 0.0843901 0.621266)
(0.0122318 0.114161 0.921191)
(-0.0318997 0.168103 0.539504)
(-0.0951913 -0.106588 0.062516)
(-0.00165774 -0.108268 -0.0616485)
(0.0307846 0.066673 0.48714)
(0.0853096 -0.00258145 0.421903)
(0.073137 0.0641112 0.826785)
(0.0618478 0.0935279 0.936438)
(0.0484231 -0.0181489 0.694697)
(0.0324374 -0.067538 0.355256)
(0.0697766 -0.0375301 0.12479)
(0.0510803 0.0421781 0.122979)
(0.172992 -0.0722833 0.567746)
(-0.0740705 -0.00786798 0.679304)
(0.0441326 0.0399329 0.291214)
(-0.0632673 0.081454 0.113448)
(-0.0815237 -0.00747302 0.206924)
(-0.0612518 0.0659979 0.378568)
(0.027733 0.0250409 0.0151579)
(-0.019995 0.0340474 0.415712)
(-0.00527712 0.0206203 -0.0148339)
(-0.0707582 0.124088 0.319571)
(-0.0711173 0.0865384 0.310268)
(-0.0256773 0.0300313 0.0146644)
(0.0492248 -0.0169025 0.182183)
(0.0973592 0.0902501 0.621016)
(0.0304845 0.0905618 0.917219)
(-0.0578097 0.125735 0.525108)
(-0.0954579 -0.12828 0.0338943)
(0.0207917 0.0654799 0.361318)
(0.134501 0.0072592 0.391074)
(0.063513 0.0939349 0.852574)
(0.070978 0.109335 0.976592)
(0.0564382 0.00314038 0.722965)
(-0.012426 -0.0444622 0.29794)
(0.0393537 0.0135193 0.126666)
(0.150128 -0.0841979 0.587361)
(-0.0555486 0.000610757 0.712743)
(0.0633317 0.0501942 0.35985)
(-0.0269253 0.05396 0.101018)
(-0.0826248 -0.00365994 0.198409)
(-0.0575177 0.0648573 0.371221)
(0.0189817 0.0236259 0.0448448)
(0.0184518 0.0219288 0.247711)
(0.0143782 -0.0119027 -0.0464258)
(-0.0593271 0.134667 0.284219)
(-0.056587 0.0915972 0.271638)
(-0.0303434 -0.00369515 0.0422665)
(0.0270903 0.00283491 0.175721)
(0.0873115 0.0918553 0.633552)
(0.024114 0.0802392 0.925848)
(-0.0695378 0.0422564 0.519876)
(-0.0094089 -0.0807684 0.0398226)
(0.0118303 0.0390412 0.246771)
(0.134206 0.00833824 0.340106)
(0.0451186 0.0912944 0.89163)
(0.0586229 0.0983818 1.00826)
(0.064357 0.00528469 0.74099)
(0.0339113 -0.0409954 0.265709)
(0.0124086 -0.00980358 0.124331)
(0.0830006 -0.0866557 0.609896)
(-0.0557532 0.00566244 0.723188)
(0.0649328 0.052734 0.405529)
(0.0154893 -0.00144322 0.10676)
(-0.0710274 0.0132814 0.200029)
(-0.0491399 0.0622535 0.356012)
(0.0170345 0.0199561 0.0797973)
(0.0524905 0.0115252 0.116185)
(0.0133303 -0.0131674 -0.0658961)
(-0.0263074 0.0960715 0.26211)
(-0.0875876 0.0623787 0.273644)
(-0.0325275 -0.0338211 0.0921849)
(0.00379416 0.0306397 0.167279)
(0.054061 0.0724987 0.657092)
(-0.00400061 0.0559884 0.936963)
(-0.0379516 -0.0501994 0.493978)
(0.0168691 -0.0535357 0.0753668)
(0.00408299 0.0121291 0.208469)
(0.0587698 -0.00152765 0.327377)
(0.011325 0.0357422 0.920463)
(0.0309311 0.0559335 1.0189)
(0.0663832 0.0100241 0.733223)
(0.0343673 -0.0340082 0.246379)
(-0.0158679 -0.0158804 0.12476)
(-0.0170351 -0.0664132 0.615973)
(-0.0595809 0.00708364 0.714123)
(0.0554985 0.0606792 0.407968)
(0.0309101 -0.014627 0.150787)
(-0.0344711 0.0444205 0.216801)
(-0.0507671 0.0513196 0.33999)
(0.0130924 0.0181614 0.126348)
(0.063999 0.00349178 0.0763484)
(-0.00497221 -0.00424569 -0.066334)
(-0.0392377 -0.00129805 0.283342)
(-0.103784 -0.0146257 0.30815)
(-0.0145593 -0.0165888 0.156836)
(-0.0356279 0.0525984 0.165874)
(-0.0401985 0.019405 0.657254)
(-0.0393348 0.0255604 0.908231)
(0.00402427 -0.0979161 0.43403)
(0.0273144 -0.042981 0.131126)
(0.000281861 0.00714739 0.218553)
(-0.0386932 -0.0157226 0.357637)
(-0.0429726 0.00141353 0.9116)
(0.00489085 0.0294213 1.00058)
(0.0707731 0.0457644 0.683208)
(0.0434483 -0.0417584 0.248786)
(-0.0303565 -0.0109247 0.14354)
(-0.0729587 -0.0421108 0.599704)
(-0.066827 0.0309458 0.673286)
(0.0416382 0.0803188 0.378942)
(0.0388545 -0.0246159 0.190502)
(0.0031524 0.0674504 0.240369)
(-0.0505201 0.0383068 0.340317)
(0.0155513 0.0167164 0.190503)
(0.0703387 6.08154e-05 0.0933221)
(-0.0154411 0.00120379 -0.0534519)
(-0.0246184 -0.0494883 0.335121)
(-0.0587745 -0.0472559 0.346876)
(0.026643 0.0355826 0.201304)
(-0.0705857 0.0494827 0.185526)
(-0.0995385 -0.0427828 0.624339)
(-0.0777539 -0.0259598 0.806365)
(0.0216769 -0.0767263 0.377025)
(0.0151775 -0.0410731 0.187308)
(-0.00427527 0.00917572 0.266758)
(-0.0992174 -0.024123 0.407706)
(-0.111297 0.0109424 0.862604)
(-0.00810055 0.033762 0.948571)
(0.0732801 0.0581064 0.601335)
(0.0573713 -0.0495823 0.284787)
(-0.03003 0.00348101 0.182918)
(-0.0826986 -0.0328611 0.577761)
(-0.0651045 0.0659256 0.627756)
(0.022393 0.0717724 0.337606)
(0.0410418 -0.0374071 0.231422)
(0.0275569 0.0837926 0.263408)
(-0.0340202 0.0288089 0.376641)
(0.0322323 0.00383464 0.261079)
(0.0709014 0.0015194 0.13485)
(-0.016535 0.0005304 -0.0312913)
(-0.0148371 -0.0649367 0.360588)
(0.0123827 -0.0236619 0.385091)
(0.0606124 0.0656265 0.21281)
(-0.0708569 0.0174479 0.227159)
(-0.0856105 -0.0796712 0.599238)
(-0.0900203 -0.0821108 0.69287)
(0.0253652 -0.015659 0.353701)
(-0.0119656 -0.0416015 0.225811)
(-0.00898213 0.0148719 0.345938)
(-0.128082 -0.0412701 0.45586)
(-0.145296 0.00022162 0.805584)
(-0.0176227 0.0233096 0.833304)
(0.0726735 0.0145373 0.5571)
(0.0620845 -0.0475489 0.337151)
(-0.0123338 0.0251155 0.227266)
(-0.0688757 -0.0156176 0.557524)
(-0.0456954 0.0631868 0.59302)
(0.0142944 0.0125198 0.316818)
(0.0351249 -0.0411546 0.253896)
(0.0359244 0.0922781 0.28802)
(-0.0100949 0.0265187 0.426886)
(0.0466906 -0.0125277 0.289956)
(0.0664552 0.00323463 0.169196)
(-0.0102043 -0.0050875 -0.00280726)
(-0.0203748 -0.0847569 0.344461)
(0.0640363 -0.0078823 0.392796)
(0.0680114 0.0686735 0.196688)
(-0.0408944 -0.00879845 0.278784)
(-0.0518375 -0.0740103 0.592702)
(-0.0672335 -0.10623 0.631897)
(0.034318 0.0434333 0.360924)
(-0.0338861 -0.0466169 0.246324)
(-0.00958535 0.0285643 0.442819)
(-0.127567 -0.0629708 0.490121)
(-0.111975 -0.0282278 0.747555)
(-0.0267529 -0.00586076 0.722926)
(0.0683592 -0.0216079 0.535277)
(0.0636484 -0.0427077 0.384667)
(0.0232958 0.0454542 0.250804)
(-0.0237458 0.0301977 0.527639)
(-0.0103018 0.0303946 0.558593)
(0.0278779 -0.0259185 0.323383)
(0.0184947 -0.0167361 0.264404)
(0.0302715 0.0849447 0.322251)
(0.0068326 0.0255823 0.481375)
(0.0422682 -0.017176 0.266235)
(0.0414796 0.000326591 0.2121)
(0.00181184 -0.0124524 0.0228807)
(-0.0212193 -0.0882951 0.302306)
(0.0745654 -0.0293966 0.405511)
(0.0431665 0.0454089 0.169897)
(-0.0147177 -0.0117701 0.303302)
(-0.00762982 0.00121091 0.586384)
(-0.0364301 -0.0868018 0.610384)
(0.041085 0.0859785 0.387064)
(-0.0471558 -0.0543954 0.261966)
(-0.00881287 0.0465941 0.526033)
(-0.0944017 -0.0670865 0.5142)
(-0.052005 -0.0322843 0.700577)
(-0.0259276 -0.0161046 0.641543)
(0.0642223 -0.0275194 0.526194)
(0.0653105 -0.0430574 0.420182)
(0.0374445 0.0473078 0.250563)
(0.0343362 0.0576519 0.494395)
(0.018788 0.00153134 0.540902)
(0.036399 -0.0356661 0.337099)
(0.00412797 0.0135204 0.275189)
(0.0210001 0.0583428 0.366422)
(-0.00327203 0.0196414 0.527823)
(0.0272535 -0.00821636 0.227988)
(0.023304 0.00052815 0.262346)
(0.0138086 -0.0148664 0.0398472)
(-0.0152334 -0.0668634 0.286029)
(0.0117563 -0.0081557 0.418315)
(0.0087947 0.0125749 0.159956)
(0.0065077 -0.00453185 0.297714)
(0.0240665 0.0585332 0.564273)
(0.00735104 -0.0121068 0.605827)
(0.0450581 0.114483 0.414766)
(-0.0561289 -0.0644092 0.272132)
(-0.0121816 0.0278882 0.582408)
(-0.0672846 -0.0627522 0.529875)
(0.000785695 -0.00830317 0.67537)
(-0.00369687 0.00613847 0.603654)
(0.063977 -0.0174084 0.52394)
(0.06346 -0.0445113 0.44898)
(0.0183185 0.0375181 0.244197)
(0.0633601 0.0460306 0.474558)
(0.0287673 -0.00704275 0.540781)
(0.0419033 -0.0344619 0.362034)
(-0.000392421 0.0274945 0.289503)
(0.012279 0.0195234 0.398548)
(-0.0358535 0.0160166 0.556667)
(0.0114294 -0.00208312 0.214079)
(0.0192661 0.00116907 0.295263)
(0.0221101 -0.0148973 0.0483094)
(-0.00517372 -0.0378009 0.300927)
(-0.0237522 0.0203185 0.37875)
(-0.0171577 -0.0162306 0.158176)
(0.0262532 -0.00281838 0.297901)
(0.0427249 0.048801 0.532958)
(0.0538558 0.0632056 0.594148)
(0.0567839 0.131671 0.446665)
(-0.0619523 -0.0730294 0.270775)
(-0.0150285 0.0115434 0.6452)
(-0.0644628 -0.0623178 0.527138)
(0.0344086 0.011812 0.647786)
(0.0341361 0.0369746 0.601157)
(0.0703662 0.00409414 0.54023)
(0.0626001 -0.0356352 0.479175)
(-0.0184407 0.0177324 0.240889)
(0.0564494 0.0182345 0.467142)
(0.0277628 -0.00397023 0.548312)
(0.038469 -0.0299358 0.388007)
(-0.000987266 0.0326935 0.308326)
(0.00122039 -0.00482837 0.406877)
(-0.0656181 0.021441 0.569424)
(-0.00176143 0.00063034 0.212413)
(0.0267963 0.000181545 0.306737)
(0.026897 -0.0165859 0.0524197)
(0.00990234 -0.0126194 0.306087)
(-0.0133293 0.0198898 0.346847)
(-0.0227698 -0.0309861 0.155819)
(0.0341501 -0.0101162 0.297785)
(0.0671824 0.0223507 0.507324)
(0.0935139 0.0987317 0.577902)
(0.0645862 0.130565 0.485235)
(-0.0574615 -0.0792307 0.264183)
(-0.0161252 -0.0123457 0.729015)
(-0.0804862 -0.0633084 0.512734)
(0.0416849 0.00741941 0.616333)
(0.0688959 0.0486734 0.619209)
(0.0774944 0.0101772 0.578056)
(0.0621199 -0.0228646 0.513456)
(-0.0431563 -0.00139503 0.237853)
(0.0119528 -0.0396372 0.452873)
(0.0159161 -0.0047179 0.5642)
(0.0262671 -0.0253866 0.413137)
(-0.00299332 0.0384382 0.330391)
(-0.0200097 -0.00809447 0.402485)
(-0.0705892 0.023382 0.558681)
(-0.00563214 0.00179466 0.211338)
(0.0383333 0.00148155 0.298393)
(0.0285902 -0.0176419 0.0553633)
(0.0226211 0.01562 0.296784)
(-0.0249482 0.0357614 0.324789)
(-0.0222233 -0.0283794 0.156014)
(0.0304868 -0.0198372 0.264317)
(0.0849752 0.0154136 0.503463)
(0.119902 0.10414 0.583404)
(0.0407152 0.108546 0.517325)
(-0.0455049 -0.085146 0.255536)
(-0.00721968 -0.0277704 0.837346)
(-0.0597967 -0.0535969 0.489222)
(0.0406548 -0.0101356 0.596057)
(0.0919236 0.03972 0.642233)
(0.0845735 0.00687547 0.620458)
(0.0568993 -0.0192948 0.547809)
(-0.0417281 -0.00266918 0.232802)
(-0.0227011 -0.0807109 0.431073)
(0.00792692 -0.0217448 0.565655)
(0.0127088 -0.0197307 0.436962)
(-0.00952279 0.047543 0.347272)
(-0.0419974 -0.00622 0.379197)
(-0.00751828 -0.00198953 0.516431)
(0.00520468 0.000194858 0.211489)
(0.0466109 0.00207641 0.281294)
(0.0288679 -0.0179501 0.0602045)
(0.0328199 0.0268027 0.284709)
(-0.0481273 0.0389478 0.311067)
(-0.022919 -0.01918 0.15043)
(0.0386637 -0.0247554 0.219838)
(0.0888619 0.0204837 0.507886)
(0.127128 0.10141 0.6057)
(-0.0217641 0.0508159 0.550785)
(-0.0319944 -0.0848703 0.242496)
(0.0233275 0.0690966 0.896583)
(0.04282 -0.0210022 0.44568)
(0.0458589 -0.0311176 0.59255)
(0.103752 0.0267623 0.669163)
(0.0960472 0.00693518 0.67064)
(0.0366783 -0.0226989 0.570277)
(0.00162931 0.0139141 0.233099)
(-0.0312101 -0.0905256 0.41195)
(0.0014463 -0.0585359 0.564428)
(0.00736285 -0.0158653 0.458995)
(-0.0178116 0.0578869 0.35908)
(-0.0532562 0.00322511 0.346065)
(0.040327 -0.0446719 0.441142)
(0.0160152 -0.00343251 0.216109)
(0.050515 0.000850071 0.269402)
(0.0288546 -0.018418 0.0697462)
(0.0378577 0.0285458 0.279091)
(-0.0606791 0.0255882 0.313113)
(-0.0306582 -0.0296894 0.144851)
(0.0403486 -0.0273107 0.198037)
(0.083139 0.0362859 0.526648)
(0.122731 0.0833308 0.633753)
(-0.0712815 -0.0149091 0.581213)
(-0.00615493 -0.0676634 0.231623)
(-0.000184461 0.0847377 0.90265)
(0.11801 -0.0024546 0.405557)
(0.0530826 -0.0638509 0.613963)
(0.104576 0.0169967 0.702556)
(0.0992128 0.00352477 0.719075)
(0.00269441 -0.0344483 0.557469)
(0.0373813 0.0179113 0.244146)
(-0.0187007 -0.0732958 0.395147)
(-0.00262533 -0.0862094 0.558495)
(0.00557564 -0.00999642 0.480045)
(-0.0259643 0.0636521 0.369629)
(-0.0532648 0.0146912 0.335611)
(0.0410097 -0.0451567 0.391654)
(0.0184816 -0.00550461 0.217918)
(0.0508011 -0.000686204 0.269869)
(0.0283779 -0.0186393 0.0826812)
(0.0386892 0.0180936 0.282289)
(-0.0710595 0.0040666 0.331734)
(-0.0398491 -0.0519481 0.145107)
(0.0347931 -0.0269353 0.199455)
(0.073532 0.0385285 0.543575)
(0.106954 0.0546379 0.667538)
(-0.0905564 -0.0578334 0.586624)
(0.0328827 -0.0362361 0.235133)
(-0.00413048 0.07369 0.846963)
(0.120786 -0.00411185 0.403296)
(0.0456192 -0.0892001 0.635671)
(0.100632 0.00753491 0.734653)
(0.0810695 -0.0123144 0.754227)
(-0.0243348 -0.04618 0.499086)
(0.0500264 0.00765818 0.243301)
(0.00497805 -0.0460463 0.368082)
(-0.00243096 -0.0920446 0.544045)
(0.00830788 -0.00161575 0.497328)
(-0.0314598 0.06275 0.37448)
(-0.0532632 0.00715554 0.338947)
(0.00664286 0.00265004 0.381918)
(0.0104501 -0.00111409 0.21992)
(0.0552322 -0.00186902 0.290464)
(0.0249378 -0.0160387 0.097925)
(0.03331 -0.0173118 0.299811)
(-0.0780657 -0.0216564 0.362527)
(-0.0446888 -0.0531349 0.157845)
(0.03787 -0.0287482 0.203415)
(0.0593355 0.0186562 0.548969)
(0.0623787 0.0425098 0.701241)
(-0.0844723 -0.0744479 0.56496)
(0.0705079 -0.0109567 0.251117)
(0.0315733 -0.0453985 0.477301)
(0.0302735 -0.00565814 0.414217)
(0.0265095 -0.0950151 0.646899)
(0.0926575 -0.00497575 0.767042)
(0.0408608 -0.0208345 0.769655)
(-0.012766 -0.0249331 0.446667)
(0.044733 0.00114698 0.230412)
(0.00859717 -0.0403282 0.343731)
(0.00894714 -0.0734588 0.525886)
(0.0199131 0.0085921 0.508713)
(-0.0313965 0.0616681 0.368923)
(-0.063757 -0.0277383 0.326094)
(-0.0154641 0.0204715 0.35408)
(-0.00967528 0.00881315 0.233565)
(0.0607437 0.000467495 0.320382)
(0.0157319 -0.00880659 0.115887)
(0.0190705 -0.0526528 0.333112)
(-0.0694814 -0.0483712 0.399828)
(-0.0381333 -0.0237255 0.185169)
(0.0410243 -0.0245592 0.205315)
(0.030545 -0.0346356 0.548009)
(0.00366635 0.0379839 0.717036)
(-0.0464226 -0.077863 0.498757)
(0.09528 -0.00160943 0.271323)
(-0.000584545 -0.0465054 0.332222)
(-0.0380383 -0.00510763 0.385046)
(0.014661 -0.0883257 0.64276)
(0.0665922 -0.0144452 0.798991)
(-0.000205818 -0.000629921 0.760535)
(0.0109793 0.00449278 0.425876)
(0.0246218 -0.00041911 0.223124)
(0.0065665 -0.035771 0.326048)
(0.018874 -0.0184533 0.504464)
(0.0364844 0.0248771 0.523889)
(-0.0269945 0.0560431 0.360142)
(-0.0717141 -0.0621257 0.289111)
(-0.0316655 0.0221378 0.321365)
(-0.0301156 0.0192804 0.254238)
(0.0483754 0.00236809 0.352735)
(0.00170037 0.00211521 0.135933)
(-0.00249904 -0.061011 0.377418)
(-0.0378413 -0.0783686 0.439957)
(-0.0166623 0.00739038 0.216058)
(0.0431877 -0.014314 0.208823)
(0.0259799 -0.0644314 0.539251)
(-0.0338194 0.0102158 0.706217)
(-0.00704333 -0.0607778 0.413033)
(0.0896213 -0.00548913 0.30385)
(-0.00671882 -0.0352902 0.313871)
(-0.0582845 -0.00427603 0.364799)
(0.00666754 -0.0652161 0.620301)
(0.0336498 -0.0135748 0.812741)
(-0.00655211 0.0354397 0.726042)
(0.0338276 0.0138893 0.432181)
(-0.00127941 -0.00213656 0.226788)
(0.00712853 -0.0244652 0.324071)
(-0.00661301 0.0219785 0.492481)
(0.0405841 0.0484873 0.545812)
(-0.0159729 0.0447339 0.360123)
(-0.0619892 -0.0667058 0.258718)
(-0.0491743 0.0180813 0.303243)
(-0.0478888 0.0290306 0.277992)
(0.0242732 -0.001213 0.392089)
(-0.0145436 0.0138167 0.154321)
(-0.0250396 -0.0391339 0.420641)
(-0.0115975 -0.104463 0.478347)
(0.0100936 0.0217644 0.242564)
(0.0389347 -0.00216681 0.21276)
(0.0338378 -0.0693062 0.521993)
(-0.0448515 -0.0280574 0.682463)
(0.00811019 -0.0289355 0.348635)
(0.0555747 -0.0170015 0.336565)
(-0.00576963 -0.0227943 0.316963)
(-0.0260894 0.0054462 0.364687)
(0.00365157 -0.0116241 0.583856)
(0.0158845 -0.00821558 0.801098)
(0.0223753 0.0663411 0.669175)
(0.0622809 0.000227122 0.456547)
(-0.0266437 -0.00966771 0.236181)
(0.00442912 -0.00267987 0.350469)
(-0.0517854 0.0399279 0.484058)
(0.0341782 0.0764084 0.555118)
(-0.00271345 0.0347412 0.383959)
(-0.033946 -0.0402613 0.252661)
(-0.064431 0.00210347 0.299998)
(-0.0687464 0.0398369 0.302896)
(0.0115553 -0.00793592 0.440758)
(-0.0286715 0.0231766 0.171596)
(-0.0408963 0.00523965 0.440314)
(-0.0124049 -0.113323 0.507699)
(0.0304114 0.0300896 0.257535)
(0.0289918 0.011155 0.215102)
(0.0314832 -0.0657596 0.5068)
(-0.0508867 -0.0525284 0.654156)
(0.00981858 0.00312773 0.306337)
(0.0105019 -0.0377708 0.358174)
(-0.00264153 -0.0176875 0.308328)
(0.0228705 0.0158083 0.357317)
(0.0102511 0.026077 0.561115)
(0.00362014 -0.00266405 0.761392)
(0.042739 0.0764012 0.609186)
(0.0701882 -0.00898711 0.484766)
(-0.0425225 -0.0204151 0.250663)
(-0.0070078 0.015621 0.397788)
(-0.0905156 0.0395624 0.483028)
(0.02143 0.0953042 0.548006)
(0.00456504 0.0337852 0.434998)
(-0.00421464 -0.00515921 0.267919)
(-0.0590758 -0.0083129 0.303338)
(-0.0842477 0.0470212 0.32831)
(-0.000825378 -0.0122818 0.495755)
(-0.0379329 0.0277171 0.191801)
(-0.0513577 0.0447125 0.421691)
(-0.0230235 -0.113495 0.535171)
(0.0391249 0.0409141 0.252533)
(0.0208084 0.0239536 0.220187)
(0.0213133 -0.0620172 0.504748)
(-0.0588177 -0.0664519 0.620049)
(0.00882567 0.0268202 0.287283)
(-0.0297929 -0.0620471 0.367209)
(-0.000247308 -0.0199622 0.295247)
(0.0429804 0.0111475 0.348263)
(0.0118297 0.0395877 0.547041)
(-0.011867 0.000203247 0.722525)
(0.0294001 0.0598446 0.563943)
(0.053524 -0.016919 0.493566)
(-0.0506875 -0.0348053 0.268959)
(-0.0201354 0.0213427 0.437066)
(-0.110896 0.0246097 0.489533)
(0.0108498 0.0877675 0.539358)
(0.00467243 0.0331312 0.495823)
(0.00926368 0.0205212 0.288849)
(-0.0259308 -0.00663915 0.312113)
(-0.0694791 0.0378079 0.346852)
(-0.0242958 -0.00926622 0.541574)
(-0.042586 0.0289172 0.214483)
(-0.059795 0.0469475 0.406768)
(-0.0361071 -0.104067 0.557466)
(0.0384406 0.0455861 0.238597)
(0.0157539 0.0327264 0.230801)
(-0.00371965 -0.0453348 0.512705)
(-0.0495314 -0.0711482 0.583398)
(0.0105722 0.0406505 0.287808)
(-0.0512507 -0.0784115 0.378378)
(0.000561826 -0.0277377 0.287655)
(0.0424449 0.00203319 0.349661)
(0.000102516 0.0439901 0.538953)
(-0.0286781 0.00276857 0.694202)
(0.00509721 0.0319095 0.5442)
(0.0213841 -0.0678927 0.470253)
(-0.0565627 -0.0489571 0.286205)
(-0.0307194 0.0315929 0.467072)
(-0.111313 0.00394416 0.500887)
(-0.0243728 0.0499581 0.530024)
(0.0153287 -0.00490387 0.506061)
(0.0123539 0.0323506 0.308322)
(0.0141972 -0.0012503 0.319749)
(-0.0183903 0.00563027 0.359775)
(-0.030521 -0.00576178 0.550143)
(-0.0426026 0.0304846 0.234001)
(-0.0538956 0.00448118 0.404358)
(-0.0316004 -0.045386 0.559695)
(0.0374985 0.0368099 0.235205)
(0.0114215 0.0344064 0.247783)
(-0.0561873 0.0206177 0.512661)
(-0.0158359 -0.0419495 0.551589)
(0.0138578 0.0464457 0.304146)
(-0.0546522 -0.0725912 0.39632)
(-0.000644996 -0.042448 0.29118)
(0.0283528 -0.00695684 0.366439)
(-0.032394 0.0622306 0.538476)
(-0.0351254 0.0143591 0.673761)
(-0.00521304 0.0193883 0.542954)
(0.00515303 -0.0926454 0.445721)
(-0.0611316 -0.0575015 0.301545)
(-0.0346198 0.0550327 0.489404)
(-0.0944971 -0.00591026 0.512035)
(-0.0716281 0.0128343 0.519517)
(0.0280369 -0.0518141 0.426653)
(0.0117776 0.0350198 0.322603)
(0.050431 -0.00107273 0.322874)
(0.0350891 -0.0245248 0.35604)
(-0.0140397 -0.0031439 0.543793)
(-0.0378512 0.0301734 0.24399)
(-0.0463043 -0.0175972 0.396082)
(-0.0172416 -0.00527425 0.544928)
(0.0340298 0.0164673 0.238348)
(0.0144753 0.0260623 0.273643)
(-0.0850129 0.0828153 0.487419)
(0.0227598 0.0249846 0.509659)
(0.0105985 0.04532 0.33238)
(-0.0426544 -0.0531573 0.407625)
(-0.00286121 -0.0617626 0.304996)
(0.0114891 -0.0230275 0.389063)
(-0.0695839 0.0925682 0.544077)
(-0.0209566 0.0425305 0.655868)
(-0.00493331 0.0202607 0.545961)
(-0.000560769 -0.0673414 0.433437)
(-0.0654287 -0.0599784 0.311061)
(-0.0246678 0.0749447 0.510798)
(-0.0667093 0.008801 0.525237)
(-0.0662646 -0.00756955 0.508071)
(0.021671 -0.0477679 0.356989)
(0.00945264 0.0324453 0.332669)
(0.0724573 -0.00450709 0.327165)
(0.0670368 -0.0374142 0.342141)
(0.00365163 -0.00222344 0.551884)
(-0.0289858 0.0248504 0.245483)
(-0.0408049 -0.00163323 0.365944)
(-0.010738 -0.0207873 0.536376)
(0.0192103 -0.00301529 0.243857)
(0.0270518 0.00510503 0.305527)
(-0.0790253 0.102333 0.457258)
(0.0326586 0.0758218 0.45791)
(-0.00140643 0.0355249 0.357881)
(-0.0321464 -0.0428686 0.406444)
(-0.00555066 -0.0742578 0.321426)
(-0.00699475 -0.0521154 0.408333)
(-0.0782768 0.106282 0.551761)
(0.00464257 0.0784684 0.639568)
(0.000842903 0.0292563 0.560723)
(0.000387999 -0.0467758 0.429421)
(-0.0686606 -0.0566776 0.309668)
(-0.00701167 0.0687408 0.530631)
(-0.0271509 0.0441422 0.548322)
(-0.0366906 -0.011379 0.504664)
(0.0211351 -0.0441352 0.325316)
(0.00547651 0.0266346 0.336832)
(0.072438 -0.00519791 0.343382)
(0.0787778 -0.0410675 0.333188)
(-0.00204598 -0.00457222 0.604489)
(-0.0173658 0.0179068 0.244331)
(-0.0265535 0.006717 0.325515)
(-0.00452355 -0.0245403 0.478482)
(0.00205803 -0.0123541 0.247587)
(0.0357713 -0.0243645 0.334024)
(-0.0479152 0.0914127 0.443459)
(0.0207677 0.0929489 0.414893)
(-0.0173003 0.0182212 0.37917)
(-0.0337901 -0.0461032 0.398413)
(-0.0101602 -0.0732699 0.344969)
(-0.0337787 -0.0851831 0.417994)
(-0.0736959 0.107483 0.554926)
(0.0194019 0.0959034 0.62487)
(0.00964554 0.0368736 0.581448)
(0.00320371 -0.0457594 0.428831)
(-0.0695169 -0.0386599 0.303856)
(-0.00205792 0.0341149 0.542703)
(0.0125141 0.0682248 0.576584)
(-0.00264768 0.000452242 0.514347)
(0.0294237 -0.0541431 0.322803)
(0.00408622 0.0255337 0.333119)
(0.0525902 0.0019653 0.379106)
(0.0743774 -0.0402793 0.328015)
(0.00765258 0.010608 0.65144)
(-0.0054276 0.00901104 0.246427)
(-0.00736361 0.00633065 0.296808)
(0.0157279 0.02994 0.392167)
(-0.0056316 -0.00840041 0.249569)
(0.0278482 -0.0504282 0.353361)
(0.0103291 0.063052 0.437926)
(0.0033022 0.0901494 0.403064)
(-0.0323499 -0.00298629 0.396479)
(-0.0414556 -0.0579846 0.385784)
(-0.0107226 -0.0622956 0.384026)
(-0.0470737 -0.118653 0.419692)
(-0.0547349 0.0966669 0.56256)
(0.0218247 0.0936813 0.608565)
(0.0179359 0.031493 0.590299)
(0.0103482 -0.0576927 0.428887)
(-0.0581155 -0.0223308 0.299822)
(-0.0328742 -0.0382252 0.527482)
(0.0514604 0.0626405 0.597773)
(0.0309555 0.0181632 0.53357)
(0.0455573 -0.0755279 0.340412)
(0.0141305 0.0336195 0.322879)
(0.0213491 0.00859353 0.416983)
(0.055502 -0.0281215 0.327401)
(0.0162353 0.0113379 0.645818)
(0.00275744 0.000223188 0.256732)
(0.00715438 0.00494196 0.290185)
(0.0382468 0.0828036 0.316512)
(-0.00706899 -0.00211559 0.260337)
(0.00304435 -0.0523531 0.368369)
(0.0461345 0.0360219 0.440675)
(-0.0104084 0.0788405 0.416161)
(-0.0427151 -0.0257554 0.414242)
(-0.047476 -0.0650591 0.37624)
(-0.00347445 -0.0331167 0.414028)
(-0.0233967 -0.133633 0.434097)
(-0.0263654 0.0375351 0.57291)
(0.0213592 0.0836204 0.603082)
(0.0255372 0.0138105 0.589732)
(0.0204833 -0.0784883 0.434114)
(-0.0307775 -0.0175308 0.293625)
(-0.0614663 -0.0706231 0.477722)
(0.0763796 0.0218642 0.59553)
(0.0605826 0.0118937 0.549417)
(0.0604437 -0.095233 0.370039)
(0.0198214 0.0333142 0.314031)
(-0.00402396 0.013383 0.433271)
(0.0342896 -0.00849393 0.334809)
(0.00937143 0.00734975 0.58226)
(0.00667388 -0.00479966 0.274359)
(0.0143404 -0.000801334 0.301996)
(0.0457292 0.0948922 0.292226)
(-0.0142061 -0.00794007 0.283064)
(-0.0195345 -0.0384836 0.376212)
(0.0506532 0.0124817 0.450973)
(-0.0192394 0.0538907 0.449924)
(-0.0435768 -0.0434501 0.43541)
(-0.0464598 -0.0636319 0.373347)
(-0.00166466 -0.00709034 0.421005)
(-0.0101664 -0.101483 0.45467)
(-0.00677034 -0.0264163 0.577074)
(0.02179 0.0708716 0.611291)
(0.0292282 -0.0297924 0.586894)