/*--------------------------------*- C++ -*----------------------------------*\
| =========                 |                                                 |
| \\      /  F ield         | OpenFOAM: The Open Source CFD Toolbox           |
|  \\    /   O peration     | Version:  5.x                                   |
|   \\  /    A nd           | Web:      www.OpenFOAM.org                      |
|    \\/     M anipulation  |                                                 |
\*---------------------------------------------------------------------------*/
FoamFile
{
    version     2.0;
    format      ascii;
    class       volScalarField;
    location    "3.4";
    object      p;
}
// * * * * * * * * * * * * * * * * * * * * * * * * * * * * * * * * * * * * * //

dimensions      [0 2 -2 0 0 0 0];

internalField   nonuniform List<scalar> 
10571
(
145.981
113.685
130.232
147.157
159.488
100.835
104.129
108.921
147.265
163.901
90.2658
91.9847
91.8262
100.387
112.433
147.298
86.4482
86.175
90.9351
90.5809
106.915
78.547
74.5697
83.2433
121.241
99.8338
102.385
119.051
128.967
90.4369
88.8856
98.3739
99.7502
114.097
88.6718
88.7217
85.2572
86.3034
81.5431
96.1152
84.1507
36.1393
63.3314
77.1209
76.322
63.1148
58.9016
56.5592
78.8558
53.9402
66.3254
74.0182
79.3624
58.4134
33.0294
33.3227
37.89
63.7139
55.8221
60.4198
10.2936
9.73188
10.8499
40.0658
5.83649
3.27596
8.38311
30.8126
24.6626
4.49473
33.0099
36.4613
27.2816
5.92155
6.35748
21.0237
34.7976
5.35918
3.17116
5.82718
6.82005
23.6588
5.73908
5.54817
4.36091
5.28425
6.0462
6.33451
6.52512
6.46829
4.83819
6.30394
6.18646
6.2456
2.83472
9.50233
6.23461
6.22859
6.31574
6.27347
7.31878
6.2158
6.93028
6.23619
6.21582
6.61336
6.35262
6.27473
6.99303
6.66958
6.55609
6.47199
6.26806
6.82739
6.33215
6.16465
6.44342
6.53821
6.78912
6.26563
6.38658
6.32187
6.33463
6.37609
6.43154
6.32362
6.93012
6.43787
6.52939
6.4578
6.43751
6.46193
6.45332
6.56826
6.4261
6.42966
6.4668
6.45229
6.50312
6.58151
6.33515
6.16042
6.36618
6.70897
6.69225
6.21664
6.44946
6.42562
6.41692
6.42493
6.46731
6.38001
6.73444
6.48242
6.4942
6.45494
6.43449
6.51873
6.51093
6.4607
6.43976
6.41805
6.42397
6.42432
6.58499
6.61503
6.37297
6.2091
6.23194
6.45391
6.66986
6.74131
6.06936
6.53215
6.60317
6.52802
6.48397
6.53052
6.50285
6.79359
6.51189
6.51525
6.48298
6.42664
6.5711
6.57215
6.52873
6.52369
6.33621
6.36849
6.42076
6.55801
6.69042
6.4669
6.30293
6.23041
6.36012
6.58822
6.57283
6.19249
6.63307
6.70597
6.6601
6.59344
6.60888
6.61963
6.86306
6.55167
6.57979
6.56529
6.50451
6.6214
6.59588
6.57386
6.58438
6.42197
6.56914
6.51701
6.58569
6.5958
6.47603
6.39177
6.47224
6.55367
6.5219
6.26816
6.71923
6.73562
6.73078
6.68507
6.6883
6.64814
6.85034
6.6295
6.66303
6.68478
6.69657
6.67279
6.58092
6.6363
6.62876
6.77694
6.61936
6.57268
6.50343
6.62402
6.73464
6.5865
6.50389
6.75044
6.76135
6.74061
6.74328
6.72526
6.74074
6.69542
6.76649
6.68865
6.72156
6.74683
6.72553
6.69367
6.67885
6.67548
6.74593
6.80683
6.63376
6.61849
6.52963
6.74609
6.84225
6.63593
6.65712
6.95315
6.7664
6.71206
6.72262
6.72585
6.75734
6.65383
6.71772
6.70471
6.73824
6.77155
6.69277
6.67506
6.76123
6.67941
6.77131
6.80522
6.63454
6.63292
6.49087
6.71717
6.80256
6.64791
6.62054
6.73934
6.74708
6.6558
6.6681
6.71443
6.7525
6.58731
6.67129
6.71327
6.72997
6.77936
6.66133
6.65237
6.72686
6.69516
6.7601
6.79429
6.63559
6.63256
6.51124
6.69761
6.74877
6.62299
6.56124
6.63651
6.7371
6.66327
6.68318
6.71393
6.74606
6.61307
6.67499
6.71519
6.71668
6.77461
6.65507
6.65185
6.68963
6.73808
6.73716
6.78084
6.63965
6.61111
6.57644
6.68807
6.72314
6.59296
6.50271
6.60344
6.72821
6.71851
6.72936
6.71497
6.73559
6.65643
6.67249
6.69751
6.70319
6.76259
6.6585
6.65412
6.66079
6.74044
6.70839
6.76364
6.64219
6.57416
6.6587
6.68868
6.73027
6.60194
6.56777
6.65545
6.70354
6.69021
6.70462
6.70239
6.71548
6.65719
6.64776
6.67286
6.68341
6.73901
6.65444
6.64966
6.63043
6.68542
6.67848
6.73752
6.64446
6.5826
6.70513
6.67745
6.73168
6.63043
6.64476
6.68141
6.6564
6.63582
6.62229
6.63337
6.67449
6.63954
6.61765
6.64285
6.65383
6.71079
6.64523
6.63675
6.60886
6.66275
6.65694
6.70792
6.64409
6.62927
6.71997
6.67147
6.71001
6.65501
6.67739
6.69366
6.60036
6.56134
6.51148
6.53784
6.61736
6.61227
6.58603
6.64804
6.63152
6.67883
6.63395
6.62099
6.59697
6.66017
6.63604
6.6769
6.63869
6.65276
6.73061
6.69713
6.69856
6.66505
6.68588
6.69746
6.59179
6.51372
6.42789
6.54135
6.59723
6.59298
6.57198
6.6869
6.62873
6.65126
6.62052
6.6053
6.59745
6.64651
6.608
6.64689
6.62723
6.63778
6.69664
6.67695
6.66721
6.65544
6.67865
6.68333
6.63227
6.52678
6.42888
6.56075
6.60456
6.58526
6.58414
6.70167
6.64997
6.63539
6.6068
6.58658
6.59887
6.64543
6.59432
6.62189
6.60943
6.60974
6.63669
6.62316
6.63097
6.63049
6.64384
6.6382
6.61066
6.56909
6.51508
6.52467
6.60888
6.58464
6.60651
6.66631
6.66757
6.63354
6.59201
6.56699
6.59276
6.63883
6.60141
6.61389
6.58694
6.57909
6.57684
6.56266
6.60402
6.59859
6.59449
6.56906
6.57188
6.60446
6.61943
6.4777
6.58712
6.58373
6.61349
6.61505
6.65912
6.6305
6.57575
6.54893
6.57347
6.5969
6.59285
6.60041
6.56206
6.54809
6.53043
6.52907
6.60498
6.56567
6.54629
6.53281
6.55399
6.60685
6.62174
6.45486
6.54855
6.57579
6.59498
6.53557
6.62406
6.58977
6.55955
6.53399
6.54339
6.54373
6.56772
6.58102
6.53824
6.51743
6.48627
6.49681
6.58629
6.53489
6.50708
6.51316
6.57251
6.59186
6.59857
6.46782
6.54589
6.56263
6.56305
6.49698
6.55976
6.54449
6.54325
6.51753
6.51114
6.48788
6.51957
6.54555
6.51742
6.48772
6.44654
6.46412
6.55046
6.5071
6.47431
6.48953
6.66205
6.57726
6.58483
6.62161
6.537
6.54915
6.53005
6.48724
6.47583
6.49468
6.52887
6.50403
6.48281
6.43188
6.45879
6.49981
6.50015
6.46356
6.4072
6.42826
6.51137
6.48421
6.44784
6.46358
6.62354
6.56712
6.56156
6.59673
6.52182
6.53972
6.49746
6.46817
6.41037
6.44521
6.52082
6.50248
6.46394
6.40395
6.41505
6.44034
6.48795
6.44643
6.37615
6.4042
6.47475
6.46871
6.42889
6.44189
6.56842
6.56243
6.53997
6.55304
6.51637
6.53707
6.48047
6.46117
6.35452
6.42451
6.52241
6.50916
6.46441
6.39236
6.38124
6.41367
6.4846
6.43795
6.35029
6.39082
6.45319
6.46413
6.41901
6.42804
6.52169
6.56264
6.52188
6.5068
6.52129
6.54189
6.48391
6.43414
6.31297
6.40082
6.53194
6.51813
6.47412
6.39288
6.35486
6.39543
6.4939
6.43961
6.34279
6.36312
6.43356
6.47281
6.42116
6.42166
6.4922
6.56546
6.50515
6.47238
6.53793
6.55144
6.49718
6.40737
6.28876
6.37101
6.54786
6.53156
6.49087
6.38319
6.30643
6.37452
6.51473
6.45574
6.36527
6.33122
6.4062
6.49512
6.43215
6.42255
6.45385
6.56942
6.48977
6.40524
6.22491
6.56502
6.51488
6.32471
6.29549
6.33162
6.571
6.55227
6.51561
6.35373
6.29551
6.36086
6.546
6.49063
6.40803
6.31324
6.39318
6.53217
6.44766
6.42792
6.45054
6.58082
6.50249
6.3813
5.8729
6.58486
6.54008
6.34957
6.34006
6.30323
6.60344
6.58309
6.555
6.38914
6.39344
6.37668
6.58634
6.54197
6.45991
6.38434
6.43068
6.5849
6.47707
6.46752
6.51633
6.60504
6.54645
6.4758
6.19574
6.6103
6.58435
6.49573
6.46004
6.49416
6.64212
6.61981
6.60848
6.53196
6.58368
6.54063
6.63169
6.60015
6.50834
6.53194
6.56691
6.65199
6.53533
6.54173
6.6131
6.63804
6.6003
6.5957
6.61583
6.63431
6.63091
6.60827
6.5815
6.69364
6.68066
6.65349
6.65963
6.64716
6.66384
6.67192
6.67824
6.66155
6.60608
6.70281
6.71307
6.72347
6.64129
6.67779
6.68007
6.6724
6.65929
6.68124
6.80753
6.65533
6.66782
6.68886
6.75997
6.86253
6.71397
6.68158
6.7051
6.71005
6.73833
6.87222
6.72179
6.72646
6.67871
6.73519
6.8195
6.78359
6.75129
6.78991
6.73603
6.7143
6.71282
6.727
6.82365
6.68168
6.70432
6.73571
6.76877
6.86296
6.74339
6.71413
6.73921
6.73768
6.74807
6.86184
6.75936
6.77691
6.74004
6.77058
6.84325
6.82441
6.82329
6.85262
6.7812
6.75584
6.75837
6.76632
6.81438
6.70914
6.75021
6.76242
6.76508
6.81098
6.76996
6.75044
6.76575
6.7419
6.75228
6.79611
6.79055
6.80323
6.78941
6.80682
6.84303
6.84668
6.85107
6.86337
6.80033
6.7842
6.78621
6.79433
6.82332
6.7264
6.7917
6.79466
6.79103
6.8111
6.79992
6.78188
6.78684
6.77512
6.80233
6.80958
6.81688
6.81633
6.81958
6.83619
6.87246
6.85501
6.86077
6.85876
6.81427
6.80069
6.79086
6.81258
6.83615
6.73855
6.81795
6.82262
6.83325
6.85405
6.82239
6.8002
6.80534
6.81729
6.87131
6.88699
6.83702
6.82024
6.83338
6.86993
6.90927
6.85301
6.86224
6.87287
6.82379
6.81954
6.82063
6.82521
6.84154
6.75558
6.83614
6.83519
6.85279
6.86588
6.83511
6.81388
6.82024
6.83457
6.89625
6.89896
6.84674
6.81466
6.83788
6.89321
6.92051
6.84574
6.8561
6.87905
6.82603
6.83879
6.81544
6.82547
6.83755
6.77455
6.84089
6.82938
6.84718
6.85479
6.84056
6.82168
6.81089
6.81727
6.88147
6.88134
6.8417
6.81299
6.83196
6.90342
6.90338
6.83082
6.84701
6.87046
6.82319
6.85148
6.80264
6.81917
6.83005
6.80687
6.82442
6.81453
6.83022
6.83927
6.83586
6.81817
6.79307
6.79277
6.83018
6.85192
6.82652
6.79858
6.80327
6.83616
6.85728
6.81176
6.81925
6.81654
6.81996
6.83548
6.80541
6.81373
6.82259
6.81077
6.80744
6.80267
6.81602
6.82638
6.81834
6.80299
6.77047
6.76922
6.79518
6.82438
6.80819
6.78945
6.77459
6.76881
6.8116
6.79638
6.79308
6.74202
6.81921
6.78962
6.79998
6.81046
6.81914
6.77925
6.79299
6.79786
6.81098
6.82003
6.80138
6.78185
6.76312
6.75693
6.79326
6.81274
6.79832
6.79483
6.79335
6.74043
6.79591
6.78977
6.78381
6.75339
6.82325
6.76608
6.79464
6.81032
6.81987
6.74569
6.7814
6.80233
6.81256
6.8229
6.79269
6.77209
6.77199
6.77336
6.80229
6.81354
6.79853
6.81111
6.81423
6.79672
6.80765
6.79869
6.80628
6.82558
6.83415
6.77533
6.7967
6.81619
6.82372
6.75634
6.79427
6.81246
6.81994
6.83337
6.79939
6.78656
6.78807
6.79178
6.80891
6.8189
6.80612
6.80628
6.8183
6.8143
6.81648
6.80743
6.80662
6.87245
6.84898
6.80363
6.80535
6.82804
6.82892
6.79905
6.81575
6.82469
6.83132
6.83938
6.81947
6.81131
6.81122
6.80989
6.81788
6.82583
6.81968
6.79729
6.80538
6.81126
6.82234
6.81453
6.7875
6.82167
6.85775
6.83202
6.81733
6.84089
6.84179
6.83488
6.83292
6.83816
6.84017
6.84731
6.84007
6.83676
6.83321
6.82994
6.82965
6.8352
6.84379
6.81953
6.81742
6.81841
6.8311
6.83633
6.83236
6.82211
6.85866
6.84559
6.83616
6.84879
6.85435
6.8495
6.84246
6.84863
6.84821
6.85463
6.8589
6.84813
6.84294
6.84951
6.84079
6.84595
6.8447
6.84127
6.83875
6.83372
6.84347
6.86331
6.88235
6.84368
6.85879
6.85577
6.85569
6.84919
6.8658
6.84786
6.85842
6.85235
6.85572
6.86138
6.86365
6.84617
6.85869
6.85845
6.85044
6.85617
6.83207
6.8562
6.84805
6.84822
6.85593
6.88155
6.87827
6.85762
6.85908
6.86935
6.86835
6.85114
6.87752
6.85572
6.86774
6.85548
6.85976
6.86673
6.86285
6.85156
6.865
6.86332
6.85749
6.86397
6.86491
6.87629
6.8566
6.85916
6.86597
6.90796
6.8807
6.86509
6.85881
6.87923
6.8743
6.85288
6.87953
6.86931
6.87306
6.85545
6.86187
6.86971
6.86948
6.86346
6.86098
6.86285
6.86083
6.86827
6.882
6.88898
6.86415
6.86552
6.87254
6.90552
6.88324
6.86915
6.85896
6.88306
6.87326
6.85137
6.87435
6.87687
6.8738
6.85218
6.86106
6.86964
6.87551
6.8703
6.87239
6.86209
6.86095
6.86904
6.88463
6.8832
6.86605
6.86824
6.87552
6.8942
6.87912
6.8709
6.86089
6.88421
6.86872
6.85018
6.87185
6.88032
6.86844
6.84798
6.85745
6.86641
6.88348
6.87919
6.87402
6.86323
6.86205
6.86883
6.88909
6.87872
6.8676
6.86961
6.87554
6.88493
6.87551
6.87181
6.86261
6.88292
6.86397
6.84765
6.85949
6.88406
6.86503
6.84439
6.85163
6.85989
6.89733
6.89241
6.87239
6.86333
6.86291
6.86746
6.89273
6.87552
6.86851
6.86913
6.87294
6.87919
6.87331
6.87217
6.86219
6.88133
6.86387
6.84683
6.8464
6.88375
6.86879
6.84661
6.84508
6.85191
6.8979
6.89338
6.87089
6.86187
6.86148
6.86456
6.89146
6.87414
6.8682
6.86718
6.86882
6.87677
6.87271
6.87169
6.86446
6.88371
6.87162
6.85601
6.83694
6.88137
6.87333
6.85317
6.83799
6.84423
6.8953
6.88466
6.86953
6.85917
6.85651
6.85808
6.88819
6.87349
6.86765
6.86372
6.86292
6.87762
6.87376
6.87072
6.87021
6.89332
6.88156
6.86392
6.831
6.87776
6.87412
6.85702
6.82757
6.83504
6.89414
6.88221
6.87343
6.85465
6.84842
6.84954
6.88904
6.87676
6.86991
6.85996
6.85544
6.88135
6.87706
6.87004
6.8814
6.91077
6.89311
6.87338
6.83585
6.90383
6.8808
6.85907
6.8154
6.82308
6.90484
6.89702
6.88198
6.85358
6.83529
6.83447
6.89626
6.88512
6.87355
6.8534
6.84426
6.88962
6.88157
6.86874
6.89747
6.93363
6.9116
6.88661
6.83974
6.93427
6.90643
6.86095
6.79725
6.80194
6.92183
6.91693
6.89551
6.85251
6.80994
6.80577
6.90813
6.89728
6.8755
6.84336
6.82574
6.90092
6.88572
6.86651
6.9359
6.96354
6.94485
6.9152
6.84562
6.96157
6.93713
6.86173
6.75819
6.7482
6.94039
6.93549
6.90903
6.84811
6.76875
6.72507
6.92326
6.90988
6.87402
6.82699
6.78601
6.91115
6.88791
6.86073
6.96345
6.99565
6.98141
6.93632
6.84696
6.98572
6.9633
6.86597
6.68674
6.60182
6.96116
6.95533
6.9195
6.83686
6.69386
6.50824
6.9407
6.91952
6.87161
6.79236
6.6884
6.91877
6.88765
6.8489
6.97053
7.02717
7.01259
6.9457
6.828
7.01174
6.98116
6.85208
6.58061
6.21096
6.98453
6.97652
6.92786
6.81675
6.58758
5.99718
6.96092
6.9301
6.86895
6.74858
6.49224
6.92905
6.8888
6.83525
6.98518
7.05873
7.04172
6.96051
6.81753
7.03828
6.99256
6.83137
6.48351
5.13328
7.01058
7.00068
6.9392
6.78696
6.47819
5.26441
-5.34823
6.98652
6.94616
6.87016
6.70708
6.04917
6.94476
6.89902
6.83351
7.01395
7.09136
7.07439
6.98476
6.829
7.06359
7.00408
6.85231
6.48173
4.52366
0.0476737
7.03915
7.02768
6.95162
6.82174
6.47078
5.10172
0.277402
7.01623
6.9808
6.88941
6.71937
5.54626
6.97235
6.92929
6.86312
7.0432
7.11606
7.10029
7.00834
6.87278
7.08557
7.02734
6.90186
6.62175
5.21747
1.30121
7.06399
7.05201
6.97584
6.87593
6.61778
5.26668
1.51924
7.04935
7.01419
6.94857
6.82456
5.99001
1.95123
7.00865
6.9712
6.93858
7.05527
7.11461
7.08456
7.00944
6.92262
7.0939
7.04444
6.93359
6.75256
5.53285
1.38218
7.07879
7.06611
7.00283
6.93307
6.7938
5.72575
1.38374
7.07026
7.04287
7.01088
6.91589
6.33806
7.05543
7.02363
7.00956
7.05483
7.09383
7.06248
7.01238
6.95651
7.08588
7.04389
6.97073
6.8326
6.13228
7.08529
7.07076
7.02871
7.00335
6.96089
6.10581
-1.74499
7.07576
7.05128
7.03792
6.99821
6.91485
7.07477
7.05038
7.05385
7.02489
7.06825
7.04138
6.98529
6.94389
7.06829
7.03094
6.96986
6.86809
6.75773
7.08047
7.0662
7.03185
7.01211
6.97436
6.80182
7.07038
7.04411
7.0443
7.03574
7.09341
7.06835
7.05291
7.08508
6.96467
7.0515
7.01554
6.94215
6.91473
7.05202
7.00068
6.93945
6.8506
6.89116
7.06639
7.0524
7.00741
6.95838
6.94601
6.92942
7.05539
7.02394
7.01657
7.02636
7.08672
7.05711
7.04001
7.07986
6.9684
7.04024
7.0014
6.94471
6.92255
7.02978
6.95545
6.90301
6.82628
6.9312
7.04734
7.03159
6.97581
6.91286
6.91161
6.94652
7.0308
6.98718
6.98125
7.00047
7.0553
7.03341
7.01922
7.05284
7.00728
7.03327
7.0007
6.96065
6.94895
7.00406
6.92419
6.88674
6.82195
6.95849
7.01697
6.9918
6.91835
6.86614
6.88047
6.95665
6.9884
6.93784
6.94469
6.96974
7.02265
6.99817
6.99384
7.02441
7.04727
7.03682
7.01358
6.98685
6.99327
6.9876
6.92397
6.89335
6.86416
6.99811
6.98148
6.94884
6.87725
6.84124
6.87882
6.97913
6.93199
6.89365
6.93226
6.95928
7.02072
6.96648
6.98184
7.01736
7.09085
7.05811
7.04071
7.02355
7.04604
6.9918
6.94271
6.93014
6.93845
7.05291
6.95802
6.91693
6.85427
6.85728
6.93864
7.04312
6.87753
6.89922
6.95427
6.99303
7.07128
6.95941
7.00571
7.05655
7.13482
7.09313
7.07747
7.05856
7.08657
7.02681
6.99318
6.98307
7.01161
7.10117
6.96747
6.91904
6.90422
6.90989
6.99252
7.11904
6.85138
6.89673
6.94961
7.06508
7.16363
6.99352
7.08105
7.15721
7.15256
7.11496
7.09865
7.07836
7.099
7.05936
7.02917
7.01666
7.03869
7.13439
7.01422
6.9611
6.93356
6.9476
7.03209
7.16807
6.90267
6.9383
7.01528
7.13152
7.23415
7.05754
7.15136
7.25581
148.322
152.443
157.12
157.337
161.218
164.137
168.601
171.787
119.585
137.361
146.975
128.794
128.819
151.075
155.337
138.809
157.334
159.07
164.767
162.259
165.901
172.473
178.168
167.459
177.969
182.566
111.966
101.186
107.349
111.177
116.517
102.134
106.825
128.662
143.356
112.188
110.171
137.37
151.471
110.882
121.928
163.74
173.986
140.593
166.153
182.543
179.811
175.4
96.4853
99.4298
97.1848
98.8418
99.3131
96.223
95.5878
101.842
102.608
96.8764
99.5115
105.66
112.313
103.123
106.546
122.212
144.695
111.561
127.681
172.855
168.773
158.433
94.074
93.0518
92.4782
92.5748
91.5169
92.3394
94.0157
91.2991
87.6488
96.5844
97.5236
88.6585
88.8367
99.1269
114.644
90.9514
104.939
135.289
90.0006
88.2309
83.3952
85.3054
91.122
97.4765
96.8711
97.6268
125.572
114.742
139.802
134.813
141.802
135.447
121.452
132.744
149.537
155.367
139.614
142.522
147.185
158.407
149.36
104.848
100.181
121.032
108.064
110.974
106.564
110.351
101.948
100.655
162.323
158.818
163.592
151.587
151.589
150.788
153.179
164.312
148.82
101.659
92.9698
95.7413
96.1191
91.0886
91.0267
161.289
156.05
146.841
141.033
133.774
91.4698
89.3567
89.0859
88.7592
86.7112
147.23
127.089
124.85
125.218
106.173
87.0375
85.2577
86.9346
84.4917
83.9173
84.8333
85.0732
84.526
84.6896
96.7908
81.3262
86.0537
86.1226
87.3789
74.5837
76.4456
92.3204
82.0936
81.094
76.5476
75.3735
75.3762
73.998
73.0761
77.0137
73.7583
68.0915
66.0274
67.2854
67.2627
106.573
93.6442
117.873
110.107
116.186
106.751
99.8495
105.154
122.315
125.803
105.264
104.917
104.876
127.089
104.113
93.9193
77.3986
101.354
95.0189
93.7868
83.9766
87.5003
80.8534
85.9522
126.994
126.741
125.517
104.896
102.004
101.16
98.0804
119.607
92.9819
90.1344
89.1587
88.4744
77.7626
80.9197
80.7343
107.229
102.388
86.9167
80.015
78.1376
88.3817
87.3976
83.5876
83.3638
81.3486
95.6678
84.0491
69.392
71.1935
59.4453
85.9948
72.7348
82.7285
79.4912
75.3394
55.4689
37.1392
14.5351
8.8442
75.0371
64.1515
66.241
58.2882
56.2299
50.3207
54.1539
54.4438
66.9596
6.84745
65.5025
62.6597
8.89457
33.0035
39.5808
52.1405
56.8972
49.6958
43.8054
48.8841
46.4761
64.0935
16.4851
77.1832
71.5792
76.6905
48.2554
33.6215
45.9331
78.9638
80.1458
52.9171
53.545
57.2506
80.0504
57.7836
47.7751
7.13273
59.9104
52.5548
63.5208
8.58872
12.9793
7.7651
9.8667
77.5874
73.8208
71.8515
55.9996
54.2621
48.5449
48.9848
68.4835
47.3253
49.9272
54.1385
56.1688
8.00561
10.4905
11.814
55.2526
55.3928
42.8559
32.5083
31.8273
56.3919
26.4494
9.20909
8.18856
5.69461
44.2546
30.3959
12.1014
17.5791
7.04092
8.63782
4.79582
5.54266
4.53416
4.86822
5.03827
5.77334
6.18792
6.62149
26.7191
32.6754
29.0611
6.61998
6.68706
12.5186
7.11755
6.70058
5.17118
6.56781
6.1213
10.5281
6.18063
4.25948
3.86605
38.6345
34.2866
6.77062
26.4534
7.59894
26.1932
6.20167
6.29001
17.4265
6.96376
13.6066
6.3902
6.06623
6.24418
29.0102
35.6186
7.70034
8.73189
16.9482
36.5747
18.7448
5.88884
6.4725
5.96447
5.75027
5.4026
6.40812
6.35424
6.47472
6.46952
32.7181
26.4522
28.0512
17.8035
15.0314
9.8988
9.55866
27.6932
11.9308
5.71878
5.98169
6.03087
6.49727
6.41012
6.40277
11.2961
10.9519
10.0733
6.47004
6.53861
5.77204
5.90495
6.47518
6.50431
6.28435
7.10629
6.12283
6.40801
6.39457
6.52139
6.58126
6.48912
6.62618
6.59049
6.47489
6.37431
6.46519
6.47847
6.51216
6.23364
6.69897
6.30715
6.15114
6.44324
6.73773
6.62025
6.50911
6.22718
6.45208
5.89132
5.79497
6.3878
6.3886
6.47602
5.55658
2.77594
5.85452
3.51078
5.87454
4.99271
6.29323
6.31588
6.28568
6.32901
6.26961
6.34564
6.31761
6.31666
6.27762
6.60323
6.34556
6.32347
6.31778
7.17904
6.37493
6.16994
6.41148
6.24964
6.20672
6.2466
6.37025
6.32073
6.371
6.28306
7.35728
6.46396
6.76515
6.37481
6.47166
6.28621
6.45738
7.24102
6.53969
6.24098
6.32179
6.3122
6.39198
6.40153
6.408
6.41926
6.44935
6.39227
6.41556
6.42979
6.32585
6.28482
6.41646
6.41379
6.38572
6.48063
6.47577
6.4612
6.44365
6.48453
6.34127
6.42994
6.41128
6.4645
6.48885
6.3757
6.46937
6.49975
6.57044
6.40367
6.70588
6.59574
6.16034
6.3441
6.39476
6.45473
6.42841
6.48569
6.60271
6.54907
6.52333
6.66188
6.68985
6.64431
6.05385
6.6593
6.72439
6.84543
6.62777
6.5078
6.33574
6.37461
6.3771
6.3558
6.35759
6.41394
6.39943
6.40299
6.37448
6.40442
6.41231
6.40645
6.42565
6.41939
6.44496
6.31488
6.36979
6.30273
6.29031
6.20126
6.36346
6.34073
6.33894
6.18264
6.46904
6.38569
6.42475
6.44613
6.46604
6.40037
6.43319
6.46643
6.42009
6.34596
6.42389
6.42507
6.38777
6.45498
6.44917
6.46211
6.43747
6.43514
6.43416
6.46628
6.46116
6.45138
6.45442
6.41207
6.46483
6.42935
6.46647
6.43154
6.48991
6.46889
6.47195
6.49481
6.50467
6.49301
6.43001
6.46311
6.42021
6.48626
6.43803
6.45543
6.42161
6.54921
6.49733
6.59694
6.46353
6.59042
6.47945
6.63974
6.53697
6.58039
6.50444
6.4744
6.57147
6.56579
6.52394
6.48956
6.52091
6.32465
6.15913
6.3261
6.16344
6.33609
6.02425
6.26093
6.28428
6.63195
6.63685
6.74465
6.73168
6.70784
6.72551
6.72771
6.62735
6.63765
6.74155
6.51733
6.70397
6.05864
6.4304
6.50851
6.45328
6.44783
6.45392
6.49208
6.50056
6.50355
6.44832
6.46109
6.48889
6.48787
6.50036
6.47066
6.50613
6.40925
6.4836
6.3934
6.37518
6.24703
6.51315
6.46112
6.45735
6.35771
6.48912
6.42387
6.45527
6.49623
6.51235
6.44821
6.47643
6.45341
6.47045
6.47573
6.46721
6.43985
6.4578
6.42991
6.45303
6.41455
6.47762
6.47196
6.44841
6.50184
6.49755
6.46542
6.46473
6.43621
6.46186
6.46201
6.43141
6.40915
6.45822
6.40572
6.4562
6.42629
6.46633
6.40001
6.4581
6.52103
6.50528
6.54565
6.54344
6.52194
6.40891
6.36886
6.38475
6.34962
6.35349
6.29528
6.34846
6.52911
6.45961
6.59663
6.40667
6.51283
6.43493
6.5607
6.57054
6.56134
6.5676
6.53189
6.51224
6.58324
6.60963
6.57396
6.57051
6.29431
5.99047
6.2013
6.26854
6.21959
6.00664
6.17595
6.32517
6.19672
6.32851
6.61036
6.42119
6.58748
6.61437
6.60945
6.67389
6.68682
6.62534
6.6276
6.6441
6.56108
6.7341
6.64904
6.55055
6.65844
6.17105
6.60391
6.66926
6.55055
6.56118
6.55707
6.60748
6.62457
6.609
6.53094
6.54125
6.58401
6.58301
6.58505
6.54248
6.58056
6.56515
6.64217
6.54925
6.54866
6.48463
6.66791
6.62569
6.62322
6.5917
6.54556
6.47837
6.50502
6.56693
6.58715
6.51856
6.54062
6.51063
6.46828
6.55986
6.48266
6.43759
6.46084
6.45789
6.49547
6.49969
6.53436
6.52796
6.57387
6.57362
6.5671
6.46662
6.44083
6.42106
6.51345
6.50065
6.48719
6.46076
6.47194
6.41419
6.46708
6.47177
6.52659
6.43785
6.50486
6.56541
6.55758
6.59596
6.58653
6.60985
6.35818
6.28343
6.32059
6.47228
6.41152
6.32119
6.36393
6.51345
6.41218
6.54322
6.46226
6.53924
6.42804
6.55136
6.56236
6.59067
6.59938
6.58452
6.59113
6.56467
6.60377
6.58599
6.59417
6.20428
6.07401
6.17871
6.33052
6.26134
6.09521
6.2062
6.29188
6.31335
6.29674
6.55826
6.35532
6.56136
6.59009
6.5746
6.5977
6.62158
6.56004
6.59726
6.62318
6.38645
6.59277
6.54229
6.25424
6.57141
6.18921
6.70438
6.72281
6.65782
6.67932
6.65799
6.70388
6.72039
6.69995
6.63218
6.62742
6.6813
6.67703
6.66707
6.62136
6.66161
6.69699
6.71727
6.68202
6.66962
6.66394
6.72695
6.70897
6.68539
6.68724
6.63476
6.56516
6.59058
6.64985
6.67528
6.60729
6.63149
6.63023
6.65537
6.63254
6.60889
6.60149
6.65647
6.64763
6.63562
6.56189
6.56383
6.53186
6.61968
6.64628
6.65366
6.60636
6.53873
6.48035
6.55321
6.52355
6.55955
6.53184
6.59743
6.61038
6.61224
6.65665
6.64108
6.64646
6.49748
6.44843
6.42636
6.67847
6.57921
6.57905
6.52207
6.59312
6.43262
6.58943
6.54822
6.59341
6.43292
6.57917
6.62315
6.64397
6.59906
6.58147
6.57627
6.60496
6.59327
6.58504
6.56111
6.39631
6.1253
6.29199
6.50273
6.55125
6.28408
6.42368
6.60005
6.56488
6.56327
6.61092
6.6199
6.56143
6.63371
6.62542
6.33932
6.55866
6.48852
6.50731
6.54917
6.44177
6.7348
6.74477
6.7408
6.74853
6.73019
6.77144
6.76383
6.75112
6.71141
6.7013
6.74577
6.73489
6.73054
6.69745
6.72812
6.70629
6.69626
6.71451
6.68757
6.6842
6.73784
6.71924
6.68968
6.68016
6.71343
6.6452
6.67111
6.71871
6.74242
6.67546
6.70348
6.6989
6.73703
6.66612
6.69574
6.68099
6.68858
6.72376
6.70763
6.73718
6.71564
6.72271
6.7645
6.76292
6.67927
6.69102
6.72303
6.71647
6.69976
6.68361
6.75064
6.79919
6.79165
6.79226
6.65578
6.66001
6.57742
6.59172
6.55285
6.629
6.57776
6.60257
6.55655
6.69117
6.56261
6.58074
6.72716
6.79313
6.76405
6.68616
6.81801
6.56684
6.58031
6.67073
6.65983
6.61175
6.6983
6.70332
6.87054
6.58355
6.62017
7.14027
6.64687
6.97406
6.75716
6.76334
6.78925
6.77394
6.76234
6.79151
6.77647
6.76175
6.74934
6.75161
6.76784
6.75487
6.76254
6.75082
6.76395
6.69847
6.6955
6.72577
6.69625
6.68256
6.73437
6.72456
6.68898
6.67741
6.76313
6.69915
6.7295
6.75278
6.77481
6.71644
6.74586
6.76044
6.77215
6.70919
6.74388
6.73516
6.71314
6.73754
6.7341
6.78236
6.79035
6.7626
6.79542
6.80108
6.72297
6.69645
6.71158
6.70766
6.68644
6.8059
6.8115
6.80929
6.8113
6.81574
6.65692
6.6514
6.57882
6.61489
6.56762
6.63473
6.58056
6.62276
6.57625
6.83166
6.76788
6.74028
6.72743
6.81545
6.7274
6.74569
6.82821
6.59346
6.60278
6.70621
6.72247
6.64574
6.68198
6.70872
7.09266
6.67095
6.6437
6.92652
6.65732
6.82239
6.75733
6.73741
6.78348
6.76331
6.75058
6.76934
6.74219
6.73581
6.75143
6.76474
6.75786
6.74358
6.76192
6.76922
6.77
6.66186
6.61523
6.71319
6.65704
6.65883
6.68695
6.69526
6.6193
6.62858
6.77827
6.72667
6.75505
6.75648
6.7761
6.73246
6.75818
6.77831
6.7804
6.67453
6.69768
6.68503
6.6149
6.66095
6.64891
6.80332
6.80379
6.7773
6.80593
6.80452
6.68549
6.67459
6.67409
6.66702
6.66303
6.80726
6.80936
6.79995
6.8053
6.79992
6.64698
6.64344
6.59028
6.62746
6.59148
6.63444
6.59162
6.631
6.60157
6.78758
6.6829
6.72568
6.70605
6.751
6.64582
6.70156
6.77339
6.61258
6.61749
6.64739
6.67748
6.64211
6.62847
6.66208
6.78361
6.63087
6.59695
6.68548
6.61224
6.67917
6.71375
6.69985
6.74725
6.72419
6.72155
6.72964
6.71654
6.71399
6.73502
6.75661
6.73983
6.73022
6.75132
6.76535
6.7589
6.58192
6.57839
6.66964
6.58632
6.5978
6.63575
6.66208
6.58089
6.60535
6.76968
6.7352
6.75861
6.74934
6.76515
6.73794
6.757
6.77943
6.7761
6.58612
6.6406
6.63157
6.58526
6.63937
6.63466
6.80366
6.80069
6.77871
6.79818
6.79641
6.65531
6.65881
6.65507
6.65119
6.65797
6.80032
6.79373
6.78699
6.79665
6.78776
6.64451
6.64664
6.61047
6.63547
6.61885
6.63779
6.61538
6.63836
6.62499
6.71725
6.61979
6.67991
6.68962
6.69064
6.61501
6.66694
6.73224
6.62049
6.61841
6.61362
6.63974
6.60384
6.59342
6.60941
6.6291
6.57785
6.51595
6.59449
6.53154
6.61036
6.71218
6.73355
6.72432
6.7194
6.71964
6.72675
6.73298
6.72543
6.7297
6.74601
6.73355
6.72779
6.73953
6.75239
6.74582
6.6148
6.64666
6.69647
6.61269
6.64528
6.71224
6.72934
6.65455
6.68082
6.75929
6.73874
6.75241
6.74128
6.753
6.73944
6.74689
6.76995
6.76353
6.6164
6.64685
6.64706
6.64302
6.65381
6.65568
6.79177
6.7891
6.76878
6.78421
6.78091
6.65289
6.66028
6.65717
6.65603
6.66131
6.79242
6.78089
6.77315
6.78828
6.77215
6.65053
6.65302
6.63466
6.63824
6.63096
6.64183
6.64458
6.64198
6.63591
6.6798
6.62574
6.66898
6.68625
6.6816
6.6463
6.68443
6.72369
6.61836
6.62246
6.57599
6.58439
6.59507
6.57056
6.57167
6.58175
6.51761
6.52343
6.59007
6.53847
6.62412
6.74314
6.72493
6.72942
6.73952
6.72811
6.72806
6.72624
6.72473
6.72315
6.7321
6.72054
6.71216
6.72265
6.73946
6.7322
6.66236
6.66635
6.73496
6.67372
6.69254
6.70762
6.72413
6.67842
6.68996
6.74648
6.73918
6.74102
6.729
6.73854
6.73311
6.73085
6.75759
6.74942
6.6557
6.65768
6.65999
6.65821
6.65747
6.65876
6.7761
6.77004
6.75237
6.76678
6.76012
6.65783
6.66134
6.65744
6.65687
6.65959
6.77684
6.76068
6.75034
6.75839
6.74463
6.65497
6.65506
6.65102
6.64224
6.64089
6.64362
6.65601
6.64465
6.64552
6.69111
6.67184
6.70341
6.68211
6.70228
6.68322
6.7169
6.73316
6.62927
6.63879
6.57204
6.57515
6.61604
6.58448
6.5916
6.61823
6.58179
6.60943
6.63951
6.6275
6.67399
6.69796
6.66279
6.71949
6.70025
6.71223
6.69664
6.66742
6.68306
6.6942
6.70877
6.68059
6.67394
6.69187
6.71817
6.7
6.66321
6.65653
6.7014
6.67184
6.67804
6.66652
6.66666
6.65956
6.66027
6.72539
6.71688
6.71714
6.69678
6.70939
6.69675
6.70257
6.73754
6.72472
6.65633
6.6543
6.65485
6.65199
6.64949
6.64947
6.75614
6.74791
6.72574
6.74401
6.73541
6.65385
6.65665
6.6502
6.64963
6.65264
6.73786
6.73021
6.72567
6.71975
6.71967
6.65446
6.65245
6.65792
6.64754
6.64994
6.64462
6.65879
6.65049
6.6535
6.71056
6.68349
6.71866
6.67526
6.71381
6.6949
6.72039
6.72891
6.64801
6.65612
6.60294
6.6139
6.64395
6.62407
6.63689
6.65722
6.66293
6.66582
6.67221
6.68666
6.68874
6.61901
6.57412
6.66263
6.62746
6.64556
6.62596
6.58782
6.60779
6.65286
6.67348
6.62721
6.6258
6.65124
6.68082
6.65645
6.64632
6.631
6.62315
6.64174
6.6368
6.59957
6.57349
6.61947
6.60849
6.69105
6.67265
6.68646
6.64599
6.66809
6.64389
6.66623
6.71181
6.69531
6.64625
6.64346
6.64294
6.63893
6.63775
6.63681
6.72642
6.72028
6.69738
6.70897
6.70401
6.64415
6.64826
6.63984
6.63844
6.644
6.70353
6.70318
6.69193
6.68857
6.69444
6.64973
6.64617
6.65766
6.65333
6.65669
6.64194
6.65403
6.65393
6.6581
6.71247
6.69835
6.70901
6.69012
6.70954
6.70485
6.70588
6.70206
6.66204
6.66515
6.64469
6.65768
6.6623
6.66045
6.6726
6.68301
6.70231
6.68337
6.69183
6.71094
6.69812
6.53301
6.49582
6.58756
6.55262
6.5683
6.54119
6.524
6.52407
6.60043
6.62483
6.5847
6.58792
6.6059
6.62796
6.60764
6.61247
6.59675
6.52291
6.59733
6.58341
6.53178
6.48332
6.57862
6.55953
6.64428
6.62149
6.64818
6.60011
6.62864
6.61048
6.63544
6.67791
6.66406
6.63002
6.63144
6.62969
6.62125
6.62435
6.62132
6.68857
6.6855
6.6641
6.67066
6.66739
6.63255
6.63941
6.62739
6.62601
6.63384
6.67501
6.68529
6.6614
6.66329
6.66644
6.64178
6.6363
6.64823
6.65296
6.65818
6.63394
6.64091
6.65041
6.65581
6.69908
6.69879
6.70576
6.69248
6.68001
6.68567
6.68592
6.68254
6.66517
6.66221
6.67063
6.68064
6.66297
6.67319
6.68078
6.69656
6.70759
6.68758
6.69986
6.70147
6.6919
6.46951
6.46527
6.50108
6.49914
6.49104
6.49206
6.48449
6.48702
6.60043
6.59903
6.6163
6.61878
6.60488
6.6017
6.6055
6.58521
6.57832
6.4618
6.56442
6.54162
6.51301
6.46658
6.55719
6.53064
6.62465
6.60541
6.63111
6.60037
6.62634
6.60687
6.63248
6.65559
6.65246
6.61204
6.61747
6.61308
6.60487
6.61038
6.60509
6.65174
6.65075
6.64094
6.63721
6.63584
6.61897
6.62728
6.6135
6.61174
6.61992
6.64849
6.64772
6.63187
6.6331
6.63156
6.63032
6.62335
6.63114
6.6459
6.65026
6.61906
6.62098
6.63977
6.64321
6.65535
6.67008
6.66255
6.65191
6.63516
6.64764
6.64305
6.65375
6.65556
6.64679
6.66644
6.6702
6.64429
6.65352
6.6553
6.69056
6.68657
6.66454
6.67245
6.66829
6.66723
6.49019
6.5267
6.51442
6.49612
6.4997
6.53534
6.51804
6.52191
6.62204
6.61471
6.6286
6.60458
6.62315
6.61
6.61184
6.57711
6.57973
6.49129
6.55816
6.53364
6.54685
6.52473
6.56503
6.54581
6.62694
6.60971
6.63012
6.60907
6.62371
6.61662
6.62138
6.64888
6.64269
6.59927
6.60483
6.59867
6.59522
6.59989
6.59321
6.63138
6.62901
6.63271
6.63317
6.62757
6.60415
6.6115
6.59967
6.59575
6.60199
6.62443
6.62323
6.61702
6.62101
6.61702
6.61522
6.60604
6.60865
6.63192
6.63351
6.59866
6.59628
6.62284
6.6234
6.61629
6.6181
6.61709
6.58866
6.59378
6.58411
6.58688
6.61196
6.6357
6.62329
6.6367
6.63706
6.61503
6.61805
6.61827
6.64924
6.64469
6.61943