/*--------------------------------*- C++ -*----------------------------------*\
| =========                 |                                                 |
| \\      /  F ield         | OpenFOAM: The Open Source CFD Toolbox           |
|  \\    /   O peration     | Version:  5.x                                   |
|   \\  /    A nd           | Web:      www.OpenFOAM.org                      |
|    \\/     M anipulation  |                                                 |
\*---------------------------------------------------------------------------*/
FoamFile
{
    version     2.0;
    format      ascii;
    class       volVectorField;
    location    "3.85";
    object      U;
}
// * * * * * * * * * * * * * * * * * * * * * * * * * * * * * * * * * * * * * //

dimensions      [0 1 -1 0 0 0 0];

internalField   nonuniform List<vector> 
10571
(
(-0.0814804 0.323915 0.824813)
(0.0916235 0.156449 0.450085)
(1.26389 0.367336 2.13114)
(0.518118 0.0560465 3.17742)
(-0.244826 0.0494438 1.74889)
(0.315627 0.8739 2.03812)
(0.720158 0.68346 2.94864)
(-0.62077 0.0812951 3.00022)
(-0.191978 0.201439 3.03695)
(-0.196216 0.141781 2.15599)
(0.580149 0.0669262 1.13544)
(0.552922 0.410305 3.64769)
(-0.256966 -0.222636 3.78276)
(-0.966585 -0.803634 3.55622)
(0.329728 -0.663214 3.56567)
(-0.0534583 0.0743915 2.93505)
(-0.328044 -0.594291 3.82988)
(-0.760404 0.349193 4.07172)
(-0.582225 -0.481012 2.92839)
(0.277555 -0.715334 3.02414)
(-0.0689133 -0.102952 1.38069)
(-0.275878 -0.594555 1.81972)
(-0.248248 -0.314954 1.18307)
(0.215038 -0.491829 1.52637)
(0.225485 0.034577 0.738689)
(-0.0178207 -0.00138106 0.122233)
(-0.100439 0.416421 1.47604)
(0.0647446 0.107885 3.9102)
(-0.133091 -0.317384 1.31028)
(0.263754 0.419049 2.0746)
(-0.816124 0.213651 3.21701)
(-0.44448 -0.392899 2.1608)
(-0.285208 -0.0567769 2.53382)
(-0.35195 -0.365011 0.898701)
(0.0595921 0.125595 0.115086)
(-0.0625423 0.300129 3.46267)
(-1.11941 -0.0683526 2.86387)
(-0.480412 -0.12777 1.75161)
(0.112068 -0.0780535 2.48817)
(-0.349505 0.205374 2.38603)
(-0.113543 -0.0425049 2.01738)
(-0.968741 -0.0101754 3.33381)
(-0.2316 0.16826 1.38774)
(-0.0335443 -0.00831293 1.95749)
(-0.545418 0.613959 0.702034)
(-0.0240422 0.122833 0.439453)
(-0.674409 0.0931491 1.56531)
(0.00652332 -0.0374155 0.0673319)
(-0.1232 -0.104039 0.702173)
(0.00111613 -0.0204301 -0.026349)
(-0.734426 0.521058 1.90578)
(-0.489113 0.292156 3.5139)
(-0.331258 -0.382342 1.67755)
(0.167725 0.0957257 2.05084)
(-0.843119 0.287157 2.80552)
(-0.745037 -0.34045 1.77794)
(-0.728626 -0.39739 1.9988)
(-0.22272 -0.297574 0.603366)
(0.0601676 -0.0141326 0.857608)
(-0.186705 0.225777 4.24153)
(-1.14649 0.160993 2.67723)
(-0.50553 0.133845 1.24028)
(-0.697214 0.397798 2.13357)
(-0.429564 0.120617 1.40857)
(0.0906847 0.0625429 2.68123)
(-0.690547 0.125445 3.00308)
(-0.438387 0.443245 0.954862)
(-0.610689 0.271366 1.56423)
(-0.395744 0.734001 0.603992)
(-0.0944678 0.0814049 0.770605)
(-0.277047 0.304312 1.57229)
(-0.171341 0.022885 -0.042011)
(-0.432789 -0.12721 1.21851)
(-0.036661 0.0457357 0.218585)
(-1.05694 -0.102699 2.06241)
(-0.448447 0.0609876 2.24687)
(0.031073 -0.656945 2.21911)
(0.0106722 -0.0371773 1.84463)
(-1.07062 0.529219 3.61914)
(-0.713581 0.104908 3.26278)
(-0.025225 -0.405305 2.60838)
(0.045074 -0.0612213 0.269334)
(0.0995446 0.00295246 0.975853)
(-0.156641 0.315643 4.91393)
(-1.25738 0.532837 2.97991)
(-0.274203 0.0811671 0.860578)
(-0.519968 0.341827 2.59475)
(0.157709 0.0331115 0.603512)
(0.311944 -0.294988 3.34596)
(-0.70574 0.0854772 3.27275)
(-0.849088 0.520238 1.45972)
(-1.51103 1.07024 1.90987)
(-0.0896896 0.380057 0.284272)
(0.178097 -0.150478 1.02676)
(-0.332926 0.368978 2.01021)
(-0.35174 0.0898819 0.148192)
(0.153527 0.0585961 1.44777)
(-0.110465 0.0111802 1.10091)
(-1.42894 -0.440552 3.04222)
(0.330764 -0.614234 1.7047)
(0.480612 -1.33013 3.71256)
(-0.571695 0.388423 2.68266)
(-0.224123 0.192527 3.20877)
(0.0509415 -0.0652911 0.65759)
(0.115358 -0.0942405 0.390335)
(0.0278675 0.034668 0.416236)
(0.00378854 -0.0638498 0.523203)
(-0.254321 0.621851 6.03384)
(-0.0764241 0.350258 3.61461)
(0.00535611 -0.0842304 0.578626)
(0.10929 -0.0399087 0.451903)
(0.18342 -0.0984352 0.410709)
(0.0368301 -0.313653 3.08344)
(-0.702225 0.393244 3.62057)
(-0.362495 -0.0502422 1.24562)
(-0.471423 0.267103 1.27446)
(0.106441 -0.0575424 0.387465)
(0.0396991 -0.129636 0.796769)
(-0.387837 0.326849 2.66375)
(-0.528701 0.140204 0.708064)
(-0.122919 0.0758007 0.818863)
(-0.209801 0.322769 1.1165)
(0.0653372 0.150252 1.3738)
(-0.139865 0.303115 0.987502)
(0.739289 0.7904 4.24259)
(-0.0410293 -1.01165 2.06188)
(0.0829121 -0.636592 1.95218)
(0.412475 -0.216086 2.87174)
(0.0881091 0.0740315 2.37392)
(0.0708648 0.0809135 0.448923)
(-0.00473448 0.00205125 -0.000632231)
(-0.0561703 -0.236545 0.524192)
(-1.17554 0.66911 7.65984)
(0.246463 -0.324194 1.14879)
(0.392829 -0.465072 0.790867)
(0.163043 -0.511327 1.77142)
(0.0420031 -0.0623331 0.292269)
(0.0116225 -0.00233866 0.00297944)
(-0.598992 -0.143483 3.45768)
(-0.497096 -0.708071 5.50814)
(0.299505 -0.60463 1.24894)
(0.201317 -0.758252 1.45817)
(0.133457 -0.195707 0.612397)
(-0.486868 -0.0322053 1.16151)
(0.194143 -0.364833 3.1168)
(-0.016706 0.0340287 0.519971)
(-0.0549112 -0.0419791 1.01847)
(-0.0602406 -0.0217853 0.760032)
(0.103493 0.276616 2.45098)
(-0.0739938 0.316487 0.728095)
(0.290651 1.59546 3.63053)
(-0.126925 -1.24938 2.96745)
(0.187705 -0.284744 3.47319)
(-0.21589 -0.0658807 2.40578)
(0.188229 0.46614 2.09889)
(-0.138326 0.246349 0.281105)
(-0.51348 0.206646 -0.0217563)
(-0.409402 -0.504367 1.28079)
(-0.224992 -0.744422 6.07485)
(0.0754012 -1.2945 2.78678)
(-0.0583726 -1.50177 1.50116)
(-0.139701 -0.749416 1.9273)
(-0.129827 0.122346 0.379394)
(-0.0912366 0.354868 -0.007347)
(-0.991321 0.532814 3.90486)
(-0.166652 -0.272644 1.82773)
(0.227375 -0.397267 0.598643)
(0.683205 -1.33393 1.75683)
(0.099725 -0.18892 0.449716)
(0.138525 0.109113 0.171337)
(-0.43134 -0.00479647 0.660925)
(0.3402 -1.16069 2.10738)
(0.292137 -0.258927 0.451049)
(-0.0345111 0.0414951 0.395892)
(0.0377441 -0.472362 1.20541)
(-0.0376375 -0.181067 2.26505)
(0.0857727 0.0971658 0.817855)
(0.0153468 0.0785156 2.32755)
(-0.129958 -0.375466 2.70207)
(0.148273 -0.262461 2.67762)
(-0.214537 -0.0850463 2.4326)
(0.332925 0.383177 2.17371)
(-0.0535495 0.100996 0.75432)
(-0.0437986 -0.0461094 -0.250491)
(0.164265 0.105624 2.08375)
(-0.124194 -0.642646 6.17992)
(-0.00175116 -0.629715 2.41913)
(-0.322055 -0.567463 0.746564)
(0.00170787 -0.507686 1.69583)
(-0.16636 0.228828 0.660067)
(-0.16648 -0.101838 0.245536)
(-0.345233 -0.21814 4.27451)
(-0.0273844 -0.165858 3.21639)
(-0.0610726 -0.333677 0.813483)
(0.629224 -0.85524 1.2099)
(0.108542 -0.191434 0.394982)
(0.0799932 -0.0755059 0.310234)
(-0.542518 0.0485622 1.2653)
(-0.0321353 0.0640581 0.564138)
(0.230972 -0.124821 0.290107)
(0.13641 0.0318555 0.15032)
(0.0828654 -0.25347 1.53308)
(-0.0101757 -0.286733 2.44419)
(-0.0406924 0.105374 0.730319)
(0.115278 0.14396 1.83702)
(-0.0342081 -0.346143 2.69734)
(0.105339 -0.337924 2.7456)
(-0.172301 -0.0548308 2.61708)
(0.31734 0.366244 2.31267)
(0.242767 0.184586 0.969565)
(0.437288 -0.199894 -0.222913)
(-0.0424745 0.00947052 1.69965)
(-0.076093 -0.710597 5.47428)
(0.0444434 -0.205843 1.8576)
(-0.113876 -0.324944 0.89599)
(0.00084361 -0.429073 1.78482)
(0.0930416 0.0448212 0.995685)
(0.204436 -0.270278 0.0786698)
(-0.279697 -0.144517 3.73404)
(0.0681409 -0.0508989 2.18859)
(-0.00376156 -0.0503341 -0.104581)
(0.0639554 -0.084183 0.580956)
(0.0567031 -0.120901 0.563572)
(-0.157303 -0.603248 0.343748)
(-0.145408 0.0659572 -0.00551917)
(0.00232455 -0.0323576 0.101801)
(0.240586 -0.00603711 0.280481)
(0.0123283 -0.101742 1.50889)
(0.0189234 -0.24472 2.45082)
(-0.0183189 0.0421293 0.845926)
(0.148682 0.163803 1.72964)
(-0.0212819 -0.437172 2.74326)
(0.152285 -0.339516 2.94735)
(-0.211257 0.118778 2.69815)
(0.248884 0.385676 2.27053)
(0.191469 0.201212 0.734878)
(-0.0814326 -0.060705 2.0676)
(0.00620023 -0.804479 5.35199)
(0.0584727 -0.0381876 1.93277)
(-0.154818 -0.0574548 1.07889)
(-0.0918994 -0.32664 1.84732)
(-0.0267933 0.12854 1.00416)
(-0.248026 -0.10405 3.81625)
(0.235545 0.201539 1.75391)
(0.20256 0.0235039 0.242434)
(0.084827 0.028527 0.39593)
(0.0722696 -0.0859051 0.57547)
(0.294119 0.0194547 0.426793)
(-0.0267331 -0.0576276 0.0114449)
(-0.0146466 0.0305255 -0.0753506)
(0.212393 -0.013635 0.391443)
(-0.0268224 -0.0663009 1.55526)
(0.115242 -0.184153 2.4502)
(0.0853266 -0.0268927 1.10168)
(0.118644 0.105882 1.45728)
(-0.0285956 -0.452025 2.85124)
(0.148724 -0.288408 3.02332)
(-0.267749 0.240892 2.61614)
(0.225112 0.416654 2.19121)
(0.161098 0.148853 0.877602)
(-0.0740385 -0.0627625 2.2536)
(-0.0187752 -0.589693 5.01611)
(0.0032332 0.0447412 1.82874)
(-0.263501 0.115257 1.12557)
(-0.111427 -0.195106 1.82012)
(0.00465064 0.189711 1.16436)
(-0.175973 -0.172744 3.66423)
(0.356663 0.23899 1.67117)
(0.16253 0.161406 0.237569)
(0.162673 0.0839216 0.330636)
(0.00959545 -0.0703612 0.615933)
(0.435876 0.221088 0.765342)
(0.216971 -0.0472738 0.166054)
(0.13772 -0.0148449 -0.0209696)
(0.218845 -0.0255476 0.525144)
(-0.0481815 -0.0451247 1.63339)
(0.173752 -0.115872 2.31417)
(0.174244 -0.0694875 1.33169)
(0.100791 0.295732 1.09378)
(0.0219568 -0.42422 2.96789)
(0.105377 -0.26386 3.00221)
(-0.294279 0.287598 2.41354)
(0.201239 0.421577 2.08815)
(0.139726 0.0956993 1.04433)
(-0.0887622 -0.0985974 2.51644)
(-0.0213468 -0.527695 4.82642)
(-0.0766569 0.168185 1.61495)
(-0.31154 0.267282 1.17671)
(-0.0723792 -0.0932286 1.81903)
(-0.00869353 0.195604 1.25178)
(-0.137992 -0.189274 3.52676)
(0.330553 0.231994 1.53659)
(0.154834 0.210282 0.418415)
(0.195429 0.113814 0.396906)
(0.0271414 -0.0976053 0.724632)
(0.379921 0.186312 0.949497)
(0.317439 -0.052671 0.313641)
(0.272992 -0.0870428 0.165446)
(0.167751 -0.0107511 0.64188)
(-0.0563608 -0.0267977 1.70037)
(0.204468 -0.0813285 2.318)
(0.24527 -0.0649038 1.43652)
(0.196295 0.269339 0.904103)
(0.0742045 -0.458523 3.07844)
(0.068034 -0.231278 3.00863)
(-0.294663 0.276436 2.19498)
(0.145199 0.386512 2.027)
(0.132861 0.0326558 1.17127)
(-0.103242 -0.126501 2.7303)
(0.0496625 -0.574566 4.71156)
(-0.0255064 0.217371 1.56485)
(-0.300239 0.323994 1.18993)
(0.022439 -0.0849728 1.81116)
(-0.00062489 0.158053 1.36948)
(-0.133622 -0.209488 3.44807)
(0.282928 0.214136 1.40139)
(0.198947 0.153938 0.587235)
(0.232154 0.0748387 0.51008)
(0.0570887 -0.140964 0.779772)
(0.254613 0.155029 0.974733)
(0.301229 0.0050322 0.428603)
(0.310713 -0.116196 0.332577)
(0.120071 0.00396518 0.666816)
(-0.0745288 -0.0149857 1.79954)
(0.195535 -0.0586879 2.32164)
(0.318818 -0.0561159 1.47508)
(0.238908 0.257259 0.860904)
(0.129954 -0.503814 3.11294)
(0.0705855 -0.219217 3.04554)
(-0.242996 0.210384 2.05081)
(0.0825042 0.337043 1.99159)
(0.128708 0.00980327 1.25414)
(-0.106031 -0.17121 2.89849)
(0.0893281 -0.54278 4.50851)
(0.122328 0.203745 1.58833)
(-0.262479 0.306304 1.19583)
(0.112666 -0.109576 1.84043)
(0.023805 0.0597004 1.52113)
(-0.0410259 -0.17015 3.29481)
(0.292499 0.153836 1.30904)
(0.230458 0.00865055 0.699602)
(0.265981 -0.019221 0.64418)
(0.10796 -0.152028 0.930016)
(0.141744 0.117732 0.890228)
(0.232866 0.00309167 0.531303)
(0.296975 -0.127536 0.403624)
(0.135524 0.00386584 0.623312)
(-0.102475 -0.0155794 1.93609)
(0.135025 -0.0619545 2.34521)
(0.376996 -0.0751216 1.49842)
(0.210549 0.189547 0.902619)
(0.155164 -0.440906 3.08961)
(0.117519 -0.226705 3.12706)
(-0.134423 0.131681 1.97598)
(0.0422831 0.253209 1.97511)
(0.107094 0.00860157 1.30272)
(-0.0618049 -0.210473 2.96876)
(0.191434 -0.412724 4.1995)
(0.250305 0.162053 1.62915)
(-0.204512 0.229459 1.26343)
(0.166067 -0.0864613 1.89858)
(0.0548472 -0.0418666 1.65858)
(0.0384432 -0.132546 2.93384)
(0.289859 0.0718369 1.27852)
(0.144734 -0.0968388 0.783016)
(0.247756 -0.0462006 0.775922)
(0.110383 -0.150307 1.0783)
(-0.021494 0.0552664 0.803676)
(0.162919 -0.0342924 0.504233)
(0.231126 -0.0876075 0.390218)
(0.117429 0.00836234 0.575252)
(-0.135691 0.0363422 2.05707)
(0.101177 -0.0769468 2.29872)
(0.392812 -0.081491 1.4793)
(0.115896 0.0471293 0.983528)
(0.188896 -0.267713 3.07264)
(0.187825 -0.24946 3.17262)
(-0.0221111 0.102768 1.95663)
(0.0285786 0.14041 1.96592)
(0.0919338 -0.00808536 1.35771)
(-0.0493375 -0.359065 3.09125)
(0.242622 -0.382148 3.87439)
(0.276856 0.152563 1.68458)
(-0.22438 0.202262 1.35627)
(0.215002 0.0051117 1.90085)
(0.0745323 -0.0971993 1.76049)
(-0.0866425 -0.00879727 2.36818)
(0.179623 -0.00212949 1.30177)
(-0.0256444 -0.098337 0.837503)
(0.179596 -0.0481577 0.876211)
(0.0951098 -0.0990013 1.1883)
(-0.0517102 0.0582564 0.81799)
(0.0927455 0.0209619 0.440007)
(0.183226 -0.0721316 0.343438)
(0.0264163 0.0138911 0.581828)
(-0.20751 0.105832 2.19073)
(0.0827029 -0.0316683 2.11231)
(0.35278 -0.0912228 1.45484)
(0.0325898 -0.0705251 1.07141)
(0.211799 -0.174169 3.09797)
(0.244677 -0.244912 3.19642)
(0.0402871 0.138947 1.94478)
(0.0370286 0.0660293 1.92141)
(0.0813779 -0.0497376 1.46408)
(-0.0475117 -0.571933 3.35847)
(0.195506 -0.452941 3.63267)
(0.212495 0.174422 1.77218)
(-0.303071 0.230695 1.41952)
(0.21959 0.196607 1.83472)
(0.119132 -0.109382 1.82908)
(-0.0870269 0.0724842 1.94663)
(-0.044798 -0.0493605 1.35577)
(-0.168754 -0.0428354 0.82986)
(0.0600438 -0.10314 0.88876)
(0.0898808 -0.0307562 1.32787)
(-0.0328665 0.0685158 0.834343)
(0.0423795 0.0633908 0.408172)
(0.164711 -0.0891056 0.306488)
(-0.0947741 0.000376401 0.671274)
(-0.285418 0.185912 2.31013)
(-0.00378721 0.0734981 1.91007)
(0.230823 -0.145797 1.4089)
(-0.000714456 -0.143423 1.15379)
(0.258135 -0.131911 3.16841)
(0.302321 -0.182068 3.21971)
(0.0330973 0.19846 1.92094)
(0.0453011 0.0419697 1.80484)
(0.100945 -0.105718 1.61639)
(-0.0318913 -0.586714 3.48628)
(0.19621 -0.468067 3.41954)
(0.00992021 0.229516 1.93043)
(-0.398269 0.262094 1.44966)
(0.145997 0.268969 1.71033)
(0.152135 -0.123348 1.88295)
(-0.119358 -0.147987 1.75953)
(-0.234353 -0.0486533 1.41669)
(-0.236387 -0.00021402 0.794683)
(-0.0428318 -0.0218236 0.875652)
(0.119154 -0.0586566 1.52877)
(-0.0289271 0.0562854 0.818135)
(0.0301743 0.0741603 0.395598)
(0.149138 -0.0938607 0.273619)
(-0.201298 -0.0146071 0.779888)
(-0.351109 0.242728 2.38276)
(-0.155694 0.0949459 1.8135)
(0.078137 -0.166863 1.34089)
(-0.0290876 -0.164428 1.22777)
(0.256707 -0.0621736 3.24979)
(0.331307 -0.107922 3.26302)
(-0.0424166 0.257801 1.89114)
(-0.0219297 0.000439955 1.64273)
(0.11139 -0.161932 1.80957)
(-0.0198626 -0.513901 3.54062)
(0.170312 -0.483866 3.05435)
(-0.209203 0.268015 2.06493)
(-0.459914 0.258105 1.46873)
(-0.0399 0.151111 1.47476)
(0.185189 -0.159546 1.92599)
(-0.194042 -0.277485 1.74133)
(-0.342834 -0.0289069 1.48183)
(-0.245408 0.00851041 0.785556)
(-0.194859 0.0367161 0.811148)
(0.137743 -0.110077 1.69357)
(-0.0192074 0.0508744 0.755977)
(0.0541676 0.0645776 0.381407)
(0.129941 -0.0736047 0.262237)
(-0.27671 -0.0217851 0.831848)
(-0.372855 0.248729 2.45337)
(-0.347062 0.0527693 1.79293)
(-0.105763 -0.101039 1.28173)
(-0.0832401 -0.187642 1.24799)
(0.270812 0.0324974 3.37959)
(0.269079 -0.0331935 3.3162)
(-0.115357 0.286983 1.91176)
(-0.162029 -0.0859606 1.46268)
(0.122277 -0.231801 1.97622)
(-0.0286167 -0.460234 3.59276)
(0.172955 -0.402409 2.80848)
(-0.3611 0.288514 2.28687)
(-0.461435 0.233125 1.46758)
(-0.262007 -0.00924407 1.20516)
(0.172745 -0.173247 1.90819)
(-0.257486 -0.356951 1.70953)
(-0.35297 0.0117837 1.53842)
(-0.188119 0.00746166 0.790444)
(-0.238233 -0.0584794 0.687363)
(0.196264 -0.22783 1.7757)
(0.0247532 0.0681876 0.667898)
(0.116255 0.0426713 0.353693)
(0.139695 -0.0617844 0.288047)
(-0.339767 -0.0304739 0.810743)
(-0.369287 0.252041 2.54076)
(-0.441523 0.0564639 1.83673)
(-0.289255 0.00641189 1.20658)
(-0.213108 -0.272052 1.28336)
(0.241617 0.222052 3.48681)
(0.150012 0.184554 3.41628)
(-0.140018 0.305107 1.98029)
(-0.267066 -0.17309 1.28926)
(0.0847202 -0.32859 2.0768)
(-0.00911382 -0.335879 3.63335)
(0.223294 -0.319825 2.77088)
(-0.33664 0.357083 2.61397)
(-0.345613 0.213743 1.5054)
(-0.316703 -0.0895227 1.00482)
(0.104501 -0.243643 1.82533)
(-0.3208 -0.336425 1.66923)
(-0.24741 0.141414 1.56227)
(-0.00689697 0.0503895 0.81249)
(-0.0720035 -0.0745389 0.62876)
(0.208557 -0.332942 1.65031)
(0.102934 0.0999026 0.571972)
(0.207696 0.0273778 0.328987)
(0.200865 -0.0898714 0.308734)
(-0.383486 -0.0481365 0.749888)
(-0.272863 0.153076 2.65556)
(-0.370345 0.121199 1.89301)
(-0.454564 0.0765958 1.12024)
(-0.367854 -0.318241 1.25542)
(0.260663 0.344639 3.59331)
(0.211147 0.411063 3.47782)
(-0.0643371 0.287721 2.08199)
(-0.254037 -0.223312 1.16232)
(-0.0466898 -0.430871 2.06268)
(-0.00705004 -0.160755 3.67669)
(0.247829 -0.0616359 2.82117)
(-0.0361691 0.466358 2.7962)
(0.0716113 0.246829 1.6708)
(-0.209995 -0.0963281 0.918317)
(-0.0256811 -0.332921 1.64293)
(-0.235241 -0.191703 1.71648)
(0.100765 0.424549 1.53222)
(0.246455 0.165674 0.886964)
(0.164611 -0.0200808 0.65368)
(0.118401 -0.312701 1.25747)
(0.21118 0.146952 0.543662)
(0.300294 0.0399243 0.361044)
(0.25925 -0.101664 0.349873)
(-0.38107 -0.0667228 0.712086)
(-0.139684 -0.0132205 2.8371)
(-0.269619 0.180528 1.97624)
(-0.518519 0.0338046 1.0821)
(-0.478741 -0.308136 1.13579)
(0.330611 0.557213 3.46589)
(0.388175 0.442486 3.45453)
(0.277517 0.122496 2.22887)
(-0.12449 -0.223597 1.13713)
(-0.145204 -0.508561 1.99322)
(0.0850674 0.070651 3.4949)
(0.459459 0.46481 3.00809)
(0.502565 0.562169 2.7431)
(0.514853 0.315197 1.81329)
(0.0605933 -0.0593862 0.98749)
(-0.0255111 -0.355604 1.41319)
(0.319542 0.638293 1.73575)
(0.442925 0.594099 1.61246)
(0.475127 0.267295 1.01888)
(0.361664 0.0428735 0.759873)
(0.173873 -0.274749 0.989104)
(0.349088 0.189897 0.6787)
(0.372606 0.0576282 0.500852)
(0.292325 -0.102376 0.469883)
(-0.299143 -0.0846012 0.736539)
(0.311223 -0.216537 2.93027)
(-0.0765364 0.14345 2.15068)
(-0.414418 -0.158763 1.16447)
(-0.487171 -0.287377 0.99064)
(0.532262 0.230104 2.89499)
(0.77221 0.234182 3.29569)
(0.654962 -0.129027 2.25578)
(0.101849 -0.182283 1.24569)
(-0.135012 -0.514004 1.95215)
(0.117468 0.284598 2.51677)
(0.870891 0.832957 2.26222)
(0.764434 0.542244 2.68421)
(0.677739 0.36793 1.85992)
(0.270577 -0.0232319 1.12614)
(0.0800183 -0.347035 1.33817)
(0.551717 0.885601 1.84945)
(0.570582 0.536376 1.78775)
(0.565516 0.298544 1.19482)
(0.468779 0.0819638 0.95761)
(0.220153 -0.292098 1.01917)
(0.357994 0.151083 0.921896)
(0.37385 0.0525057 0.719359)
(0.296881 -0.0965662 0.675345)
(-0.18045 -0.0874665 0.864768)
(0.573205 -0.585635 2.90943)
(0.526181 -0.148285 2.71489)
(-0.156371 -0.393965 1.47423)
(-0.375893 -0.241814 0.928322)
(0.460806 -0.424275 2.00074)
(0.898221 0.0478995 3.09802)
(0.703602 -0.269127 2.16944)
(0.199445 -0.0945337 1.42225)
(-0.0781064 -0.491402 2.01112)
(0.104501 0.213478 1.31675)
(0.35268 -0.00971955 1.58286)
(0.753474 0.43566 2.6648)
(0.65025 0.3828 1.84451)
(0.351526 -0.00849816 1.27142)
(0.166636 -0.354842 1.41578)
(0.0629186 0.263868 2.11895)
(0.491031 0.314723 1.86323)
(0.518316 0.282238 1.38091)
(0.485598 0.0982155 1.18083)
(0.26037 -0.345307 1.18519)
(0.228069 0.123888 1.11263)
(0.316224 0.0345939 0.928924)
(0.276316 -0.0866986 0.912893)
(-0.0294469 -0.0618998 1.08786)
(0.478409 -0.569488 2.7454)
(0.656245 -0.329273 3.12152)
(0.112866 -0.485377 1.92452)
(-0.231748 -0.161306 0.997945)
(0.287941 -0.744602 1.71975)
(0.697209 -0.015467 2.95172)
(0.531716 -0.304917 1.98747)
(0.147247 0.0566906 1.59453)
(-0.0218817 -0.445412 2.15724)
(-0.0247242 -0.0216452 0.930359)
(0.12341 -0.762685 1.32917)
(0.529128 0.273881 2.55046)
(0.494589 0.329918 1.72404)
(0.316626 -0.012338 1.40864)
(0.206253 -0.386404 1.58199)
(-0.099588 -0.280657 1.85875)
(0.269278 0.150879 1.84029)
(0.425231 0.227188 1.51254)
(0.455903 0.0771149 1.36378)
(0.299209 -0.407906 1.36177)
(0.0852197 0.1299 1.19451)
(0.246176 0.0237453 1.08384)
(0.242584 -0.0834854 1.13182)
(0.0823399 -0.0359251 1.37168)
(0.368419 -0.394395 2.67452)
(0.457351 -0.398722 3.32602)
(0.288768 -0.366886 2.31042)
(-0.0944142 -0.0918688 1.17249)
(0.0704328 -0.634441 1.79119)
(0.112807 -0.298662 2.65046)
(0.294212 -0.165887 1.74179)
(-0.00391218 0.221686 1.72195)
(-0.00568953 -0.417494 2.32325)
(-0.0270887 0.0666268 0.813879)
(0.0648638 -0.811413 1.30071)
(0.052175 0.236916 2.29626)
(0.341784 0.197159 1.56081)
(0.202976 0.00306568 1.53372)
(0.198515 -0.416104 1.74691)
(0.194379 -0.350527 1.23095)
(0.0599077 0.0805894 1.76742)
(0.365216 0.14414 1.54891)
(0.404401 0.0247489 1.47353)
(0.334015 -0.43584 1.50384)
(0.00733325 0.117069 1.19476)
(0.179903 0.0193943 1.17868)
(0.215999 -0.0843835 1.30196)
(0.131456 -0.000424891 1.60061)
(0.193133 0.0394222 2.05358)
(0.420786 -0.355631 3.35588)
(0.486588 -0.162499 2.62077)
(0.022534 -0.0335856 1.34322)
(-0.278354 -0.413333 1.96229)
(-0.173529 -0.375131 2.31641)
(0.127328 0.0255829 1.5837)
(-0.137107 0.340505 1.79849)
(-0.0344807 -0.373747 2.48088)
(0.00330102 0.177983 0.815119)
(-0.289839 -0.457044 1.46894)
(-0.176194 0.137387 1.98233)
(0.251024 0.103024 1.45053)
(0.0703335 0.0558545 1.6501)
(0.185153 -0.420398 1.86928)
(0.0825305 -0.183058 0.975555)
(-0.023217 0.017558 1.64656)
(0.331881 0.0828168 1.51773)
(0.34098 -0.0118323 1.53168)
(0.35495 -0.451065 1.62671)
(0.00228463 0.088539 1.16216)
(0.12736 0.0276683 1.23188)
(0.203351 -0.0837653 1.42612)
(0.117161 0.0380218 1.66788)
(0.0609997 -0.14558 1.76775)
(0.589404 -0.134518 3.25105)
(0.610958 0.0321266 2.92464)
(0.117356 0.0212147 1.46644)
(-0.423428 -0.406974 2.15254)
(-0.212566 -0.121181 2.00031)
(-0.00692118 0.149437 1.48296)
(-0.193276 0.41303 1.84399)
(-0.0892802 -0.325935 2.59418)
(0.0160348 0.177381 0.970988)
(-0.423306 -0.239289 1.62954)
(-0.202131 -0.0485817 1.68414)
(0.182666 0.0459417 1.39886)
(-0.0360018 0.139376 1.75526)
(0.179119 -0.394818 1.95664)
(0.0458143 -0.000850525 0.909776)
(0.0114025 -0.0157068 1.50213)
(0.297077 0.0658384 1.45935)
(0.26848 -0.0159617 1.58843)
(0.360489 -0.467793 1.73406)
(0.0532642 0.0595294 1.12238)
(0.0935445 0.0322029 1.25093)
(0.200311 -0.0848066 1.51246)
(0.0279028 0.0524087 1.62772)
(0.133105 -0.262231 1.9063)
(0.303904 0.16991 3.1208)
(0.464929 0.113016 3.12386)
(0.183564 0.058037 1.53596)
(-0.39492 -0.332422 2.22784)
(-0.226877 0.142025 1.80448)
(-0.107321 0.186285 1.42992)
(-0.20393 0.447674 1.87627)
(-0.0745072 -0.261118 2.67223)
(0.0153485 0.123009 1.13035)
(-0.381791 -0.216207 1.7481)
(-0.16904 -0.182311 1.51119)
(0.142065 0.0031883 1.39992)
(-0.110742 0.217936 1.84626)
(0.168214 -0.347908 2.02984)
(0.0606204 0.103603 0.924649)
(0.0870726 -0.0266112 1.35467)
(0.25425 0.0780047 1.41254)
(0.180192 0.0196907 1.67696)
(0.351553 -0.462508 1.82648)
(0.129802 0.0501195 1.09569)
(0.0776132 0.0245744 1.25471)
(0.208037 -0.093703 1.57441)
(-0.147535 0.0161075 1.69398)
(0.103237 -0.240726 2.20951)
(-0.0213482 0.351431 3.15548)
(0.224684 0.0898588 3.22964)
(0.25325 0.0809626 1.57607)
(-0.271915 -0.28802 2.28221)
(-0.275785 0.25817 1.73735)
(-0.18761 0.127563 1.40945)
(-0.201752 0.444738 1.89035)
(-0.193125 0.00581939 2.75631)
(-0.00173067 0.10847 1.2254)
(-0.30587 -0.242704 1.85311)
(-0.126147 -0.231472 1.42515)
(0.129955 -0.0270049 1.4187)
(-0.164497 0.279018 1.91309)
(0.173639 -0.311352 2.08887)
(0.0988178 0.148775 0.937453)
(0.134701 -0.0133969 1.24521)
(0.21487 0.104829 1.3937)
(0.0785505 0.0970516 1.78999)
(0.340215 -0.444111 1.90967)
(0.184751 0.0440608 1.08643)
(0.0766581 0.0153982 1.26213)
(0.221335 -0.104738 1.61849)
(-0.24804 -0.0942911 1.86181)
(-0.00831323 -0.15598 2.65529)
(-0.145081 0.29031 3.25531)
(-0.0312552 -0.258443 2.91318)
(0.30048 0.153982 1.62435)
(-0.149851 -0.307254 2.32032)
(-0.316374 0.267548 1.73428)
(-0.262963 -0.00995801 1.42508)
(-0.212232 0.38266 1.89724)
(-0.352666 0.194007 2.80727)
(-0.0214773 0.183628 1.29329)
(-0.221778 -0.324097 1.88472)
(-0.0668316 -0.236227 1.36894)
(0.141092 -0.0525092 1.42349)
(-0.219653 0.320993 1.95174)
(0.213456 -0.288763 2.17641)
(0.104493 0.150204 0.914326)
(0.169235 0.0197374 1.17683)
(0.184075 0.134842 1.40241)
(-0.0104727 0.172602 1.8891)
(0.326717 -0.447129 1.97383)
(0.209039 0.050061 1.09555)
(0.0840827 0.0115273 1.2851)
(0.228605 -0.11086 1.65784)
(-0.0738759 -0.0910611 1.9558)
(-0.178653 0.0389239 3.18042)
(-0.229692 0.15097 3.41605)
(-0.186069 -0.164964 2.34815)
(0.275532 0.190646 1.62962)
(-0.0885678 -0.275584 2.42457)
(-0.337021 0.208061 1.76733)
(-0.317143 -0.144992 1.45639)
(-0.291874 0.206491 1.87283)
(-0.369475 0.158369 2.69857)
(-0.0216296 0.260445 1.31075)
(-0.0465054 -0.301924 1.86111)
(-0.00450609 -0.203755 1.32074)
(0.166408 -0.0668393 1.4107)
(-0.277938 0.334464 1.96258)
(0.178124 -0.252811 2.34897)
(0.110214 0.14496 0.888583)
(0.192519 0.0439086 1.13541)
(0.166123 0.15372 1.43257)
(-0.0644168 0.217244 1.95002)
(0.29199 -0.45419 2.02421)
(0.227601 0.0666468 1.13208)
(0.103622 0.0202093 1.3312)
(0.231547 -0.111968 1.70614)
(0.0393826 -0.0182945 1.81895)
(-0.315147 0.28576 3.48797)
(-0.240768 0.0800962 3.51812)
(-0.106673 -2.0534e-05 1.95072)
(0.141213 0.124389 1.56235)
(-0.127757 0.0013779 2.66396)
(-0.337869 0.127987 1.88099)
(-0.316524 -0.225439 1.47985)
(-0.357484 0.0381072 1.77891)
(-0.303043 -0.0677104 2.52338)
(0.0120558 0.315523 1.26997)
(0.112543 -0.0443682 1.85171)
(0.0524492 -0.141573 1.28085)
(0.194141 -0.0611629 1.39376)
(-0.323687 0.320471 1.9374)
(0.150435 -0.296818 2.51297)
(0.1149 0.148517 0.833819)
(0.189987 0.0557435 1.1143)
(0.162592 0.163981 1.4735)
(-0.10059 0.232525 1.96888)
(0.259608 -0.457974 2.05487)
(0.229495 0.0753247 1.18422)
(0.123569 0.038662 1.39817)
(0.228607 -0.109003 1.77131)
(0.0106566 0.0273147 1.79647)
(-0.394853 0.403524 3.52502)
(-0.271623 0.103982 3.54342)
(-0.0687579 0.00731921 1.76678)
(-0.0445624 0.00882276 1.48067)
(-0.218415 0.3552 2.96855)
(-0.23912 0.0744827 2.05913)
(-0.245654 -0.257506 1.51213)
(-0.338083 -0.0609229 1.65378)
(-0.309726 -0.306633 2.18236)
(0.030494 0.363473 1.20227)
(0.13824 0.16315 1.78803)
(0.119429 -0.0702468 1.25358)
(0.20891 -0.0441896 1.38952)
(-0.354717 0.297928 1.89153)
(0.206319 -0.122869 2.77871)
(0.139078 0.159133 0.792804)
(0.186141 0.0583408 1.09777)
(0.173708 0.171882 1.51788)
(-0.129793 0.243747 1.96222)
(0.239907 -0.429051 2.04561)
(0.221733 0.0697634 1.23735)
(0.135078 0.060742 1.48148)
(0.213438 -0.0991879 1.84845)
(-0.0121844 0.0339415 1.86545)
(-0.372866 0.410248 3.37818)
(-0.355381 0.145914 3.43863)
(-0.28566 -0.0527444 1.70724)
(-0.171312 -0.0420446 1.40493)
(-0.227232 0.568447 3.1305)
(0.0127781 -0.0230204 2.24221)
(-0.0533423 -0.263941 1.57637)
(-0.213386 -0.0923959 1.57812)
(-0.251513 -0.226543 1.89392)
(0.0290568 0.438536 1.18596)
(0.1265 0.313276 1.70353)
(0.189863 -0.000841135 1.22793)
(0.20724 -0.0151198 1.40646)
(-0.360687 0.280439 1.87986)
(-0.0364571 0.276664 2.88646)
(0.183231 0.129952 0.776786)
(0.187937 0.048816 1.09186)
(0.192458 0.180748 1.5811)
(-0.169956 0.29383 1.96799)
(0.112599 -0.212484 2.14616)
(0.221377 0.0739844 1.27759)
(0.140627 0.0841452 1.5834)
(0.189595 -0.0818794 1.94982)
(0.0605813 0.0247987 1.85605)
(-0.290204 0.332237 3.10395)
(-0.389461 0.162618 3.2312)
(-0.395328 -0.114218 1.64208)
(-0.157339 0.00212224 1.33358)
(-0.129197 0.584707 3.14296)
(0.333968 -0.07605 2.31155)
(0.202642 -0.214535 1.64315)
(-0.0389411 -0.05479 1.56602)
(-0.0850374 -0.0667158 1.72234)
(0.0279802 0.511755 1.21668)
(0.145986 0.41185 1.61501)
(0.256062 0.0716263 1.21434)
(0.234852 0.0297839 1.43722)
(-0.301156 0.248073 1.89267)
(-0.293741 0.208853 2.29142)
(0.229616 0.149705 0.773756)
(0.203001 0.0115295 1.10008)
(0.214662 0.188462 1.66803)
(-0.171373 0.316001 2.06338)
(-0.0900949 0.165204 2.49944)
(0.230658 0.0734405 1.32692)
(0.145575 0.104813 1.70677)
(0.166614 -0.0685778 2.08684)
(0.27825 -0.00906853 1.69695)
(-0.153556 0.169395 2.97896)
(-0.285174 0.152764 3.04599)
(-0.308925 -0.0948405 1.61299)
(-0.00529397 0.0992656 1.32407)
(-0.00877653 0.451376 3.03527)
(0.60496 0.0175986 2.25215)
(0.413275 -0.093296 1.67511)
(0.127742 0.0328071 1.60943)
(0.0468966 0.0127601 1.6393)
(0.0474025 0.561241 1.25591)
(0.0982142 0.454213 1.47201)
(0.302832 0.144129 1.21519)
(0.281071 0.0797764 1.47441)
(-0.166314 0.22096 1.91994)
(-0.122086 0.0991177 1.91374)
(0.282799 0.291247 0.867598)
(0.221744 -0.0162809 1.13683)
(0.238018 0.205094 1.78122)
(-0.16395 0.314437 2.24216)
(-0.148604 0.255385 2.7602)
(0.243837 0.0689071 1.36718)
(0.149859 0.118846 1.84749)
(0.152044 -0.0628937 2.24955)
(0.528356 0.00481968 1.60332)
(0.116485 0.0355055 2.69602)
(-0.0125809 0.146003 2.8871)
(0.179455 0.0830029 1.6892)
(0.211484 0.185469 1.40697)
(0.210594 0.193322 2.86166)
(0.730603 0.207504 2.11366)
(0.504352 0.0685778 1.70334)
(0.253844 0.13269 1.69471)
(0.116147 0.101296 1.64355)
(0.0524592 0.53791 1.24809)
(-0.0041232 0.460571 1.36336)
(0.303712 0.201359 1.23)
(0.309122 0.12632 1.52463)
(-0.103748 0.224102 1.95938)
(-0.0538881 0.086764 1.81913)
(0.311791 0.411411 1.00898)
(0.206808 -0.0181504 1.21127)
(0.249125 0.239476 1.92716)
(-0.178765 0.304485 2.41939)
(-0.141102 0.271986 2.93484)
(0.26401 0.0647516 1.42874)
(0.151411 0.126625 2.00438)
(0.151925 -0.0630092 2.43147)
(0.621862 0.0178174 1.70611)
(0.131698 -0.0686519 2.23149)
(0.566995 -0.0133672 2.49195)
(0.552527 0.0805114 1.82657)
(0.381051 0.209699 1.57834)
(0.123182 0.348001 2.37855)
(0.624573 0.354156 1.97007)
(0.466297 0.196844 1.75755)
(0.313665 0.209632 1.80481)
(0.167393 0.206238 1.75307)
(0.0366097 0.477385 1.26643)
(-0.0807655 0.402436 1.36422)
(0.268637 0.20527 1.26853)
(0.304295 0.14347 1.58966)
(-0.0884887 0.20368 2.02226)
(-0.0504336 0.104051 1.84821)
(0.304614 0.418289 1.09532)
(0.166437 -0.0146277 1.27856)
(0.234337 0.282143 2.09477)
(-0.193344 0.296073 2.6041)
(-0.11885 0.284523 3.08073)
(0.240936 0.0580583 1.5035)
(0.149596 0.126269 2.17477)
(0.164683 -0.0657375 2.6195)
(0.446222 0.0411718 1.82164)
(0.0362394 0.0181118 1.77384)
(0.481098 -0.0335498 2.08959)
(0.586081 0.0388058 1.86726)
(0.420731 0.141342 1.79311)
(0.055233 0.415881 1.90556)
(0.366942 0.392435 1.87204)
(0.35088 0.252006 1.78334)
(0.298642 0.242064 1.89899)
(0.180493 0.272307 1.91566)
(0.0329476 0.41854 1.32595)
(-0.116316 0.299657 1.43568)
(0.185216 0.120796 1.33262)
(0.279893 0.103952 1.65213)
(-0.0774548 0.135363 2.08427)
(-0.0448563 0.168246 1.96912)
(0.289452 0.386377 1.13687)