/*--------------------------------*- C++ -*----------------------------------*\
| =========                 |                                                 |
| \\      /  F ield         | OpenFOAM: The Open Source CFD Toolbox           |
|  \\    /   O peration     | Version:  5.x                                   |
|   \\  /    A nd           | Web:      www.OpenFOAM.org                      |
|    \\/     M anipulation  |                                                 |
\*---------------------------------------------------------------------------*/
FoamFile
{
    version     2.0;
    format      ascii;
    class       volVectorField;
    location    "8.4";
    object      Us;
}
// * * * * * * * * * * * * * * * * * * * * * * * * * * * * * * * * * * * * * //

dimensions      [0 1 -1 0 0 0 0];

internalField   nonuniform List<vector> 
10571
(
(-0.129011 -0.0481305 -0.0391304)
(-0.0323107 0.0670895 -0.0563553)
(-0.120271 0.0664456 -0.00268148)
(-0.151654 0.0531172 -0.108441)
(-0.0688444 0.00343201 -0.0810339)
(-0.0512387 0.189677 0.0315385)
(-0.155208 0.161238 0.0478356)
(-0.2654 0.0962402 -0.112223)
(-0.140064 0.0324052 -0.110461)
(-0.0154102 0.016036 -0.106624)
(0.0420144 0.0745787 -0.0990258)
(-0.0157512 0.170592 0.0307946)
(-0.205406 0.157241 0.0734571)
(-0.268499 0.156958 -0.119571)
(-0.141141 0.132399 -0.127137)
(0.0167788 0.128666 -0.0835258)
(0.0482366 0.010059 -0.0660027)
(-0.137913 0.0933268 0.0625974)
(-0.237053 0.17179 -0.0687022)
(-0.146533 0.214216 -0.0873798)
(-0.0596737 0.162116 -0.0510534)
(-0.0321843 -0.0389004 -0.10342)
(-0.120339 0.0270415 0.0343705)
(-0.158073 0.0838402 0.0127509)
(-0.00695759 0.0353863 -0.0365524)
(-0.0346337 0.0408179 -0.0199426)
(-0.146345 0.167492 0.00463426)
(-0.0756911 0.096818 -0.0901437)
(-0.0596505 0.0360372 -0.143111)
(-0.038278 0.130526 0.0922956)
(-0.221382 0.262113 0.122814)
(-0.129383 0.206189 -0.0359654)
(-0.0906093 0.178211 -0.150841)
(-0.0211334 0.106067 -0.127476)
(0.00950239 0.0505712 -0.0403499)
(-0.020014 0.151325 0.122613)
(-0.127741 0.130014 0.164364)
(-0.061148 0.149385 -0.00130174)
(-0.0772687 0.137853 -0.0849699)
(-0.0697259 0.148683 -0.0729395)
(0.014324 -0.00325996 0.00881622)
(-0.0794798 -0.0195973 0.118661)
(0.00891671 0.066157 0.136563)
(-0.0690373 0.0866008 -0.00610628)
(-0.0965295 0.157572 0.101822)
(-0.0551125 -0.0104223 0.00145665)
(-0.0857751 0.0177437 0.0218495)
(-0.16227 0.114637 0.0533449)
(0.0220995 0.0321588 -0.187409)
(0.0101669 -0.0245173 -0.00396692)
(-0.102708 0.108168 0.0331473)
(-0.0788383 0.119858 -0.0838873)
(-0.0364935 0.0957528 -0.255858)
(-0.131566 0.0914681 0.150798)
(-0.167897 0.173669 0.113974)
(-0.0694061 0.180313 -0.0222928)
(-0.0660926 0.137432 -0.174766)
(-0.0154622 0.119011 -0.24318)
(-0.000457986 -0.0212217 -0.0353146)
(-0.0913065 0.0954311 0.260989)
(-0.132465 0.155736 0.246864)
(0.0427215 0.0600806 0.107893)
(0.102771 0.0207535 -0.00641182)
(-0.0657745 0.131562 -0.158795)
(-0.0269604 -0.0269676 0.0934567)
(-0.0775023 -0.000650744 0.198572)
(0.0663305 -0.0349859 0.275315)
(0.0918454 -0.0473185 0.16846)
(-0.0387468 0.0601457 0.107174)
(-0.0335677 -0.00510878 0.0760293)
(-0.0852937 0.0296942 0.146693)
(-0.0785538 0.0632621 0.199805)
(0.111692 0.0183796 -0.584264)
(-0.00685842 -0.0357263 -0.111333)
(0.0499862 -0.0479125 -0.276807)
(0.119909 0.0208891 -0.547389)
(0.119948 -0.0372705 -0.600241)
(-0.178908 0.0832232 0.12121)
(-0.129243 0.109964 0.139801)
(0.0571959 0.0447879 -0.201412)
(0.148447 -0.0398171 -0.384686)
(0.0648519 0.200152 -0.582187)
(-0.00206846 0.0358038 -0.0136129)
(-0.161167 0.0481919 0.365323)
(-0.116926 0.152407 0.279653)
(0.122619 0.0347666 0.129147)
(0.260951 -0.0211736 0.0361552)
(-0.0223303 -0.10456 -0.423302)
(-0.00955246 -0.00588257 0.122168)
(-0.030346 0.0280018 0.233088)
(0.025224 -0.042462 0.260188)
(0.13713 -0.0969282 0.188025)
(0.0481191 -0.126501 -0.0681738)
(0.0110348 0.00646182 0.112287)
(-0.0466121 -0.0113774 0.215035)
(-0.0479026 -0.0072334 0.251188)
(0.0670644 0.0512015 -0.517956)
(-0.0125691 -0.0401868 -0.0338697)
(0.0526921 -0.0514287 -0.406922)
(0.0973633 0.173166 -0.543364)
(0.139466 -0.0654242 -0.554312)
(-0.196123 0.056038 0.127764)
(-0.0656349 0.104569 0.0640473)
(0.0801602 -0.0230866 -0.387442)
(0.129612 -0.0434473 -0.473052)
(0 0 0)
(-0.00732693 0.06886 0.0189396)
(-0.20121 0.0685716 0.409448)
(-0.0824286 0.198937 0.168205)
(0.165237 0.0907683 0.0293933)
(0.102566 -0.084968 -0.277766)
(0.0158834 -0.126398 -0.364623)
(-0.00615719 0.0369105 0.151834)
(-0.0200033 0.168042 0.237278)
(0.0267318 0.0110804 0.256199)
(0.114073 -0.065945 0.157485)
(0 0 0)
(0.0650956 0.0678274 0.154091)
(-0.0603275 0.04268 0.227454)
(-0.0183299 0.00867084 0.144283)
(0.0890141 -0.00181369 -0.469125)
(-0.0762267 -0.163677 -0.0233005)
(0.0865809 0.0313741 -0.404809)
(0.099023 0.00337042 -0.442574)
(0.160178 -0.126309 -0.553354)
(-0.164434 -0.00834901 0.229797)
(-0.0435543 0.0436588 -0.0908091)
(0.0865374 -0.0277927 -0.373354)
(0 0 0)
(0 0 0)
(-0.00646471 0.00483434 -0.0032009)
(0.00976505 0.0768191 0.0500912)
(-0.165455 0.169536 0.136434)
(-0.0525507 0.17778 0.06484)
(0.109325 0.174875 -0.0787465)
(0.0494864 -0.0738269 -0.31628)
(0.0928232 -0.125139 -0.344463)
(-0.00222151 -0.000124246 -0.0011672)
(-0.0799316 0.122946 0.164008)
(-0.0146684 0.252169 0.188618)
(0.0106941 -0.0183754 0.0714525)
(0.0250685 -0.0459778 -0.306838)
(0.075095 -0.0681418 -0.261105)
(0.126619 0.187332 0.259141)
(0 0 0)
(0.0463405 -0.0517009 0.121161)
(0.114302 0.04931 -0.412406)
(-0.0192987 -0.0406291 -0.333344)
(0.0786977 0.0452565 -0.35376)
(0.0776413 -0.0773989 -0.401766)
(0 0 0)
(-0.14448 -0.0283846 0.138323)
(0.00129216 -0.00937376 -0.270794)
(0.0778899 -0.0319543 -0.381964)
(0 0 0)
(0 0 0)
(0 0 0)
(-0.0601755 0.0615711 0.207091)
(-0.163249 0.109634 0.0981744)
(-0.0468614 0.12534 0.0340574)
(0 0 0)
(0 0 0)
(0 0 0)
(0 0 0)
(-0.0536983 0.175713 0.240652)
(-0.0245185 0.311488 0.100227)
(-0.0121278 -0.0171329 -0.187781)
(0.0285822 -0.0371604 -0.278386)
(0.0600454 -0.0686483 -0.258859)
(0 0 0)
(0.358045 0.107796 0.458635)
(0 0 0)
(-0.0312804 0.0154563 -0.236804)
(0 0 0)
(0.0349417 0.00672548 -0.347242)
(0.119114 0.0911839 -0.395433)
(0 0 0)
(0 0 0)
(0.115007 0.000630475 -0.396422)
(0.0181785 -0.0261897 -0.363024)
(0.0685733 -0.0275636 -0.362044)
(0 0 0)
(0 0 0)
(0 0 0)
(0 0 0)
(-0.0681606 0.0180489 -0.418726)
(-0.0257972 0.175389 0.058859)
(0 0 0)
(0 0 0)
(0 0 0)
(0 0 0)
(0 0 0)
(0 0 0)
(0 0 0)
(0 0 0)
(0 0 0)
(0 0 0)
(0 0 0)
(0 0 0)
(0 0 0)
(0 0 0)
(0.103759 0.0239492 -0.32668)
(0.0346232 -0.0949008 -0.342793)
(0 0 0)
(0 0 0)
(0 0 0)
(0.0220289 -0.0301844 -0.299111)
(0 0 0)
(0 0 0)
(0 0 0)
(0 0 0)
(0 0 0)
(0 0 0)
(0 0 0)
(0 0 0)
(0 0 0)
(0 0 0)
(0 0 0)
(0 0 0)
(0 0 0)
(0 0 0)
(0 0 0)
(0 0 0)
(0 0 0)
(0 0 0)
(0 0 0)
(0 0 0)
(0.0118064 -0.0568195 -0.267677)
(0.019324 -0.103972 -0.294113)
(0 0 0)
(0 0 0)
(-0.0537844 -0.0411427 -0.284644)
(0.0097417 -0.0367623 -0.280409)
(0 0 0)
(0 0 0)
(0 0 0)
(0 0 0)
(-0.0369875 0.0109552 -0.308116)
(0 0 0)
(0 0 0)
(0 0 0)
(0 0 0)
(0 0 0)
(0 0 0)
(0 0 0)
(0 0 0)
(0 0 0)
(0 0 0)
(0 0 0)
(0 0 0)
(0 0 0)
(0 0 0)
(0 0 0)
(0 0 0)
(0 0 0)
(-0.0386129 -0.0560137 -0.23029)
(0 0 0)
(0 0 0)
(0 0 0)
(0 0 0)
(0 0 0)
(0 0 0)
(0 0 0)
(0 0 0)
(0 0 0)
(0 0 0)
(0 0 0)
(0 0 0)
(0 0 0)
(0 0 0)
(0 0 0)
(0 0 0)
(0 0 0)
(0 0 0)
(0 0 0)
(0 0 0)
(0 0 0)
(0 0 0)
(0 0 0)
(0 0 0)
(0 0 0)
(0 0 0)
(0 0 0)
(0 0 0)
(0 0 0)
(0 0 0)
(0 0 0)
(0 0 0)
(0 0 0)
(0 0 0)
(0 0 0)
(0 0 0)
(0 0 0)
(0 0 0)
(0 0 0)
(0 0 0)
(0 0 0)
(0 0 0)
(0 0 0)
(0 0 0)
(0 0 0)
(0 0 0)
(0 0 0)
(0 0 0)
(0 0 0)
(0 0 0)
(0 0 0)
(0 0 0)
(0 0 0)
(0 0 0)
(0 0 0)
(0 0 0)
(0 0 0)
(0 0 0)
(0 0 0)
(0 0 0)
(0 0 0)
(0 0 0)
(0 0 0)
(0 0 0)
(0 0 0)
(0 0 0)
(0 0 0)
(0 0 0)
(0 0 0)
(0 0 0)
(0 0 0)
(0 0 0)
(0 0 0)
(0 0 0)
(0 0 0)
(0 0 0)
(0 0 0)
(0 0 0)
(0 0 0)
(0 0 0)
(0 0 0)
(0 0 0)
(0 0 0)
(0 0 0)
(0 0 0)
(0 0 0)
(0 0 0)
(0 0 0)
(0 0 0)
(0 0 0)
(0 0 0)
(0 0 0)
(0 0 0)
(0 0 0)
(0 0 0)
(0 0 0)
(0 0 0)
(0 0 0)
(0 0 0)
(0 0 0)
(0 0 0)
(0 0 0)
(0 0 0)
(0 0 0)
(0 0 0)
(0 0 0)
(0 0 0)
(0 0 0)
(0 0 0)
(0 0 0)
(0 0 0)
(0 0 0)
(0 0 0)
(0 0 0)
(0 0 0)
(0 0 0)
(0 0 0)
(0 0 0)
(0 0 0)
(0 0 0)
(0 0 0)
(0 0 0)
(0 0 0)
(0 0 0)
(0 0 0)
(0 0 0)
(0 0 0)
(0 0 0)
(0 0 0)
(0 0 0)
(0 0 0)
(0 0 0)
(0 0 0)
(0 0 0)
(0 0 0)
(0 0 0)
(0 0 0)
(0 0 0)
(0 0 0)
(0 0 0)
(0 0 0)
(0 0 0)
(0 0 0)
(0 0 0)
(0 0 0)
(0 0 0)
(0 0 0)
(0 0 0)
(0 0 0)
(0 0 0)
(0 0 0)
(0 0 0)
(0 0 0)
(0 0 0)
(0 0 0)
(0 0 0)
(0 0 0)
(0 0 0)
(0 0 0)
(0 0 0)
(0 0 0)
(0 0 0)
(0 0 0)
(0 0 0)
(0 0 0)
(0 0 0)
(0 0 0)
(0 0 0)
(0 0 0)
(0 0 0)
(0 0 0)
(0 0 0)
(0 0 0)
(0 0 0)
(0 0 0)
(0 0 0)
(0 0 0)
(0 0 0)
(0 0 0)
(0 0 0)
(0 0 0)
(0 0 0)
(0 0 0)
(0 0 0)
(0 0 0)
(0 0 0)
(0 0 0)
(0 0 0)
(0 0 0)
(0 0 0)
(0 0 0)
(0 0 0)
(0 0 0)
(0 0 0)
(0 0 0)
(0 0 0)
(0 0 0)
(0 0 0)
(0 0 0)
(0 0 0)
(0 0 0)
(0 0 0)
(0 0 0)
(0 0 0)
(0 0 0)
(0 0 0)
(0 0 0)
(0 0 0)
(0 0 0)
(0 0 0)
(0 0 0)
(0 0 0)
(0 0 0)
(0 0 0)
(0 0 0)
(0 0 0)
(0 0 0)
(0 0 0)
(0 0 0)
(0 0 0)
(0 0 0)
(0 0 0)
(0 0 0)
(0 0 0)
(0 0 0)
(0 0 0)
(0 0 0)
(0 0 0)
(0 0 0)
(0 0 0)
(0 0 0)
(0 0 0)
(0 0 0)
(0 0 0)
(0 0 0)
(0 0 0)
(0 0 0)
(0 0 0)
(0 0 0)
(0 0 0)
(0 0 0)
(0 0 0)
(0 0 0)
(0 0 0)
(0 0 0)
(0 0 0)
(0 0 0)
(0 0 0)
(0 0 0)
(0 0 0)
(0 0 0)
(0 0 0)
(0 0 0)
(0 0 0)
(0 0 0)
(0 0 0)
(0 0 0)
(0 0 0)
(0 0 0)
(0 0 0)
(0 0 0)
(0 0 0)
(0 0 0)
(0 0 0)
(0 0 0)
(0 0 0)
(0 0 0)
(0 0 0)
(0 0 0)
(0 0 0)
(0 0 0)
(0 0 0)
(0 0 0)
(0 0 0)
(0 0 0)
(0 0 0)
(0 0 0)
(0 0 0)
(0 0 0)
(0 0 0)
(0 0 0)
(0 0 0)
(0 0 0)
(0 0 0)
(0 0 0)
(0 0 0)
(0 0 0)
(0 0 0)
(0 0 0)
(0 0 0)
(0 0 0)
(0 0 0)
(0 0 0)
(0 0 0)
(0 0 0)
(0 0 0)
(0 0 0)
(0 0 0)
(0 0 0)
(0 0 0)
(0 0 0)
(0 0 0)
(0 0 0)
(0 0 0)
(0 0 0)
(0 0 0)
(0 0 0)
(0 0 0)
(0 0 0)
(0 0 0)
(0 0 0)
(0 0 0)
(0 0 0)
(0 0 0)
(0 0 0)
(0 0 0)
(0 0 0)
(0 0 0)
(0 0 0)
(0 0 0)
(0 0 0)
(0 0 0)
(0 0 0)
(0 0 0)
(0 0 0)
(0 0 0)
(0 0 0)
(0 0 0)
(0 0 0)
(0 0 0)
(0 0 0)
(0 0 0)
(0 0 0)
(0 0 0)
(0 0 0)
(0 0 0)
(0 0 0)
(0 0 0)
(0 0 0)
(0 0 0)
(0 0 0)
(0 0 0)
(0 0 0)
(0 0 0)
(0 0 0)
(0 0 0)
(0 0 0)
(0 0 0)
(0 0 0)
(0 0 0)
(0 0 0)
(0 0 0)
(0 0 0)
(0 0 0)
(0 0 0)
(0 0 0)
(0 0 0)
(0 0 0)
(0 0 0)
(0 0 0)
(0 0 0)
(0 0 0)
(0 0 0)
(0 0 0)
(0 0 0)
(0 0 0)
(0 0 0)
(0 0 0)
(0 0 0)
(0 0 0)
(0 0 0)
(0 0 0)
(0 0 0)
(0 0 0)
(0 0 0)
(0 0 0)
(0 0 0)
(0 0 0)
(0 0 0)
(0 0 0)
(0 0 0)
(0 0 0)
(0 0 0)
(0 0 0)
(0 0 0)
(0 0 0)
(0 0 0)
(0 0 0)
(0 0 0)
(0 0 0)
(0 0 0)
(0 0 0)
(0 0 0)
(0 0 0)
(0 0 0)
(0 0 0)
(0 0 0)
(0 0 0)
(0 0 0)
(0 0 0)
(0 0 0)
(0 0 0)
(0 0 0)
(0 0 0)
(0 0 0)
(0 0 0)
(0 0 0)
(0 0 0)
(0 0 0)
(0 0 0)
(0 0 0)
(0 0 0)
(0 0 0)
(0 0 0)
(0 0 0)
(0 0 0)
(0 0 0)
(0 0 0)
(0 0 0)
(0 0 0)
(0 0 0)
(0 0 0)
(0 0 0)
(0 0 0)
(0 0 0)
(0 0 0)
(0 0 0)
(0 0 0)
(0 0 0)
(0 0 0)
(0 0 0)
(0 0 0)
(0 0 0)
(0 0 0)
(0 0 0)
(0 0 0)
(0 0 0)
(0 0 0)
(0 0 0)
(0 0 0)
(0 0 0)
(0 0 0)
(0 0 0)
(0 0 0)
(0 0 0)
(0 0 0)
(0 0 0)
(0 0 0)
(0 0 0)
(0 0 0)
(0 0 0)
(0 0 0)
(0 0 0)
(0 0 0)
(0 0 0)
(0 0 0)
(0 0 0)
(0 0 0)
(0 0 0)
(0 0 0)
(0 0 0)
(0 0 0)
(0 0 0)
(0 0 0)
(0 0 0)
(0 0 0)
(0 0 0)
(0 0 0)
(0 0 0)
(0 0 0)
(0 0 0)
(0 0 0)
(0 0 0)
(0 0 0)
(0 0 0)
(0 0 0)
(0 0 0)
(0 0 0)
(0 0 0)
(0 0 0)
(0 0 0)
(0 0 0)
(0 0 0)
(0 0 0)
(0 0 0)
(0 0 0)
(0 0 0)
(0 0 0)
(0 0 0)
(0 0 0)
(0 0 0)
(0 0 0)
(0 0 0)
(0 0 0)
(0 0 0)
(0 0 0)
(0 0 0)
(0 0 0)
(0 0 0)
(0 0 0)
(0 0 0)
(0 0 0)
(0 0 0)
(0 0 0)
(0 0 0)
(0 0 0)
(0 0 0)
(0 0 0)
(0 0 0)
(0 0 0)
(0 0 0)
(0 0 0)
(0 0 0)
(0 0 0)
(0 0 0)
(0 0 0)
(0 0 0)
(0 0 0)
(0 0 0)
(0 0 0)
(0 0 0)
(0 0 0)
(0 0 0)
(0 0 0)
(0 0 0)
(0 0 0)
(0 0 0)
(0 0 0)
(0 0 0)
(0 0 0)
(0 0 0)
(0 0 0)
(0 0 0)
(0 0 0)
(0 0 0)
(0 0 0)
(0 0 0)
(0 0 0)
(0 0 0)
(0 0 0)
(0 0 0)
(0 0 0)
(0 0 0)
(0 0 0)
(0 0 0)
(0 0 0)
(0 0 0)
(0 0 0)
(0 0 0)
(0 0 0)
(0 0 0)
(0 0 0)
(0 0 0)
(0 0 0)
(0 0 0)
(0 0 0)
(0 0 0)
(0 0 0)
(0 0 0)
(0 0 0)
(0 0 0)
(0 0 0)
(0 0 0)
(0 0 0)
(0 0 0)
(0 0 0)
(0 0 0)
(0 0 0)
(0 0 0)
(0 0 0)
(0 0 0)
(0 0 0)
(0 0 0)
(0 0 0)
(0 0 0)
(0 0 0)
(0 0 0)
(0 0 0)
(0 0 0)
(0 0 0)
(0 0 0)
(0 0 0)
(0 0 0)
(0 0 0)
(0 0 0)
(0 0 0)
(0 0 0)
(0 0 0)
(0 0 0)
(0 0 0)
(0 0 0)
(0 0 0)
(0 0 0)
(0 0 0)
(0 0 0)
(0 0 0)
(0 0 0)
(0 0 0)
(0 0 0)
(0 0 0)
(0 0 0)
(0 0 0)
(0 0 0)
(0 0 0)
(0 0 0)
(0 0 0)
(0 0 0)
(0 0 0)
(0 0 0)
(0 0 0)
(0 0 0)
(0 0 0)
(0 0 0)
(0 0 0)
(0 0 0)
(0 0 0)
(0 0 0)
(0 0 0)
(0 0 0)
(0 0 0)
(0 0 0)
(0 0 0)
(0 0 0)
(0 0 0)
(0 0 0)
(0 0 0)
(0 0 0)
(0 0 0)
(0 0 0)
(0 0 0)
(0 0 0)
(0 0 0)
(0 0 0)
(0 0 0)
(0 0 0)
(0 0 0)
(0 0 0)
(0 0 0)
(0 0 0)
(0 0 0)
(0 0 0)
(0 0 0)
(0 0 0)
(0 0 0)
(0 0 0)
(0 0 0)
(0 0 0)
(0 0 0)
(0 0 0)
(0 0 0)
(0 0 0)
(0 0 0)
(0 0 0)
(0 0 0)
(0 0 0)
(0 0 0)
(0 0 0)
(0 0 0)
(0 0 0)
(0 0 0)
(0 0 0)
(0 0 0)
(0 0 0)
(0 0 0)
(0 0 0)
(0 0 0)
(0 0 0)
(0 0 0)
(0 0 0)
(0 0 0)
(0 0 0)
(0 0 0)
(0 0 0)
(0 0 0)
(0 0 0)
(0 0 0)
(0 0 0)
(0 0 0)
(0 0 0)
(0 0 0)
(0 0 0)
(0 0 0)
(0 0 0)
(0 0 0)
(0 0 0)
(0 0 0)
(0 0 0)
(0 0 0)
(0 0 0)
(0 0 0)
(0 0 0)
(0 0 0)
(0 0 0)
(0 0 0)
(0 0 0)
(0 0 0)
(0 0 0)
(0 0 0)
(0 0 0)
(0 0 0)
(0 0 0)
(0 0 0)
(0 0 0)
(0 0 0)
(0 0 0)
(0 0 0)
(0 0 0)
(0 0 0)
(0 0 0)
(0 0 0)
(0 0 0)
(0 0 0)
(0 0 0)
(0 0 0)
(0 0 0)
(0 0 0)
(0 0 0)
(0 0 0)
(0 0 0)
(0 0 0)
(0 0 0)
(0 0 0)
(0 0 0)
(0 0 0)
(0 0 0)
(0 0 0)
(0 0 0)
(0 0 0)
(0 0 0)
(0 0 0)
(0 0 0)
(0 0 0)
(0 0 0)
(0 0 0)
(0 0 0)
(0 0 0)
(0 0 0)
(0 0 0)
(0 0 0)
(0 0 0)
(0 0 0)
(0 0 0)
(0 0 0)
(0 0 0)
(0 0 0)
(0 0 0)
(0 0 0)
(0 0 0)
(0 0 0)
(0 0 0)
(0 0 0)
(0 0 0)
(0 0 0)
(0 0 0)
(0 0 0)
(0 0 0)
(0 0 0)
(0 0 0)
(0 0 0)
(0 0 0)
(0 0 0)
(0 0 0)
(0 0 0)
(0 0 0)
(0 0 0)
(0 0 0)
(0 0 0)
(0 0 0)
(0 0 0)
(0 0 0)
(0 0 0)
(0 0 0)
(0 0 0)
(0 0 0)
(0 0 0)
(0 0 0)
(0 0 0)
(0 0 0)
(0 0 0)
(0 0 0)
(0 0 0)
(0 0 0)
(0 0 0)
(0 0 0)
(0 0 0)
(0 0 0)
(0 0 0)
(0 0 0)
(0 0 0)
(0 0 0)
(0 0 0)
(0 0 0)
(0 0 0)
(0 0 0)
(0 0 0)
(0 0 0)
(0 0 0)
(0 0 0)
(0 0 0)
(0 0 0)
(0 0 0)
(0 0 0)
(0 0 0)
(0 0 0)
(0 0 0)
(0 0 0)
(0 0 0)
(0 0 0)
(0 0 0)
(0 0 0)
(0 0 0)
(0 0 0)
(0 0 0)
(0 0 0)
(0 0 0)
(0 0 0)
(0 0 0)
(0 0 0)
(0 0 0)
(0 0 0)
(0 0 0)
(0 0 0)
(0 0 0)
(0 0 0)
(0 0 0)
(0 0 0)
(0 0 0)
(0 0 0)
(0 0 0)
(0 0 0)
(0 0 0)
(0 0 0)
(0 0 0)
(0 0 0)
(0 0 0)
(0 0 0)
(0 0 0)
(0 0 0)
(0 0 0)
(0 0 0)
(0 0 0)
(0 0 0)
(0 0 0)
(0 0 0)
(0 0 0)
(0 0 0)
(0 0 0)
(0 0 0)
(0 0 0)
(0 0 0)
(0 0 0)
(0 0 0)
(0 0 0)
(0 0 0)
(0 0 0)
(0 0 0)
(0 0 0)
(0 0 0)
(0 0 0)
(0 0 0)
(0 0 0)
(0 0 0)
(0 0 0)
(0 0 0)
(0 0 0)
(0 0 0)
(0 0 0)
(0 0 0)
(0 0 0)
(0 0 0)
(0 0 0)
(0 0 0)
(0 0 0)
(0 0 0)
(0 0 0)
(0 0 0)
(0 0 0)
(0 0 0)
(0 0 0)
(0 0 0)
(0 0 0)
(0 0 0)
(0 0 0)
(0 0 0)
(0 0 0)
(0 0 0)
(0 0 0)
(0 0 0)
(0 0 0)
(0 0 0)
(0 0 0)
(0 0 0)
(0 0 0)
(0 0 0)
(0 0 0)
(0 0 0)
(0 0 0)
(0 0 0)
(0 0 0)
(0 0 0)
(0 0 0)
(0 0 0)
(0 0 0)
(0 0 0)
(0 0 0)
(0 0 0)
(0 0 0)
(0 0 0)
(0 0 0)
(0 0 0)
(0 0 0)
(0 0 0)
(0 0 0)
(0 0 0)
(0 0 0)
(0 0 0)
(0 0 0)
(0 0 0)
(0 0 0)
(0 0 0)
(0 0 0)
(0 0 0)
(0 0 0)
(0 0 0)
(0 0 0)
(0 0 0)
(0 0 0)
(0 0 0)
(0 0 0)
(0 0 0)
(0 0 0)
(0 0 0)
(0 0 0)
(0 0 0)
(0 0 0)
(0 0 0)
(0 0 0)
(0 0 0)
(0 0 0)
(0 0 0)
(0 0 0)
(0 0 0)
(0 0 0)
(0 0 0)
(0 0 0)
(0 0 0)
(0 0 0)
(0 0 0)
(0 0 0)
(0 0 0)
(0 0 0)
(0 0 0)
(0 0 0)
(0 0 0)
(0 0 0)
(0 0 0)
(0 0 0)
(0 0 0)
(0 0 0)
(0 0 0)
(0 0 0)
(0 0 0)
(0 0 0)
(0 0 0)
(0 0 0)
(0 0 0)
(0 0 0)
(0 0 0)
(0 0 0)
(0 0 0)
(0 0 0)
(0 0 0)
(0 0 0)
(0 0 0)
(0 0 0)
(0 0 0)
(0 0 0)
(0 0 0)
(0 0 0)
(0 0 0)
(0 0 0)
(0 0 0)
(0 0 0)
(0 0 0)
(0 0 0)
(0 0 0)
(0 0 0)
(0 0 0)
(0 0 0)
(0 0 0)
(0 0 0)
(0 0 0)
(0 0 0)
(0 0 0)
(0 0 0)
(0 0 0)
(0 0 0)
(0 0 0)
(0 0 0)
(0 0 0)
(0 0 0)
(0 0 0)
(0 0 0)
(0 0 0)
(0 0 0)
(0 0 0)
(0 0 0)
(0 0 0)
(0 0 0)
(0 0 0)
(0 0 0)
(0 0 0)
(0 0 0)
(0 0 0)
(0 0 0)
(0 0 0)
(0 0 0)
(0 0 0)
(0 0 0)
(0 0 0)
(0 0 0)
(0 0 0)
(0 0 0)
(0 0 0)
(0 0 0)
(0 0 0)
(0 0 0)
(0 0 0)
(0 0 0)
(0 0 0)
(0 0 0)
(0 0 0)
(0 0 0)
(0 0 0)
(0 0 0)
(0 0 0)
(0 0 0)
(0 0 0)
(0 0 0)
(0 0 0)
(0 0 0)
(0 0 0)
(0 0 0)
(0 0 0)
(0 0 0)
(0 0 0)
(0 0 0)
(0 0 0)
(0 0 0)
(0 0 0)
(0 0 0)
(0 0 0)
(0 0 0)
(0 0 0)
(0 0 0)
(0 0 0)
(0 0 0)
(0 0 0)
(0 0 0)
(0 0 0)
(0 0 0)
(0 0 0)
(0 0 0)
(0 0 0)
(0 0 0)
(0 0 0)
(0 0 0)
(0 0 0)
(0 0 0)
(0 0 0)
(0 0 0)
(0 0 0)
(0 0 0)
(0 0 0)
(0 0 0)
(0 0 0)
(0 0 0)
(0 0 0)
(0 0 0)
(0 0 0)
(0 0 0)
(0 0 0)
(0 0 0)
(0 0 0)
(0 0 0)
(0 0 0)
(0 0 0)
(0 0 0)
(0 0 0)
(0 0 0)
(0 0 0)
(0 0 0)
(0 0 0)
(0 0 0)
(0 0 0)
(0 0 0)
(0 0 0)
(0 0 0)
(0 0 0)
(0 0 0)
(0 0 0)
(0 0 0)
(0 0 0)
(0 0 0)
(0 0 0)
(0 0 0)
(0 0 0)
(0 0 0)
(0 0 0)
(0 0 0)
(0 0 0)
(0 0 0)
(0 0 0)
(0 0 0)
(0 0 0)
(0 0 0)
(0 0 0)
(0 0 0)
(0 0 0)
(0 0 0)
(0 0 0)
(0 0 0)
(0 0 0)
(0 0 0)
(0 0 0)
(0 0 0)
(0 0 0)
(0 0 0)
(0 0 0)
(0 0 0)
(0 0 0)
(0 0 0)
(0 0 0)
(0 0 0)
(0 0 0)
(0 0 0)
(0 0 0)
(0 0 0)
(0 0 0)
(0 0 0)
(0 0 0)
(0 0 0)
(0 0 0)
(0 0 0)
(0 0 0)
(0 0 0)
(0 0 0)
(0 0 0)
(0 0 0)
(0 0 0)
(0 0 0)
(0 0 0)
(0 0 0)
(0 0 0)
(0 0 0)
(0 0 0)
(0 0 0)
(0 0 0)
(0 0 0)
(0 0 0)
(0 0 0)
(0 0 0)
(0 0 0)
(0 0 0)
(0 0 0)
(0 0 0)
(0 0 0)
(0 0 0)
(0 0 0)
(0 0 0)
(0 0 0)
(0 0 0)
(0 0 0)
(0 0 0)
(0 0 0)
(0 0 0)
(0 0 0)
(0 0 0)
(0 0 0)
(0 0 0)
(0 0 0)
(0 0 0)
(0 0 0)
(0 0 0)
(0 0 0)
(0 0 0)
(0 0 0)
(0 0 0)
(0 0 0)
(0 0 0)
(0 0 0)
(0 0 0)
(0 0 0)
(0 0 0)
(0 0 0)
(0 0 0)
(0 0 0)
(0 0 0)
(0 0 0)
(0 0 0)
(0 0 0)
(0 0 0)
(0 0 0)
(0 0 0)
(0 0 0)
(0 0 0)
(0 0 0)
(0 0 0)
(0 0 0)
(0 0 0)
(0 0 0)
(0 0 0)
(0 0 0)
(0 0 0)
(0 0 0)
(0 0 0)
(0 0 0)
(0 0 0)
(0 0 0)
(0 0 0)
(0 0 0)
(0 0 0)
(0 0 0)
(0 0 0)
(0 0 0)
(0 0 0)
(0 0 0)
(0 0 0)
(0 0 0)
(0 0 0)
(0 0 0)
(0 0 0)
(0 0 0)
(0 0 0)
(0 0 0)
(0 0 0)
(0 0 0)
(0 0 0)
(0 0 0)
(0 0 0)
(0 0 0)
(0 0 0)
(0 0 0)
(0 0 0)
(0 0 0)
(0 0 0)
(0 0 0)
(0 0 0)
(0 0 0)
(0 0 0)
(0 0 0)
(0 0 0)
(0 0 0)
(0 0 0)
(0 0 0)
(0 0 0)
(0 0 0)
(0 0 0)
(0 0 0)
(0 0 0)
(0 0 0)
(0 0 0)
(0 0 0)
(0 0 0)
(0 0 0)
(0 0 0)
(0 0 0)
(0 0 0)
(0 0 0)
(0 0 0)
(0 0 0)
(0 0 0)
(0 0 0)
(0 0 0)
(0 0 0)
(0 0 0)
(0 0 0)
(0 0 0)
(0 0 0)
(0 0 0)
(0 0 0)
(0 0 0)
(0 0 0)
(0 0 0)
(0 0 0)
(0 0 0)
(0 0 0)
(0 0 0)
(0 0 0)
(0 0 0)
(0 0 0)
(0 0 0)
(0 0 0)
(0 0 0)
(0 0 0)
(0 0 0)
(0 0 0)
(0 0 0)
(0 0 0)
(0 0 0)
(0 0 0)
(0 0 0)
(0 0 0)
(0 0 0)
(0 0 0)
(0 0 0)
(0 0 0)
(0 0 0)
(0 0 0)
(0 0 0)
(0 0 0)
(0 0 0)
(0 0 0)
(0 0 0)
(0 0 0)
(0 0 0)
(0 0 0)
(0 0 0)
(0 0 0)
(0 0 0)
(0 0 0)
(0 0 0)
(0 0 0)
(0 0 0)
(0 0 0)
(0 0 0)
(0 0 0)
(0 0 0)
(0 0 0)
(0 0 0)
(0 0 0)
(0 0 0)
(0 0 0)
(0 0 0)
(0 0 0)
(0 0 0)
(0 0 0)
(0 0 0)
(0 0 0)
(0 0 0)
(0 0 0)
(0 0 0)
(0 0 0)
(0 0 0)
(0 0 0)
(0 0 0)
(0 0 0)
(0 0 0)
(0 0 0)
(0 0 0)
(0 0 0)
(0 0 0)
(0 0 0)
(0 0 0)
(0 0 0)
(0 0 0)
(0 0 0)
(0 0 0)
(0 0 0)
(0 0 0)
(0 0 0)
(0 0 0)
(0 0 0)
(0 0 0)
(0 0 0)
(0 0 0)
(0 0 0)
(0 0 0)
(0 0 0)
(0 0 0)
(0 0 0)
(0 0 0)
(0 0 0)
(0 0 0)
(0 0 0)
(0 0 0)
(0 0 0)
(0 0 0)
(0 0 0)
(0 0 0)
(0 0 0)
(0 0 0)
(0 0 0)
(0 0 0)
(0 0 0)
(0 0 0)
(0 0 0)
(0 0 0)
(0 0 0)
(0 0 0)
(0 0 0)
(0 0 0)
(0 0 0)
(0 0 0)
(0 0 0)
(0 0 0)
(0 0 0)
(0 0 0)
(0 0 0)
(0 0 0)
(0 0 0)
(0 0 0)
(0 0 0)
(0 0 0)
(0 0 0)
(0 0 0)
(0 0 0)
(0 0 0)
(0 0 0)
(0 0 0)
(0 0 0)
(0 0 0)
(0 0 0)
(0 0 0)
(0 0 0)
(0 0 0)
(0 0 0)
(0 0 0)
(0 0 0)
(0 0 0)
(0 0 0)
(0 0 0)
(0 0 0)
(0 0 0)
(0 0 0)
(0 0 0)
(0 0 0)
(0 0 0)
(0 0 0)
(0 0 0)
(0 0 0)
(0 0 0)
(0 0 0)
(0 0 0)
(0 0 0)
(0 0 0)
(0 0 0)
(0 0 0)
(0 0 0)
(0 0 0)
(0 0 0)
(0 0 0)
(0 0 0)
(0 0 0)
(0 0 0)
(0 0 0)
(0 0 0)
(0 0 0)
(0 0 0)
(0 0 0)
(0 0 0)
(0 0 0)
(0 0 0)
(0 0 0)
(0 0 0)
(0 0 0)
(0 0 0)
(0 0 0)
(0 0 0)
(0 0 0)
(0 0 0)
(0 0 0)
(0 0 0)
(0 0 0)
(0 0 0)
(0 0 0)
(0 0 0)
(0 0 0)
(0 0 0)
(0 0 0)
(0 0 0)
(0 0 0)
(0 0 0)
(0 0 0)
(0 0 0)
(0 0 0)
(0 0 0)
(0 0 0)
(0 0 0)
(0 0 0)
(0 0 0)
(0 0 0)
(0 0 0)
(0 0 0)
(0 0 0)
(0 0 0)
(0 0 0)
(0 0 0)
(0 0 0)
(0 0 0)
(0 0 0)
(0 0 0)
(0 0 0)
(0 0 0)
(0 0 0)
(0 0 0)
(0 0 0)
(0 0 0)
(0 0 0)
(0 0 0)
(0 0 0)
(0 0 0)
(0 0 0)
(0 0 0)
(0 0 0)
(0 0 0)
(0 0 0)
(0 0 0)
(0 0 0)
(0 0 0)
(0 0 0)
(0 0 0)
(0 0 0)
(0 0 0)
(0 0 0)
(0 0 0)
(0 0 0)
(0 0 0)
(0 0 0)
(0 0 0)
(0 0 0)
(0 0 0)
(0 0 0)
(0 0 0)
(0 0 0)
(0 0 0)
(0 0 0)
(0 0 0)
(0 0 0)
(0 0 0)
(0 0 0)
(0 0 0)
(0 0 0)
(0 0 0)
(0 0 0)
(0 0 0)
(0 0 0)
(0 0 0)
(0 0 0)
(0 0 0)
(0 0 0)
(0 0 0)
(0 0 0)
(0 0 0)
(0 0 0)
(0 0 0)
(0 0 0)
(0 0 0)
(0 0 0)
(0 0 0)
(0 0 0)
(0 0 0)
(0 0 0)
(0 0 0)
(0 0 0)
(0 0 0)
(0 0 0)
(0 0 0)
(0 0 0)
(0 0 0)
(0 0 0)
(0 0 0)
(0 0 0)
(0.004194 -0.00546249 -0.00395024)
(-0.0436008 -0.00503014 0.00520111)
(-0.0346712 -0.0115241 0.00533713)
(-0.0823216 -0.00456154 -0.000361719)
(-0.047802 -0.0142071 0.00402096)
(-0.0841952 0.00623321 -0.0163842)
(-0.0601858 0.0120583 -0.0181272)
(-0.024293 0.0013068 -0.0151524)
(-0.0322055 0.0472916 -0.00543144)
(-0.0146729 0.0466471 -0.0195689)
(-0.00383746 0.016742 -0.0109352)
(-0.0394913 0.0766112 -0.00895044)
(-0.0104089 0.0726835 -0.00783695)
(-0.0540829 0.0201845 0.00247938)
(-0.11165 0.0550664 -0.0103728)
(-0.0497324 0.0736797 0.00766569)
(-0.100243 0.0808133 0.0052851)
(-0.121528 0.0554947 -0.021416)
(-0.0949529 0.0369559 -0.0204906)
(-0.139611 0.0496623 -0.0010372)
(-0.136324 0.0240784 -0.0166428)
(-0.0400425 0.00313326 -0.0131415)
(-0.00829633 -0.00853913 -0.00788728)
(-0.0911376 0.00712618 -0.0192184)
(-0.0362894 -0.00490342 -0.0164825)
(-0.0123626 -2.2959e-05 -0.0139456)
(-0.0522312 0.0572959 0.00116927)
(-0.013792 0.0332163 -0.0374224)
(-0.0498214 0.0536492 -0.00649881)
(-0.0601486 0.0942006 -0.000798091)
(-0.0182904 0.0935758 0.00543334)
(-0.060129 0.0933805 0.00134279)
(-0.0288009 0.0822311 0.0119132)
(-0.0536095 0.0729568 0.012332)
(-0.124033 0.0646318 0.0115966)
(-0.0687074 0.0696194 0.0114393)
(-0.16388 0.0575822 0.00745271)
(-0.180531 0.0359764 -0.0141553)
(-0.158903 0.00940211 -0.0279792)
(-0.236127 0.0230149 -0.032687)
(-0.17412 0.0105836 -0.0378838)
(-0.0999815 0.00789385 -0.0295108)
(-0.0467594 0.0201715 -0.0232756)
(-0.0905761 0.0151591 -0.0347482)
(-0.0320905 0.0270052 -0.0366698)
(-0.0132741 0.0127624 -0.0170267)
(-0.0174981 0.0154133 -0.0241005)
(-0.00593026 0.0179 -0.0320978)
(-0.00238772 0.0456899 -0.0348632)
(-0.00732867 0.0638623 -0.0187618)
(0.000588472 0.0415827 -0.00555672)
(-0.0486031 0.0764986 0.0033893)
(-0.0537537 0.106014 0.0133871)
(-0.0344622 0.0528036 0.00719008)
(-0.0707857 0.125858 0.0169222)
(-0.113583 0.0979526 0.0144871)
(-0.220195 0.110702 -0.00440088)
(-0.127082 0.130283 0.0215741)
(-0.215184 0.146799 0.00568906)
(-0.248252 0.100567 -0.0491822)
(-0.176089 0.0904276 -0.0551826)
(-0.258907 0.173709 -0.0338134)
(-0.183076 0.160236 -0.0397091)
(-0.0986146 0.0884891 -0.0493861)
(-0.0340844 0.0813422 -0.0448343)
(-0.0977932 0.14944 -0.0402427)
(-0.0372179 0.140137 -0.038029)
(-0.0215148 0.0783621 -0.0210602)
(-0.00926451 0.0498374 -0.0203207)
(-0.0236959 0.0984628 -0.00763168)
(0.000317295 0.00842494 -0.00221528)
(-0.00527351 0.0122341 0.00616193)
(-0.0712593 0.108237 0.0189294)
(0.00925241 -0.0133965 -0.00978186)
(0.00643201 -0.0173465 0.00045013)
(-0.101519 0.103032 0.0174413)
(-0.155112 0.0949 0.0220016)
(-0.0513838 0.0637353 0.00567806)
(-0.0914206 0.0528984 0.0126647)
(-0.21131 0.151888 0.00534457)
(-0.192492 0.198801 -0.0265505)
(-0.124582 0.0739347 0.0246911)
(-0.155096 0.100496 0.0153561)
(-0.107531 0.177385 -0.0301745)
(-0.0539986 0.127936 -0.0160632)
(-0.104327 0.0868673 0.00172868)
(-0.0548404 0.0667844 -0.00339224)
(-0.033391 0.0827202 -0.00452133)
(0.00931905 -0.0255843 -0.0252033)
(-0.0240791 -0.0253667 -0.00609197)
(-0.0645846 0.0186453 0.00489925)
(-0.0376455 0.00694893 0.00652443)
(-0.0786387 0.0247889 0.0114678)
(-0.0735827 0.0127623 0.0114166)
(-0.0389069 0.0113703 0.00642687)
(-0.0571077 0.0235844 0.00218299)
(-0.0228487 0.0249918 -0.0652284)
(-0.10355 0.0710099 -0.114015)
(-0.126874 -0.0303441 0.0180346)
(-0.128545 -0.00547846 -0.0142184)
(-0.130865 0.00262594 -0.0291944)
(-0.0770901 0.039533 -0.0861539)
(-0.0916125 0.0922899 -0.143715)
(-0.0531444 0.0827699 -0.145668)
(-0.113643 0.00159115 -0.0738015)
(-0.0948185 -0.000105326 -0.0764649)
(-0.0680211 0.0192412 -0.126238)
(-0.0522989 0.0532242 -0.139484)
(-0.0626159 0.00215249 -0.136636)
(-0.0535196 -0.00975476 -0.0900545)
(-0.048606 -0.0122529 -0.153656)
(-0.0376761 0.0999571 -0.0232849)
(-0.000277423 0.0481215 -0.00825489)
(-0.0397539 0.0646107 -0.0578878)
(-0.0417431 0.118254 -0.0162545)
(-0.0503788 0.144102 -0.011942)
(-0.0407173 0.0543228 -0.0501062)
(-0.0890158 0.100764 -0.0847167)
(-0.0245219 0.0832729 -0.0069071)
(-0.0832208 0.172416 -0.0318154)
(-0.0285311 -0.0186562 -0.0767679)
(-0.107344 0.0231173 -0.0975752)
(-0.0576726 0.00737661 -0.0990205)
(-0.0787456 0.015638 -0.153986)
(-0.0395596 0.0401588 -0.130634)
(-0.0761669 0.114 -0.139206)
(-0.0142462 0.117018 -0.158925)
(-0.0206634 0.00142555 -0.113135)
(0.020639 0.0594491 -0.146574)
(-0.00554699 0.100916 -0.0271621)
(0.0274899 0.0594696 -0.0838661)
(0.0463245 0.0877455 -0.0547613)
(0.00073013 0.0843333 0.0430218)
(0.0126437 0.0674634 -0.0424796)
(0.0303287 0.104351 0.0540503)
(0.0188563 0.084686 -0.117762)
(0.0154672 0.0851617 -0.0795356)
(-0.0182457 0.0685543 -0.110902)
(-0.0127609 0.106999 -0.115147)
(0.0131062 0.0746149 -0.0572251)
(0.079481 0.104785 -0.0791856)
(0.0950532 0.109071 -0.0718837)
(0.025608 0.0712158 -0.0850518)
(0.0630934 0.0878805 -0.017622)
(0.0485698 0.0492209 -0.0256503)
(0.00140051 0.120189 -0.0409174)
(-0.00692231 0.172685 -0.0489512)
(-0.0220176 0.127572 -0.0747273)
(-0.00730096 0.0948886 -0.0176332)
(-0.0415088 0.152339 0.0117467)
(0.0550581 0.0590831 -0.0942794)
(0.0298639 0.0201005 -0.0794059)
(-0.0385716 0.0946555 0.0315094)
(-0.00041445 -0.0153566 -0.0862968)
(-0.00816845 -0.0396979 -0.082735)
(0.0440393 0.0091029 -0.0568516)
(0.0587477 -0.0226167 -0.00750822)
(-0.00373764 -0.00973049 -0.0934568)
(-0.0212287 -0.0229424 -0.0760391)
(-0.0806224 0.216955 -0.0827918)
(-0.169368 0.191036 -0.00999428)
(-0.137959 0.161467 -0.0172584)
(-0.119401 0.16957 -0.0869897)
(-0.0979454 0.200609 -0.0511107)
(-0.166786 0.212577 -0.0424963)
(-0.149988 0.218139 -0.0158749)
(-0.0732777 0.161186 0.075252)
(-0.0278658 -0.0261975 -0.114466)
(-0.0427597 -0.0195712 -0.104328)
(-0.0384027 0.0027527 -0.0334086)
(-0.029119 -0.00603652 -0.0605124)
(-0.0538701 -0.0237792 -0.0696524)
(-0.0551111 -0.000285048 -0.0398967)
(-0.0355682 -0.00478413 -0.0539417)
(-0.15331 0.0407831 0.0495833)
(-0.0751994 0.0193584 -0.0109665)
(-0.0809272 -0.0149803 0.0110958)
(-0.151199 0.0407948 0.037412)
(-0.0658383 0.00371919 -0.0155956)
(-0.179448 0.114098 0.0132276)
(-0.0901725 0.0654247 -0.0241584)
(-0.0729892 0.0424423 -0.0173574)
(-0.0482747 0.0445242 0.0333755)
(-0.112206 0.0947429 0.042721)
(-0.0605055 0.0983245 0.0262376)
(-0.0224812 0.0292644 -0.0180556)
(-0.107388 0.0800918 0.0046116)
(-0.0661064 0.12426 -0.00665222)
(-0.0291533 0.0719306 -0.0900343)
(-0.0363367 0.0169123 -0.114961)
(0.00551862 0.0295806 -0.112176)
(-0.0345015 0.0924723 -0.119841)
(-0.0305945 0.0442802 -0.155433)
(-0.0273226 -0.00149099 -0.136246)
(-0.0161126 0.018547 -0.182181)
(5.69939e-05 0.0213106 0.0192461)
(-0.00317516 -0.00131162 0.00994902)
(-0.100051 0.109977 -0.0208852)
(-0.0308456 0.0712277 0.0288928)
(-0.126814 0.195077 0.00606857)
(-0.0168233 0.0115685 -0.00423709)
(-0.084649 0.0668726 0.00194519)
(-0.0438115 0.0297337 0.0400927)
(-0.141815 0.130217 0.056477)
(-0.0165826 0.0452689 -0.137144)
(-0.0654314 0.146458 -0.115352)
(-0.00617453 0.12575 -0.158721)
(-0.0560012 0.0762592 -0.189609)
(-0.00713636 0.0597567 -0.209668)
(-0.0764605 0.141288 -0.138118)
(-0.0232364 0.117863 -0.216045)
(0.0259574 0.075183 -0.143733)
(0.017343 0.082048 -0.19088)
(0.0170297 0.0598981 0.0877632)
(0.00201779 0.0670362 0.011679)
(0.0279174 0.103844 0.105671)
(-0.00511928 0.0182483 0.0709724)
(0.0042083 0.0301336 0.00262111)
(-0.00521594 0.0765101 0.128063)
(-0.0324882 0.128973 -0.139734)
(0.00849261 0.0852096 -0.0720105)
(-0.0156351 0.116766 -0.186937)
(-0.0409079 0.130537 -0.189489)
(-0.0035612 0.0939843 -0.125655)
(0.0308019 0.0611364 0.0376929)
(0.0238939 -0.0121581 0.0306736)
(0.000509196 0.00692063 -0.0224293)
(-0.00390985 0.0179614 0.0968458)
(0.00397222 -0.0604021 0.0563269)
(-0.0211958 0.097572 -0.01791)
(-0.0998533 0.163918 0.0268499)
(-0.070834 0.161551 -0.114212)
(-0.0356466 0.126848 -0.0731083)
(-0.0725427 0.160104 0.00539873)
(0.00953135 -0.0200168 -0.0150505)
(-0.00757579 -0.042314 0.00948066)
(0.0309557 -0.0323015 0.0472763)
(-0.00703421 -0.010167 -0.0349864)
(-0.0276696 -0.00833129 -0.0103805)
(-0.0124348 -0.0217789 0.0566073)
(-0.0487272 -0.0257709 0.114702)
(-0.0142367 -0.0112538 -0.00244442)
(-0.0444282 -0.0049619 0.0353573)
(-0.107031 0.141169 0.029519)
(-0.152204 0.149186 0.0742335)
(-0.144092 0.14957 0.0827846)
(-0.00246235 0.0363299 0.0883139)
(-0.070451 0.0986523 0.0816662)
(-0.100963 0.0808728 0.139906)
(-0.102108 0.088845 0.116207)
(-0.0681855 0.116741 0.093539)
(-0.0325109 -0.0148377 -0.0399925)
(-0.0288899 -0.00922136 -0.00105704)
(-0.0661598 0.0221511 0.0186617)
(-0.0341553 0.00202732 0.0126888)
(-0.0474912 -0.000490606 0.0389448)
(-0.0696903 0.016719 0.0654593)
(-0.048782 0.00208292 0.0434292)
(-0.139241 0.0748939 0.0478908)
(-0.0604724 0.00976774 0.002164)
(-0.0951695 0.0326261 0.0781345)
(-0.109438 0.0685744 0.104603)
(-0.0716873 0.0121849 0.042817)
(-0.119218 0.0908502 0.119556)
(-0.0292375 0.0223797 -0.0394937)
(0.0506147 -0.05096 -0.271927)
(0.0280767 0.0334472 -0.118777)
(-0.0176583 0.0473002 -0.0352128)
(-0.0176907 0.107943 -0.0533653)
(0.139442 -0.0130608 -0.591361)
(0.041354 -0.0647609 -0.302077)
(0.0973483 -0.0283748 -0.420629)
(-0.0256873 0.0857832 -0.165157)
(-0.0106604 0.0706428 -0.220092)
(0.119428 0.0173196 -0.611314)
(0.113554 0.0077732 -0.5674)
(0.081847 0.0552618 -0.622755)
(0.00619457 0.0472456 -0.27301)
(0.0489495 0.0424531 -0.512276)
(0.0140111 -0.0429905 -0.0140745)
(0.00766479 -0.0423443 -0.0964979)
(-0.0559225 0.0377153 0.00440332)
(-0.0732666 0.00199407 0.0473083)
(-0.142307 0.0891768 0.0572121)
(0.0135627 -0.0522972 -0.144227)
(-0.00334073 -0.0513575 -0.155825)
(-0.0823086 0.00538489 -0.00447289)
(-0.131748 0.0446164 0.0175867)
(0.0149977 0.0695688 -0.311552)
(-0.0719918 0.136771 -0.168684)
(-0.0201491 0.110921 -0.286979)
(0.0539099 0.0579155 -0.495526)
(0.0408631 0.0693134 -0.404899)
(0.135365 -0.0916084 -0.573663)
(0.0485649 0.0842463 -0.398063)
(0.0185345 0.0972384 -0.273879)
(0.0514138 0.134229 -0.354889)
(-0.0356015 -0.0147519 0.0766619)
(0.00225163 0.00436637 -0.054561)
(-0.0642836 0.0438804 0.162498)
(-0.0797637 -0.00310073 0.0700475)
(0.00411182 0.00779176 -0.0707422)
(-0.111049 0.0458546 0.188662)
(-0.0395158 0.106394 -0.229119)
(-0.0158525 0.0732554 -0.206309)
(0.000565633 0.142522 -0.296832)
(-0.0178156 -0.0627079 -0.460101)
(-0.0352246 -0.0392579 -0.350193)
(-0.0396686 -0.00328834 0.138876)
(-0.0101373 -0.0542819 0.0589763)
(-0.00626632 0.00622979 -0.0278962)
(-0.0569775 0.0225392 0.166435)