/*--------------------------------*- C++ -*----------------------------------*\
| =========                 |                                                 |
| \\      /  F ield         | OpenFOAM: The Open Source CFD Toolbox           |
|  \\    /   O peration     | Version:  5.x                                   |
|   \\  /    A nd           | Web:      www.OpenFOAM.org                      |
|    \\/     M anipulation  |                                                 |
\*---------------------------------------------------------------------------*/
FoamFile
{
    version     2.0;
    format      ascii;
    class       volVectorField;
    location    "1.7";
    object      U;
}
// * * * * * * * * * * * * * * * * * * * * * * * * * * * * * * * * * * * * * //

dimensions      [0 1 -1 0 0 0 0];

internalField   nonuniform List<vector> 
10571
(
(0.117795 0.484346 2.07674)
(0.697582 -1.68426 2.15172)
(0.50351 -1.55049 3.5764)
(-0.807101 -2.24972 3.97061)
(-0.651259 -1.11514 1.63112)
(0.969007 -1.84051 2.29122)
(0.548402 -1.19736 2.03972)
(-0.969535 -1.60396 3.12627)
(-1.93968 -2.55474 3.497)
(-0.834736 -1.0487 1.67081)
(-0.0414628 -1.29239 2.08922)
(0.317037 -0.934243 1.55909)
(1.19062 -1.67061 2.81996)
(0.769124 -1.57232 1.5231)
(-0.805901 -2.04344 1.35112)
(0.900408 -2.22794 2.35518)
(-0.225317 -0.44041 1.06963)
(-0.220146 -1.56976 2.04582)
(0.39012 -0.744638 1.30186)
(0.617232 -0.801234 1.12521)
(0.193486 -0.233854 0.820273)
(-0.444022 -0.360992 1.30645)
(0.120082 -0.0425427 1.25057)
(0.247823 -0.226246 1.16903)
(1.4709 -0.101398 1.73539)
(1.39945 -1.67107 2.30063)
(1.47968 -1.14849 2.03445)
(0.822594 -0.470679 2.83577)
(-0.403992 0.0139221 2.71297)
(0.986329 -0.594832 1.34402)
(1.7464 -2.43189 4.81352)
(-0.294245 -1.8026 6.17436)
(-0.759446 -0.510276 1.86131)
(-0.331218 -0.515508 0.896425)
(0.0270793 -0.172771 0.912354)
(0.906597 -0.646651 1.32945)
(0.508816 -1.33351 2.82439)
(0.0883975 -0.496499 1.20905)
(-0.0532732 -0.00897458 0.661411)
(-0.320091 0.262227 0.990589)
(0.131676 -0.330179 0.998545)
(0.39536 -0.36374 1.03452)
(0.394597 -0.248472 1.11985)
(0.0585394 -0.156872 1.32495)
(-0.0648912 0.226861 1.21158)
(0.242573 -0.31846 1.11014)
(0.537598 -0.418416 1.43428)
(0.210862 -0.12916 1.49876)
(2.23653 -0.331915 3.43079)
(0.0618044 -0.025641 0.377551)
(-0.0340625 -0.0906629 0.756682)
(1.62877 -0.338636 4.16797)
(1.40976 1.90124 3.34117)
(0.032597 -0.226332 0.153464)
(0.505759 -0.685834 1.88854)
(0.503018 -0.468758 4.06717)
(0.051575 0.701569 2.60042)
(-0.0914338 -0.0740706 0.477957)
(0.00645785 -0.110296 0.378617)
(0.289699 -0.228603 0.251559)
(0.460049 -0.245161 1.0723)
(0.343065 0.138182 0.372143)
(0.163853 0.141007 0.548414)
(-0.14705 0.303257 0.843557)
(0.170542 -0.17555 0.676154)
(0.330848 -0.0520459 0.569452)
(0.510639 0.0571811 1.00015)
(0.648216 -0.0533727 2.12307)
(-0.165341 0.332111 0.91554)
(0.260795 -0.142742 0.847734)
(0.700667 -0.276669 1.11668)
(-0.139041 -0.0833865 1.10502)
(0.104728 0.335123 3.47786)
(0.210737 -0.108606 1.54763)
(-0.158586 0.147764 2.55802)
(-0.567676 0.340329 2.17072)
(1.03794 1.37001 3.48649)
(0.180005 -0.442067 0.716323)
(-0.0688665 -0.292148 2.77813)
(0.0400643 0.392141 3.3873)
(0.481723 0.979025 1.98556)
(0.0367529 0.534712 0.601751)
(0.0145964 -0.0529931 -0.0871064)
(0.0503758 -0.0523205 0.33183)
(0.25023 0.021045 0.766921)
(0.187016 0.213725 0.480391)
(0.135782 0.401457 1.22498)
(-0.101601 0.448627 1.04163)
(0.124483 -0.151321 0.332182)
(0.252964 -0.00437455 0.266668)
(0.233759 -0.0106112 0.822268)
(0.373935 -0.235348 1.06395)
(0.902661 -0.403319 1.61657)
(0.271189 -0.0727776 0.443029)
(0.768135 -0.059363 0.771735)
(-0.278564 -0.0127228 0.413407)
(0.334229 0.0227138 1.94634)
(0.151126 0.0165834 1.1689)
(-0.0548685 -0.0960705 2.16556)
(-0.38606 0.0823095 2.88214)
(-0.247166 -0.318537 2.57537)
(0.0562055 -0.0697669 0.440012)
(0.39849 0.0419963 2.72896)
(0.0515403 0.265424 4.18168)
(0.167691 0.957812 3.04576)
(0.165813 0.461609 0.666939)
(-0.0361426 0.107416 -0.0501503)
(0.225065 0.0482615 0.189539)
(0.519463 -0.309464 1.55373)
(-0.332723 -0.325688 0.986099)
(-0.272161 0.176755 1.24012)
(-0.150197 0.214235 1.07261)
(0.3699 -0.0559362 0.560517)
(0.22333 -0.0854577 0.441469)
(0.00261247 -0.302956 0.708547)
(-0.220696 -0.15587 0.920759)
(0.481201 -0.562373 2.11395)
(0.152838 0.0212935 0.0670027)
(0.201536 0.0948616 0.65861)
(0.0144915 -0.0339379 0.266083)
(0.409123 -0.110828 1.067)
(-0.0607109 0.0965941 1.01966)
(-0.123875 -0.129363 2.58831)
(0.00254739 0.013714 2.71518)
(-0.0900016 -0.0415931 1.52747)
(0.105208 0.250216 0.190371)
(0.541415 0.096417 2.13896)
(0.0775335 0.255746 3.69688)
(0.122491 0.830608 2.79878)
(-0.0474004 -0.266577 0.771962)
(-0.000841577 0.00064515 -0.000411163)
(0.0220217 0.133322 -0.215571)
(0.0848059 0.0248088 -0.166633)
(0.28134 -0.273395 0.91987)
(-0.160742 -0.14397 0.81799)
(-0.151029 0.207818 1.16553)
(-0.146949 0.105795 1.35483)
(0.00080679 -0.00101449 0.000137558)
(0.074049 0.0652856 -0.107665)
(0.256615 0.171481 0.0354345)
(0.0558244 -0.111415 0.448194)
(-0.0973443 0.14178 0.45512)
(0.352472 -0.364681 2.38363)
(0.13859 0.0154516 -0.0233449)
(-0.0439129 0.0156069 0.845462)
(-0.195305 0.137368 -0.415327)
(0.350564 -0.0634075 1.63592)
(-0.0356541 0.020492 0.800003)
(-0.0548973 -0.188741 2.61127)
(0.0740279 -0.0661496 2.89942)
(0.0344837 -0.242037 1.67187)
(0.0472359 0.265403 0.00765069)
(0.533706 0.17778 2.07979)
(0.0757682 0.199773 3.41897)
(0.187926 0.479825 2.2525)
(0.0802089 -0.168059 0.65389)
(-0.127847 -0.0300221 0.0740794)
(0.0302902 0.241092 -0.233877)
(0.0770961 0.245923 -0.135497)
(0.218909 -0.169933 1.08096)
(-0.0538222 0.119653 1.1504)
(-0.157221 0.278501 1.32521)
(-0.0365129 -0.0163189 1.27826)
(-0.324351 0.0400724 0.0860907)
(0.0565369 0.166276 -0.243896)
(0.355054 0.079358 0.264469)
(0.0396513 -0.161011 0.617873)
(-0.24017 0.381609 0.417185)
(0.463909 -0.337935 2.16757)
(-0.588822 0.0577589 0.220005)
(0.134983 -0.10983 -0.0526792)
(-0.0529152 -0.0424365 1.24089)
(-0.128251 0.247493 -0.010962)
(0.341031 -0.0315016 1.95057)
(-0.0225651 0.110507 0.546848)
(0.0952916 -0.264779 2.49614)
(0.187072 -0.128585 2.97699)
(0.0908927 -0.131375 1.97817)
(-0.00722313 0.237801 -0.0272108)
(0.545351 0.131702 1.94023)
(0.123977 0.194189 3.41239)
(0.166243 0.45906 2.41296)
(0.117908 -0.0277269 0.919112)
(-0.14851 -0.0144688 -0.161572)
(0.0245671 0.281537 -0.252054)
(0.0531735 0.343553 -0.147939)
(0.135195 0.0807421 1.15984)
(0.00193984 0.319517 1.4949)
(-0.169512 0.300152 1.40621)
(-0.0834691 -0.0173388 1.23873)
(-0.231025 0.281128 0.186989)
(0.137283 0.283337 -0.237608)
(0.290596 0.0293896 0.27478)
(0.111986 -0.208254 0.8377)
(-0.0912431 0.317301 0.411742)
(0.296546 -0.29054 1.9437)
(0.00355445 0.0810708 0.312632)
(0.253523 0.0366036 -0.0766111)
(0.126521 -0.0929514 1.33263)
(-0.00903735 0.180872 0.276107)
(0.291635 0.00322126 2.17455)
(-0.10462 0.180088 0.293587)
(0.111524 -0.275191 2.25488)
(0.206846 -0.113678 3.02471)
(0.184873 -0.0388801 2.27136)
(-0.0315354 0.214886 -0.10686)
(0.474271 0.13613 1.80784)
(0.1305 0.198896 3.36027)
(0.131896 0.456647 2.40795)
(-0.102026 -0.124965 0.86204)
(-0.213454 -0.0700326 -0.358307)
(0.0144814 0.238979 -0.236576)
(-0.0150376 0.306862 -0.19073)
(0.0324128 0.225276 1.14621)
(-0.0138027 0.388239 1.66636)
(-0.173578 0.353761 1.44187)
(-0.092162 0.0182901 1.37221)
(0.145075 -0.175634 0.2871)
(0.088786 0.281453 -0.199816)
(0.148617 0.118865 0.378233)
(0.121882 -0.125091 0.970517)
(0.116672 0.292616 0.662639)
(0.107954 -0.304398 1.7905)
(0.246352 0.128566 -0.105678)
(0.337205 -0.150869 1.38309)
(0.0740703 0.116574 0.531344)
(0.222547 0.0131859 2.30164)
(-0.137417 0.19218 0.22485)
(-0.210125 -0.00221426 1.57374)
(0.18045 -0.105383 2.99855)
(0.276837 -0.0116222 2.59757)
(-0.0684389 0.179283 -0.188878)
(0.32736 0.207126 1.70021)
(0.0825591 0.186718 3.25505)
(0.111779 0.409828 2.31288)
(-0.27212 -0.265812 0.678476)
(0.00674892 0.204271 -0.176937)
(-0.0396371 0.293107 -0.199843)
(-0.0337953 0.3535 1.11816)
(-0.0485183 0.378057 1.73507)
(-0.164423 0.336697 1.45191)
(-0.0965565 -0.137586 1.55125)
(0.0558449 0.240893 -0.137351)
(0.0157494 0.306842 0.510124)
(0.134243 -0.028008 1.07637)
(0.164641 0.315873 0.884782)
(0.0650576 -0.288099 1.63518)
(0.263094 0.178179 -0.0422307)
(0.403349 -0.176101 1.35336)
(0.159147 0.112173 0.975261)
(0.162062 0.0182472 2.39956)
(-0.180112 0.159905 0.0951972)
(-0.145218 -0.0456183 1.21935)
(0.243517 -0.0879121 2.87283)
(0.349053 0.0304996 2.85899)
(-0.105967 0.196242 -0.207396)
(0.141069 0.058421 1.45451)
(0.0823717 0.253937 3.16222)
(0.0819878 0.368187 2.29244)
(-0.234525 -0.239848 0.590668)
(0.00982848 0.17722 -0.10796)
(-0.0462546 0.293981 -0.162308)
(-0.0508682 0.463134 0.964361)
(-0.0232464 0.330422 1.84403)
(-0.163809 0.322472 1.45648)
(0.141337 -0.257809 1.57462)
(0.0358127 0.214453 -0.0462023)
(-0.0295878 0.391729 0.614249)
(0.199087 0.0601217 1.19472)
(0.131308 0.302772 0.978814)
(-0.0660862 -0.294478 1.01221)
(0.259972 0.19958 0.102798)
(0.398633 -0.163025 1.36129)
(0.207196 0.0119347 1.44966)
(0.175624 0.00290999 2.51389)
(-0.181783 0.167669 -0.0639447)
(0.0388675 -0.0710628 1.2445)
(0.264495 -0.128655 2.66112)
(0.359507 0.0473913 3.07143)
(-0.12008 0.213086 -0.204668)
(-0.0943113 -0.0390927 1.05771)
(0.188644 0.276359 3.09909)
(0.0503227 0.363021 2.33163)
(-0.133107 -0.250144 0.667343)
(0.00530339 0.133697 -0.0503614)
(-0.0625317 0.282355 -0.124559)
(-0.0769719 0.457913 0.835607)
(0.0217303 0.261119 1.95766)
(-0.1778 0.311813 1.49455)
(0.140181 -0.284687 1.57248)
(0.0234785 0.201395 0.0406415)
(-0.0485629 0.363619 0.698305)
(0.250389 0.123759 1.29348)
(0.167359 0.204027 1.11956)
(0.162527 -0.289125 0.460041)
(0.240555 0.188368 0.280777)
(0.359174 -0.12265 1.39368)
(0.240136 -0.089623 1.85958)
(0.148203 0.00128203 2.64639)
(-0.152275 0.177513 -0.215013)
(0.103756 -0.107649 1.38049)
(0.204592 -0.105241 2.52306)
(0.338552 0.0297864 3.21632)
(-0.129618 0.231978 -0.215544)
(-0.25272 0.159979 0.768762)
(0.185508 0.239669 2.99598)
(0.0595063 0.342864 2.36961)
(-0.0818337 -0.272919 0.898107)
(0.000956677 0.126157 0.0210467)
(-0.0809811 0.267433 -0.0940595)
(-0.162193 0.428167 0.733097)
(0.071198 0.262966 2.01519)
(-0.175806 0.3387 1.5686)
(0.117828 -0.279272 1.57751)
(0.0177996 0.176925 0.133435)
(-0.0670283 0.32066 0.772135)
(0.254688 0.182582 1.35315)
(0.206641 0.136598 1.20705)
(0.28475 -0.262582 0.587042)
(0.217994 0.166799 0.443805)
(0.306985 -0.0545733 1.43793)
(0.234984 -0.160385 2.06956)
(-0.103656 0.0476774 2.52203)
(-0.209591 0.242402 -0.302133)
(-0.0197182 -0.0136551 1.41546)
(-0.0141512 -0.0547875 2.53765)
(0.275401 0.0474561 3.32758)
(-0.143245 0.277535 -0.195881)
(-0.386845 0.474122 0.537685)
(0.168109 0.179096 2.6893)
(0.100509 0.3438 2.35826)
(-0.0704522 -0.307873 1.11229)
(-0.00218054 0.123608 0.0965093)
(-0.0961613 0.26265 -0.0344247)
(-0.2616 0.495929 0.694723)
(0.112172 0.322492 2.01378)
(-0.137042 0.423111 1.63553)
(0.0864791 -0.254428 1.55782)
(0.000528798 0.165046 0.237339)
(-0.0904691 0.309389 0.863213)
(0.21433 0.251438 1.4356)
(0.177158 0.153857 1.29528)
(0.287157 -0.278423 0.788642)
(0.205213 0.166581 0.598294)
(0.275527 0.0385135 1.52178)
(0.197079 -0.172767 2.16645)
(-0.381653 -0.00370886 1.93891)
(-0.301974 0.298974 -0.242181)
(-0.38374 0.351016 1.27136)
(-0.192782 0.276183 2.43902)
(0.284709 0.0741644 3.34117)
(-0.145104 0.323605 -0.119695)
(-0.439995 0.719863 0.427299)
(0.244294 0.0761626 2.27898)
(0.224414 0.373224 2.35557)
(-0.0924901 -0.303741 1.29708)
(-0.00697 0.138961 0.177921)
(-0.0903007 0.268404 0.0931468)
(-0.322838 0.58764 0.720055)
(0.171331 0.377973 1.95185)
(-0.113056 0.486171 1.7052)
(0.0928036 -0.155942 1.55221)
(-0.0132363 0.138678 0.340104)
(-0.134012 0.345303 0.979013)
(0.157714 0.324073 1.49931)
(0.107546 0.224684 1.41192)
(0.254873 -0.264984 0.935015)
(0.180893 0.180164 0.778317)
(0.217539 0.123946 1.66654)
(0.153438 -0.150069 2.27642)
(-0.102311 -0.0609535 1.52704)
(-0.289644 0.285919 -0.0716402)
(-0.508819 0.534241 0.777408)
(-0.118616 0.323746 2.1811)
(0.283666 0.131152 3.31076)
(-0.126019 0.334517 -0.0314857)
(-0.392505 0.787797 0.398317)
(0.299886 0.319523 1.89073)
(0.340461 0.432788 2.40795)
(-0.0741831 -0.170082 1.48226)
(-0.00605151 0.141019 0.229521)
(-0.0649474 0.24192 0.258139)
(-0.331385 0.61565 0.784314)
(0.176708 0.48399 1.81782)
(-0.0977096 0.478639 1.80052)
(-0.000707377 -0.127151 1.58938)
(-0.015336 0.123339 0.446095)
(-0.174797 0.391427 1.11634)
(0.100686 0.428839 1.58749)
(0.0575987 0.280203 1.53818)
(0.2125 -0.212428 1.08558)
(0.122571 0.179447 0.99744)
(0.177664 0.147174 1.83684)
(0.12822 -0.119679 2.40367)
(0.181363 -0.0716639 1.63002)
(-0.16164 0.196617 -0.00552693)
(-0.356118 0.448915 0.472974)
(0.0200388 0.471478 1.52806)
(0.358008 0.195225 3.26715)
(-0.0697776 0.293046 0.0101748)
(-0.264049 0.683981 0.400002)
(0.244521 0.689026 1.60911)
(0.415069 0.497299 2.50083)
(-0.0728257 -0.0947934 1.58203)
(-0.00323131 0.130187 0.281159)
(-0.00126169 0.155186 0.426801)
(-0.281956 0.568838 0.877394)
(0.07345 0.576033 1.79055)
(-0.0852625 0.439988 1.91998)
(-0.0193624 -0.0994662 1.71119)
(-0.0057326 0.114052 0.514146)
(-0.206246 0.386193 1.27445)
(0.0228237 0.506754 1.70069)
(0.046334 0.301875 1.65474)
(0.166427 -0.200117 1.21793)
(0.0596566 0.192871 1.25059)
(0.133878 0.165378 2.01871)
(0.139863 -0.119647 2.56217)
(0.182143 -0.0247818 1.69725)
(-0.102996 0.128931 -0.120034)
(-0.072333 0.286783 0.37644)
(0.035895 0.548528 0.862939)
(0.516578 0.28547 3.16945)
(-0.00210923 0.193474 5.43499e-05)
(-0.116622 0.499013 0.382095)
(0.113655 0.699001 1.44821)
(0.436703 0.493682 2.64025)
(-0.0802185 -0.0301184 1.70481)
(0.00843322 0.0726694 0.235176)
(0.0622442 0.0634882 0.544947)
(-0.215007 0.494017 1.01934)
(-0.0826773 0.574655 1.84223)
(-0.0987256 0.43587 2.01821)
(-0.0534644 -0.0575051 1.78295)
(0.014671 0.111391 0.514287)
(-0.25436 0.329488 1.43666)
(-0.0672825 0.518463 1.81192)
(0.0369045 0.323517 1.74631)
(0.119078 -0.199907 1.30174)
(0.00945636 0.218007 1.50113)
(0.0749607 0.171192 2.20516)
(0.167696 -0.124774 2.75015)
(0.0657629 0.137928 0.668233)
(-0.0279878 0.0492996 -0.188627)
(0.0329673 0.148123 0.273234)
(0.232557 0.246555 0.678458)
(0.548888 0.486215 2.98976)
(0.0626869 0.0490408 -0.0251847)
(0.0199539 0.281375 0.389703)
(-0.0414313 0.49677 1.18483)
(0.377912 0.497517 2.73491)
(-0.045617 0.00704944 1.93509)
(-0.00658078 -0.0424297 0.133066)
(0.0659288 -0.0344552 0.600446)
(-0.206217 0.432371 1.18524)
(-0.240904 0.550029 1.86296)
(-0.120265 0.45898 2.08215)
(-0.0968613 -0.030366 1.77529)
(0.00907298 0.0678773 0.476096)
(-0.30747 0.23335 1.56629)
(-0.161518 0.457154 1.87561)
(0.0309203 0.350957 1.81546)
(0.105567 -0.186361 1.34739)
(-0.0496049 0.245627 1.71426)
(0.0245375 0.182804 2.38365)
(0.193543 -0.132134 2.95937)
(0.200656 0.0655191 0.102722)
(0.015145 -0.00438852 -0.228791)
(0.07065 0.0528297 0.181773)
(0.292795 -0.00695413 0.633748)
(0.477529 0.415731 2.72993)
(0.098271 -0.095788 -0.0656916)
(0.167991 0.0519991 0.439676)
(-0.0564804 0.343893 0.919382)
(0.318925 0.517942 2.7266)
(0.0480264 0.08456 2.22197)
(-0.0254265 -0.127879 0.0599723)
(0.0410026 -0.118597 0.585231)
(-0.221032 0.353341 1.33476)
(-0.342422 0.524318 1.86293)
(-0.122735 0.447387 2.1117)
(-0.10568 -0.0493111 1.7499)
(-0.0395891 -0.0177954 0.513842)
(-0.33584 0.111693 1.65036)
(-0.253031 0.306184 1.87019)
(0.0305659 0.297116 1.85635)
(0.116277 -0.192189 1.34808)
(-0.0900604 0.241528 1.89368)
(0.0140913 0.198062 2.52249)
(0.272557 -0.160315 3.22085)
(0.120397 0.0286274 -0.0581743)
(0.0207173 -0.025733 -0.242494)
(0.0861449 0.0239008 0.094431)
(0.294073 -0.0818407 0.588814)
(0.321258 0.126323 2.62595)
(0.106678 -0.172481 -0.106532)
(0.326647 -0.12914 0.46515)
(0.0506512 0.178374 0.753342)
(0.260993 0.463507 2.66345)
(0.143259 0.237182 2.534)
(-0.0394901 -0.167285 0.0475126)
(0.025037 -0.167133 0.53003)
(-0.246197 0.276863 1.42947)
(-0.371946 0.491847 1.87894)
(-0.113592 0.381054 2.15434)
(-0.0992288 -0.0510904 1.75998)
(-0.10052 -0.128278 0.599183)
(-0.345642 -0.0091096 1.68118)
(-0.340178 0.087387 1.79602)
(-0.0155076 -0.0240501 1.8683)
(0.142927 -0.226542 1.34753)
(-0.0477654 0.227744 2.0384)
(-0.0569919 0.193965 2.60495)
(0.317046 -0.217976 3.31384)
(-0.0556162 -0.00212286 0.037316)
(-0.00760561 -0.0208327 -0.234184)
(0.0583908 0.0477359 0.0329986)
(0.204646 -0.070945 0.556884)
(0.247528 -0.290729 2.43804)
(0.116144 -0.147324 -0.131896)
(0.461913 -0.229847 0.4574)
(0.189272 0.0225874 0.678975)
(0.122414 0.400251 2.54297)
(0.178465 0.267591 2.79775)
(-0.062445 -0.198866 0.130772)
(-0.0491142 -0.202471 0.402905)
(-0.239975 0.201767 1.48109)
(-0.353537 0.473558 1.91517)
(-0.108706 0.365486 2.25613)
(-0.0924849 0.0449712 1.86937)
(-0.127312 -0.206091 0.655318)
(-0.355413 -0.108306 1.69283)
(-0.395751 -0.0845721 1.71617)
(-0.0790108 -0.357793 1.81911)
(0.177931 -0.236244 1.43616)
(-0.113528 0.265542 2.12435)
(-0.108151 0.152917 2.61528)
(0.289231 -0.189112 3.27449)
(-0.203802 -0.00313459 0.142811)
(-0.0398199 -0.00176828 -0.20704)
(-0.0148736 0.0889577 0.0274501)
(-0.0110445 0.001354 0.548261)
(-0.0520223 -0.108554 2.14991)
(0.143034 -0.0898527 -0.13546)
(0.553531 -0.253076 0.462188)
(0.308217 -0.0952689 0.684511)
(0.135951 0.434136 2.40226)
(0.219387 0.267845 2.96634)
(-0.0476462 -0.210729 0.248321)
(-0.0701154 -0.21329 0.195577)
(-0.137156 0.0929912 1.52957)
(-0.281877 0.440958 1.96361)
(-0.130034 0.50384 2.44356)
(-0.0476136 0.0779557 2.01842)
(-0.150483 -0.216006 0.745533)
(-0.335999 -0.181318 1.73492)
(-0.393207 -0.110268 1.69901)
(-0.0825798 -0.460699 1.85906)
(0.134509 -0.113738 1.71516)
(-0.44149 0.157341 2.34964)
(-0.492061 0.00795132 2.42313)
(0.288684 -0.173436 3.0122)
(-0.264501 -0.00820687 0.146986)
(-0.0604492 0.0299545 -0.176218)
(-0.0885894 0.119162 0.0683852)
(-0.188547 0.100112 0.540998)
(-0.332632 0.159698 1.73719)
(0.167467 -0.0520648 -0.123651)
(0.594381 -0.23899 0.489017)
(0.374291 -0.180012 0.741206)
(0.195808 0.434254 2.1413)
(0.222309 0.277582 3.15482)
(-0.0267616 -0.193161 0.281559)
(-0.0327812 -0.206689 0.130037)
(0.0255591 -0.0433914 1.59124)
(-0.190956 0.38918 1.98975)
(-0.138003 0.599497 2.50679)
(0.0188487 0.0488055 2.14062)
(-0.201678 -0.2816 0.785755)
(-0.22496 -0.234062 1.8137)
(-0.326712 -0.017286 1.75031)
(-0.117706 0.0818443 2.19314)
(0.111486 0.0138112 1.88879)
(-0.586254 -0.0886539 2.46028)
(-0.299796 -0.081771 1.85498)
(0.0664624 -0.177791 1.97876)
(-0.247045 -0.0239186 0.0709579)
(-0.0829234 0.0622838 -0.146428)
(-0.146029 0.128051 0.135577)
(-0.25946 0.153947 0.529911)
(-0.291558 0.0916198 1.57853)
(0.178655 -0.0131369 -0.110392)
(0.571194 -0.237911 0.552446)
(0.376146 -0.231676 0.840233)
(0.0331324 0.417781 1.91165)
(0.240118 0.414443 3.32793)
(-0.0280092 -0.158961 0.279448)
(0.0258137 -0.19576 0.150096)
(0.122825 -0.170908 1.66761)
(-0.144568 0.311696 1.99324)
(-0.13377 0.600488 2.48067)
(0.0229687 0.18988 2.36387)
(-0.163151 -0.392069 0.642824)
(-0.0625126 -0.243788 1.88942)
(-0.256064 0.0589679 1.83928)
(-0.14893 0.470713 2.39517)
(0.157425 0.0176003 1.96288)
(-0.561693 -0.18307 2.44938)
(-0.17453 0.00145682 1.60658)
(-0.0993811 0.0782944 1.70559)
(-0.180015 -0.0339667 0.0141604)
(-0.105259 0.0886563 -0.122934)
(-0.183708 0.112648 0.216697)
(-0.289105 0.141919 0.549858)
(-0.31433 0.0368899 1.5265)
(0.16197 0.0216934 -0.0999699)
(0.502033 -0.279465 0.681397)
(0.306699 -0.240153 0.999296)
(-0.235387 0.476012 1.64574)
(0.243205 0.46832 3.32644)
(-0.0247159 -0.110171 0.284759)
(0.030261 -0.152018 0.163061)
(0.162896 -0.294216 1.73775)
(-0.117109 0.222205 1.98604)
(-0.174338 0.567662 2.38724)
(0.0245227 0.386227 2.70568)
(-0.061197 -0.330883 0.473634)
(0.0492957 -0.242375 1.93729)
(-0.229004 0.070674 1.90995)
(-0.165829 0.510364 2.44151)
(0.161317 -0.0773321 1.99656)
(-0.43069 -0.166173 2.40892)
(-0.186579 0.0723115 1.58948)
(-0.187599 0.170632 1.88454)
(-0.119153 -0.0275847 0.0304496)
(-0.127493 0.111312 -0.101529)
(-0.213123 0.0714814 0.308106)
(-0.305837 0.118531 0.643441)
(-0.38525 0.0277475 1.36328)
(0.134099 0.0552145 -0.0893395)
(0.441216 -0.34981 0.811842)
(0.210697 -0.232856 1.19916)
(-0.334096 0.497465 1.38738)
(0.253159 0.483797 3.16066)
(-0.0170153 -0.0697976 0.275683)
(-0.00634498 -0.0960929 0.149272)
(0.169333 -0.361848 1.79816)
(-0.123067 0.14785 2.01277)
(-0.255627 0.566323 2.3842)
(0.0186378 0.539896 2.97682)
(0.00736823 -0.196271 0.372386)
(0.0772901 -0.254664 1.95656)
(-0.223836 0.0697058 1.97812)
(-0.180653 0.459468 2.45228)
(0.0979154 -0.0765941 2.06212)
(-0.165584 -0.185834 2.39228)
(-0.181666 0.0811889 1.59601)
(-0.198545 0.153098 2.07527)
(-0.0579658 -0.0108381 0.0497399)
(-0.144313 0.130846 -0.0731431)
(-0.229966 0.0140029 0.385803)
(-0.2462 0.0621595 0.759124)
(-0.321771 0.131584 1.17065)
(0.107517 0.080261 -0.067105)
(0.38775 -0.457483 0.920153)
(0.163057 -0.273485 1.38894)
(-0.231807 0.403806 1.28003)
(0.0365526 0.634064 2.82158)
(-0.0142479 -0.0472831 0.264743)
(-0.0554321 -0.051628 0.124557)
(0.15661 -0.41314 1.83911)
(-0.163149 0.0729602 2.05421)
(-0.283469 0.559121 2.45841)
(-0.0353278 0.791326 3.06505)
(0.0120913 -0.098663 0.292206)
(0.0590565 -0.273994 1.95914)
(-0.245172 0.0498633 2.04314)
(-0.242175 0.345516 2.48974)
(-0.0762743 0.317047 2.40192)
(-0.00602826 -0.163888 2.39602)
(-0.139509 0.0537341 1.61515)
(-0.169637 0.112384 2.14681)
(-0.0115146 -0.00322767 0.0750433)
(-0.155072 0.143657 -0.0351706)
(-0.230334 -0.028343 0.442634)
(-0.141331 -0.0187791 0.884578)
(-0.201625 0.0825215 0.914687)
(0.076719 0.103277 -0.029159)
(0.337933 -0.576937 0.967162)
(0.182582 -0.361704 1.50706)
(-0.0284368 0.186518 1.2484)
(-0.035481 0.247978 2.17026)
(-0.0145083 -0.0357615 0.287221)
(-0.0924731 -0.0264 0.127234)
(0.164995 -0.503796 1.83012)
(-0.148184 -0.0315313 2.06246)
(-0.273272 0.479147 2.50988)
(-0.163211 0.900263 3.11043)
(-0.00475307 -0.0256821 0.25484)
(0.064939 -0.345068 1.9542)
(-0.250159 -0.0111594 2.08715)
(-0.27098 0.279917 2.59007)
(-0.244528 0.605453 2.828)
(-0.0436864 -0.142777 2.26994)
(-0.107458 0.00917062 1.64805)
(-0.16516 0.117565 2.1773)
(0.00322089 -0.000190518 0.123082)
(-0.156071 0.14494 0.0120521)
(-0.235829 -0.0394411 0.47028)
(-0.0408832 -0.0851226 1.01705)
(-0.039979 0.022097 0.758259)
(0.0440069 0.124894 0.024142)
(0.295605 -0.63442 0.952247)
(0.253957 -0.457254 1.57005)
(0.0981776 0.00690841 1.28862)
(8.18458e-05 0.382357 1.87668)
(-0.00931223 -0.0221916 0.341694)
(-0.0791052 -0.00439566 0.163761)
(0.25639 -0.638259 1.72321)
(-0.0158781 -0.180328 2.05388)
(-0.227904 0.310107 2.52626)
(-0.160787 0.856281 2.93039)
(-0.0120911 0.0511753 0.279842)
(0.166005 -0.475889 1.86394)
(-0.191709 -0.0866552 2.10764)
(-0.255779 0.19003 2.70633)
(-0.292326 0.698712 3.10186)
(0.230876 -0.306486 2.03285)
(-0.0398176 -0.0176722 1.66511)
(-0.175143 0.148259 2.25755)
(-0.0279631 -0.0028896 0.177183)
(-0.154394 0.137712 0.0650219)
(-0.236222 -0.0389274 0.46002)
(0.0204667 -0.106957 1.15274)
(0.0865108 -0.0206143 0.743243)
(0.00432293 0.14341 0.085558)
(0.244532 -0.587047 0.927508)
(0.321067 -0.478208 1.62679)
(0.132347 -0.0752295 1.3624)
(0.0165934 0.348392 1.67209)
(0.00150795 -0.000118673 0.38864)
(0.000100666 0.0418979 0.206315)
(0.374191 -0.656056 1.51664)
(0.100402 -0.275845 2.07286)
(-0.153855 0.199568 2.5169)
(-0.0483551 0.642096 2.57714)
(0.0254897 0.113716 0.339535)
(0.258492 -0.458146 1.59892)
(-0.115443 -0.115331 2.13603)
(-0.228981 0.12943 2.79719)
(-0.30199 0.662514 3.23583)
(0.252449 -0.0580342 1.32178)
(0.0306501 -0.0316167 1.80264)
(-0.187212 0.167388 2.36943)
(-0.0828639 -0.0133515 0.215782)
(-0.157506 0.127989 0.123275)
(-0.233489 -0.0485179 0.407145)
(0.0351116 -0.0855521 1.26102)
(0.131569 -0.0414123 0.798577)
(-0.0473238 0.153788 0.141811)
(0.103071 -0.384801 0.868072)
(0.353936 -0.418589 1.68771)
(0.120898 -0.0898597 1.42871)
(0.0484965 0.295762 1.53031)
(0.00894143 0.0228747 0.409328)
(0.0492643 0.0982278 0.229076)
(0.354489 -0.525178 1.39849)
(0.113539 -0.310968 2.12794)
(-0.128985 0.170425 2.49228)
(0.0255894 0.501119 2.40504)
(0.0678522 0.121832 0.3832)
(0.292714 -0.307926 1.2727)
(-0.0875175 -0.127307 2.1935)
(-0.210077 0.0929722 2.85984)
(-0.284744 0.603971 3.32114)
(-0.0422189 0.102009 1.09193)
(-0.0130057 -0.0547021 1.93004)
(-0.211249 0.178865 2.49613)
(-0.139162 -0.0215836 0.237788)
(-0.155561 0.117345 0.189299)
(-0.240349 -0.0382104 0.334437)
(0.0255479 -0.086998 1.32996)
(0.138832 -0.0472365 0.88105)
(-0.0954648 0.158214 0.199865)
(-0.0108254 -0.182268 0.793863)
(0.365088 -0.384876 1.73153)
(0.114314 -0.104502 1.48684)
(-0.0219895 0.218116 1.38617)
(0.00530423 0.0444757 0.424411)
(0.0259047 0.129798 0.261185)
(0.116402 -0.328074 1.31618)
(0.0834039 -0.342329 2.18921)
(-0.157325 0.179008 2.45846)
(0.0795979 0.38285 2.23872)
(0.08283 0.101703 0.428032)
(0.263663 -0.13979 1.11263)
(-0.109832 -0.173773 2.23772)
(-0.192553 0.0719359 2.9018)
(-0.226095 0.504678 3.3549)
(-0.145434 0.0488529 1.04886)
(-0.104872 -0.0692326 2.0011)
(-0.214412 0.16293 2.5894)
(-0.192113 -0.0264091 0.247294)
(-0.148808 0.114378 0.255235)
(-0.217871 0.0171667 0.292048)
(0.048722 -0.151512 1.35296)
(0.144396 -0.0562115 0.979898)
(-0.116222 0.162903 0.258757)
(-0.0585001 -0.0435408 0.719743)
(0.365894 -0.395576 1.73858)
(0.115716 -0.149411 1.56333)
(-0.0123663 0.168458 1.28145)
(0.00261342 0.0679722 0.454672)
(-0.0220512 0.142622 0.314553)
(-0.124946 -0.198498 1.21566)
(0.0879104 -0.381222 2.1919)
(-0.274288 0.133711 2.35021)
(0.111924 0.345622 2.14106)
(0.0741782 0.096755 0.490204)
(0.233704 0.00990847 1.07619)
(-0.128301 -0.221966 2.23246)
(-0.190375 0.0806838 2.91345)
(-0.191444 0.419405 3.39141)
(-0.12163 0.0331648 1.0599)
(-0.0973775 -0.0685957 2.01929)
(-0.239242 0.158428 2.64559)
(-0.231967 -0.0242302 0.235896)
(-0.141362 0.119741 0.307387)
(-0.184651 0.0698048 0.274092)
(0.0410805 -0.18613 1.29362)
(0.17034 -0.0800737 1.0947)
(-0.118241 0.164156 0.310455)
(-0.0922944 0.0505616 0.654286)
(0.365504 -0.457255 1.76715)
(0.108024 -0.21173 1.66877)
(0.0274948 0.160546 1.26205)
(0.00326272 0.0956639 0.496895)
(-0.0438788 0.160816 0.373061)
(-0.195415 -0.138785 1.09628)
(0.182926 -0.452521 2.16673)
(-0.339595 0.00689302 2.22438)
(-0.0128408 0.123326 2.05393)
(0.0645667 0.122399 0.538994)
(0.207595 0.102842 1.11662)
(-0.126806 -0.252325 2.21462)
(-0.194402 0.0864902 2.90173)
(-0.1646 0.318342 3.34771)
(-0.00479101 0.0839585 1.12364)
(-0.0241441 -0.112796 2.05307)
(-0.254635 0.177983 2.68952)
(-0.258746 -0.0229983 0.202968)
(-0.140051 0.128896 0.336575)
(-0.162524 0.0984651 0.25596)
(-0.0333311 -0.214124 1.0946)
(0.180821 -0.10755 1.2149)
(-0.113576 0.162945 0.349521)
(-0.13318 0.108725 0.613553)
(0.335476 -0.480016 1.84269)
(0.120334 -0.234068 1.79652)
(0.0548483 0.169551 1.30805)
(0.00525854 0.124427 0.536661)
(-0.0397031 0.184674 0.415435)
(-0.141091 -0.108385 0.984235)
(0.34963 -0.497025 2.09268)
(-0.227381 -0.107465 2.19473)
(-0.115056 0.092822 1.86779)
(0.0742946 0.152187 0.555415)
(0.159866 0.122433 1.18169)
(-0.0905267 -0.285189 2.21587)
(-0.223342 0.0908015 2.85986)
(-0.200106 0.385771 3.25438)
(0.0790978 0.0473451 1.18076)
(0.0433898 -0.156808 2.14146)
(-0.282587 0.19314 2.69493)
(-0.279652 -0.0222188 0.167737)
(-0.141583 0.134369 0.350752)
(-0.159764 0.117093 0.235759)
(-0.136609 -0.197183 0.915687)
(0.162843 -0.144539 1.33258)
(-0.107435 0.159567 0.376497)
(-0.176215 0.143074 0.600694)
(0.290508 -0.45197 1.85894)
(0.16176 -0.193284 1.91388)
(0.067534 0.193289 1.39026)
(0.00819549 0.14715 0.565673)
(-0.0222837 0.210585 0.438235)
(-0.0638383 -0.0811859 0.881065)
(0.416505 -0.443184 2.02697)
(-0.00335586 -0.225503 2.25608)
(-0.0440558 0.185385 1.80413)
(0.0911163 0.176619 0.561735)
(0.101093 0.106812 1.23951)
(0.0422085 -0.33028 2.24105)
(-0.31375 0.0379577 2.79393)
(-0.233968 0.413242 3.09116)
(0.126778 0.0120342 1.21359)
(0.240026 -0.10257 2.18455)
(-0.328323 0.17021 2.66594)
(-0.302998 -0.0253881 0.15748)
(-0.150393 0.141434 0.364087)
(-0.178044 0.123182 0.227677)
(-0.241518 -0.103458 0.841118)
(0.132821 -0.175114 1.46753)
(-0.105669 0.154234 0.394561)
(-0.224222 0.164864 0.602539)
(0.233756 -0.441309 1.78982)
(0.183738 -0.158299 2.02822)
(0.0445193 0.159459 1.51219)
(0.0109266 0.153902 0.582021)
(-0.00207286 0.238365 0.451427)
(-0.0178198 -0.0341399 0.798373)
(0.352871 -0.264813 1.95253)
(0.145447 -0.284958 2.33185)
(0.0538368 0.091689 1.9193)
(0.110497 0.201073 0.565592)
(0.0666581 0.0932036 1.27684)
(0.177807 -0.302864 2.25828)
(-0.218904 -0.113799 2.75464)
(-0.15873 0.265049 2.63838)
(0.147584 0.00997056 1.23237)
(0.253728 -0.0410116 2.1168)
(-0.257587 0.0641944 2.65158)
(-0.316568 -0.0326813 0.185713)
(-0.158168 0.147894 0.388719)
(-0.210204 0.11446 0.24465)
(-0.353127 0.0232038 0.752248)
(0.0180921 -0.153789 1.57572)
(-0.109283 0.148958 0.408043)
(-0.282239 0.1848 0.613964)
(0.0849828 -0.381144 1.62233)
(0.1303 -0.156829 2.13926)
(0.0238502 0.049167 1.66934)
(0.0143847 0.147037 0.581584)
(0.00960231 0.260382 0.470365)
(-0.00795896 0.0430376 0.758438)
(0.166405 0.0527791 1.78733)
(0.250578 -0.310824 2.39848)
(0.143588 -0.0514694 2.11995)
(0.128198 0.218381 0.565919)
(0.0747872 0.0943562 1.30624)
(0.198733 -0.184318 2.26453)
(0.133939 -0.363276 2.73764)
(-0.00556208 0.0851121 2.40415)
(0.140582 0.0323703 1.27861)
(0.0783582 -0.0142043 1.91814)
(0.156342 -0.131355 2.70763)
(-0.313211 -0.0412431 0.246532)
(-0.158419 0.145981 0.427754)
(-0.22405 0.0988606 0.293011)
(-0.445638 0.0879862 0.602211)
(-0.127628 -0.133736 1.55308)
(-0.108889 0.145296 0.429456)
(-0.348157 0.210445 0.639812)
(-0.11229 -0.186924 1.45878)
(0.0545786 -0.15237 2.18534)
(0.0365122 -0.0809931 1.83665)
(0.0239607 0.129359 0.538045)
(0.00577014 0.269817 0.504069)
(-0.0207363 0.123867 0.763317)
(0.0231013 0.186141 1.6098)
(0.308296 -0.2762 2.46841)
(0.178313 -0.1469 2.28585)
(0.14491 0.213232 0.572832)
(0.0986668 0.110792 1.35824)
(0.126702 0.018475 2.25695)
(0.265658 -0.383684 2.75434)
(0.109892 -0.103443 2.50822)
(0.121621 0.0605918 1.36297)
(0.059229 -0.0257977 1.78657)
(0.394014 -0.202929 2.61305)
(-0.286852 -0.0437955 0.334719)
(-0.151723 0.13437 0.478233)
(-0.204071 0.0878706 0.366543)
(-0.464848 0.0436326 0.443513)
(-0.149406 -0.0268938 1.49626)
(-0.0854915 0.141948 0.477598)