# Probe 0 (0 0 0.01)
#       Probe             0
#        Time
       0.0001       6964.92
       0.0002       35.3056
       0.0003       61.6697
       0.0004       64.0659
       0.0005       66.8694
       0.0006       69.6356
       0.0007        71.698
       0.0008       72.9151
       0.0009       73.4086
        0.001       73.2711
       0.0011       63.7436
       0.0012       59.5037
       0.0013         56.62
       0.0014       54.3711
       0.0015       52.6168
       0.0016       51.1629
       0.0017       49.9938
       0.0018       49.0279
       0.0019         48.23
        0.002       47.5748
       0.0021       62.2843
       0.0022       62.1663
       0.0023       62.0844
       0.0024       62.0196
       0.0025       61.9773
       0.0026       61.9734
       0.0027       61.9912
       0.0028       62.0318
       0.0029       62.0961
        0.003       62.1794
       0.0031       70.2613
       0.0032        70.092
       0.0033        70.122
       0.0034       70.2148
       0.0035       70.3521
       0.0036       70.4892
       0.0037       70.6642
       0.0038       70.8596
       0.0039       71.0782
        0.004       71.2912
       0.0041       70.6939
       0.0042       71.4732
       0.0043       72.3719
       0.0044       73.2279
       0.0045       74.0352
       0.0046       74.8171
       0.0047       75.5764
       0.0048       76.3379
       0.0049       77.0793
        0.005       77.8268
       0.0051       74.4546
       0.0052       74.9421
       0.0053       75.8848
       0.0054       76.8523
       0.0055       77.7899
       0.0056       78.7222
       0.0057       79.6495
       0.0058       80.5218
       0.0059       81.4186
        0.006       82.2688
       0.0061       78.2439
       0.0062       78.5794
       0.0063       79.5402
       0.0064       80.5733
       0.0065       81.6029
       0.0066       82.6392
       0.0067       83.6644
       0.0068       84.6613
       0.0069       85.6228
        0.007       86.5468
       0.0071       85.7059
       0.0072       87.1471
       0.0073       88.8885
       0.0074         90.63
       0.0075       92.3335
       0.0076       94.0069
       0.0077       95.6918
       0.0078       97.3272
       0.0079       98.9571
        0.008        100.46
       0.0081        104.08
       0.0082       107.173
       0.0083       110.342
       0.0084       113.479
       0.0085       116.598
       0.0086       119.727
       0.0087       122.787
       0.0088       125.972
       0.0089       129.279
        0.009       132.481
       0.0091       144.917
       0.0092       154.872
       0.0093       164.954
       0.0094       175.403
       0.0095       186.018
       0.0096       196.886
       0.0097       208.057
       0.0098       219.651
       0.0099       231.653
         0.01       244.133
       0.0101       261.542
       0.0102       276.036
       0.0103       290.789
       0.0104        306.08
       0.0105       321.887
       0.0106       338.356
       0.0107         355.4
       0.0108       373.018
       0.0109       391.252
        0.011       410.354
       0.0111       437.455
       0.0112       460.436
       0.0113       484.059
       0.0114       506.936
       0.0115       530.423
       0.0116       553.633
       0.0117       576.524
       0.0118       599.095
       0.0119        621.37
        0.012         643.1
       0.0121       664.612
       0.0122       683.957
       0.0123        702.82
       0.0124       721.189
       0.0125       739.219
       0.0126       756.853
       0.0127       774.014
       0.0128       790.937
       0.0129       807.676
        0.013       824.357
       0.0131         823.5
       0.0132       825.202
       0.0133       826.735
       0.0134       829.311
       0.0135       832.006
       0.0136       834.916
       0.0137       838.059
       0.0138       841.982
       0.0139       845.413
        0.014       849.217
       0.0141       829.598
       0.0142        812.91
       0.0143       796.756
       0.0144       781.066
       0.0145       765.808
       0.0146       750.944
       0.0147       736.555
       0.0148       722.511
       0.0149       708.966
        0.015       695.846
       0.0151       679.147
       0.0152       663.793
       0.0153       649.334
       0.0154       635.856
       0.0155        623.25
       0.0156       611.598
       0.0157       600.917
       0.0158       591.294
       0.0159       582.659
        0.016       575.071
       0.0161       567.889
       0.0162       562.788
       0.0163        558.87
       0.0164       556.071
       0.0165       554.406
       0.0166       553.899
       0.0167       554.581
       0.0168       556.463
       0.0169       559.638
        0.017       564.022
       0.0171       567.058
       0.0172       572.018
       0.0173         577.4
       0.0174        583.48
       0.0175       590.116
       0.0176        597.29
       0.0177       604.943
       0.0178       613.063
       0.0179       621.782
        0.018       630.986
       0.0181       634.437
       0.0182       640.116
       0.0183       646.338
       0.0184       653.052
       0.0185       660.309
       0.0186        668.13
       0.0187       676.576
       0.0188       685.755
       0.0189        695.78
        0.019       706.592
       0.0191       698.269
       0.0192       693.616
       0.0193       689.531
       0.0194       685.856
       0.0195        682.54
       0.0196       679.409
       0.0197       676.626
       0.0198       674.074
       0.0199       671.787
         0.02       669.811
       0.0201       650.446
       0.0202       633.707
       0.0203       617.976
       0.0204       603.169
       0.0205       589.333
       0.0206       576.441
       0.0207       564.475
       0.0208       553.447
       0.0209       543.402
        0.021       534.381
       0.0211       523.709
       0.0212       515.484
       0.0213       508.603
       0.0214       502.973
       0.0215       498.536
       0.0216       495.326
       0.0217       493.414
       0.0218       492.874
       0.0219       493.568
        0.022       495.609
       0.0221       495.294
       0.0222       497.337
       0.0223       500.188
       0.0224       503.907
       0.0225       508.191
       0.0226       513.239
       0.0227       519.224
       0.0228       525.966
       0.0229       533.462
        0.023       541.741
       0.0231       542.456
       0.0232       545.732
       0.0233       549.638
       0.0234       554.163
       0.0235       559.364
       0.0236       565.248
       0.0237       571.957
       0.0238       579.466
       0.0239        587.94
        0.024       597.406
       0.0241       589.137
       0.0242       584.382
       0.0243       580.042
       0.0244       575.991
       0.0245       572.221
       0.0246       568.653
       0.0247       565.529
       0.0248       562.697
       0.0249       560.183
        0.025        558.02
       0.0251        541.18
       0.0252       526.911
       0.0253       513.868
       0.0254       502.031
       0.0255       491.356
       0.0256       481.894
       0.0257       473.568
       0.0258       466.279
       0.0259       460.307
        0.026       455.587
       0.0261       446.907
       0.0262       441.613
       0.0263       437.484
       0.0264       434.496
       0.0265       432.675
       0.0266        431.95
       0.0267       432.339
       0.0268       433.826
       0.0269       436.465
        0.027       440.275
       0.0271       439.823
       0.0272       441.594
       0.0273       444.143
       0.0274       447.414
       0.0275       451.589
       0.0276       456.544
       0.0277       462.279
       0.0278       468.798
       0.0279       476.077
        0.028       484.252
       0.0281        479.87
       0.0282       478.971
       0.0283        478.51
       0.0284       478.486
       0.0285       478.852
       0.0286       479.629
       0.0287       480.779
       0.0288       482.306
       0.0289       484.219
        0.029       486.538
       0.0291       473.383
       0.0292       463.253
       0.0293        453.81
       0.0294       445.071
       0.0295       437.065
       0.0296       429.706
       0.0297       423.058
       0.0298       417.182
       0.0299       412.045
         0.03       407.655
       0.0301       394.292
       0.0302       384.593
       0.0303       376.093
       0.0304       368.694
       0.0305       362.338
       0.0306       357.006
       0.0307       352.635
       0.0308       349.201
       0.0309       346.658
        0.031       344.991
       0.0311       338.931
       0.0312       335.566
       0.0313        333.05
       0.0314       331.249
       0.0315       330.117
       0.0316       329.618
       0.0317       329.708
       0.0318       330.387
       0.0319       331.577
        0.032       333.314
       0.0321       329.786
       0.0322       328.183
       0.0323       327.048
       0.0324       326.281
       0.0325       325.872
       0.0326       325.755
       0.0327       325.992
       0.0328       326.549
       0.0329        327.38
        0.033       328.521
       0.0331       317.814
       0.0332       309.813
       0.0333       302.501
       0.0334       295.752
       0.0335       289.523
       0.0336       283.779
       0.0337       278.484
       0.0338       273.655
       0.0339       269.246
        0.034       265.281
       0.0341       255.791
       0.0342       248.848
       0.0343       242.629
       0.0344       237.091
       0.0345       232.129
       0.0346        227.76
       0.0347       223.964
       0.0348       220.657
       0.0349       217.851
        0.035       215.508
       0.0351       210.442
       0.0352       207.276
       0.0353       204.784
       0.0354       202.882
       0.0355        201.55
       0.0356       200.722
       0.0357       200.291
       0.0358       200.378
       0.0359       200.904
        0.036       201.824
       0.0361       199.282
       0.0362       198.566
       0.0363       198.035
       0.0364       197.668
       0.0365       197.426
       0.0366       197.352
       0.0367       197.358
       0.0368       197.502
       0.0369       197.729
        0.037        198.03
       0.0371       191.485
       0.0372       187.175
       0.0373        183.45
       0.0374       180.229
       0.0375       177.446
       0.0376        175.04
       0.0377       172.918
       0.0378       171.074
       0.0379       169.546
        0.038       168.304
       0.0381       163.562
       0.0382       160.429
       0.0383        157.67
       0.0384        155.27
       0.0385       153.213
       0.0386        151.51
       0.0387       150.105
       0.0388       148.995
       0.0389        148.19
        0.039       147.657
       0.0391       144.791
       0.0392       143.542
       0.0393       142.786
       0.0394       142.467
       0.0395       142.569
       0.0396       143.088
       0.0397       143.987
       0.0398       145.256
       0.0399       146.903
         0.04       148.941
       0.0401        148.74
       0.0402        150.41
       0.0403        152.27
       0.0404       154.339
       0.0405       156.636
       0.0406       159.184
       0.0407       161.926
       0.0408       164.925
       0.0409       168.164
        0.041       171.621
       0.0411       170.298
       0.0412       170.972
       0.0413       172.154
       0.0414       173.779
       0.0415       175.747
       0.0416       177.953
       0.0417       180.267
       0.0418       182.711
       0.0419       185.346
        0.042       188.209
       0.0421       186.736
       0.0422       187.512
       0.0423       188.626
       0.0424       189.915
       0.0425       191.347
       0.0426       193.015
       0.0427       194.915
       0.0428       197.007
       0.0429       199.566
        0.043       202.068
       0.0431       201.695
       0.0432       202.987
       0.0433       204.765
       0.0434       207.171
       0.0435       209.778
       0.0436        212.97
       0.0437       216.688
       0.0438       220.888
       0.0439       225.602
        0.044       230.927
       0.0441       232.183
       0.0442       236.966
       0.0443       242.153
       0.0444       248.035
       0.0445       254.118
       0.0446       260.607
       0.0447       267.509
       0.0448       274.814
       0.0449       282.604
        0.045       290.759
       0.0451       288.687
       0.0452       289.156
       0.0453       289.968
       0.0454       291.175
       0.0455       292.736
       0.0456       294.707
       0.0457       297.091
       0.0458       299.919
       0.0459       303.302
        0.046       307.237
       0.0461       300.554
       0.0462       297.721
       0.0463       295.348
       0.0464        293.58
       0.0465       292.421
       0.0466       291.764
       0.0467       291.563
       0.0468        292.04
       0.0469       293.076
        0.047       294.704
       0.0471       289.545
       0.0472       286.305
       0.0473       283.918
       0.0474       282.171
       0.0475       281.095
       0.0476       280.831
       0.0477       281.376
       0.0478       282.685
       0.0479       284.809
        0.048       287.822
       0.0481       284.236
       0.0482       284.212
       0.0483       284.848
       0.0484       286.147
       0.0485       288.089
       0.0486       290.641
       0.0487       293.834
       0.0488       297.734
       0.0489       302.046
        0.049       307.144
       0.0491       302.272
       0.0492       300.024
       0.0493       298.361
       0.0494       297.359
       0.0495       296.954
       0.0496       296.998
       0.0497       297.587
       0.0498       298.766
       0.0499       300.529
         0.05       303.025
       0.0501       295.054
       0.0502       290.655
       0.0503       286.975
       0.0504       283.987
       0.0505       281.631
       0.0506       279.939
       0.0507       278.964
       0.0508       278.471
       0.0509       278.596
        0.051       279.408
       0.0511       272.526
       0.0512       268.343
       0.0513       264.968
       0.0514       262.297
       0.0515       260.508
       0.0516       259.422
       0.0517        259.11
       0.0518        259.59
       0.0519       260.957
        0.052       263.202
       0.0521       259.733
       0.0522       259.026
       0.0523       259.002
       0.0524       259.634
       0.0525       260.913
       0.0526        262.78
       0.0527       265.305
       0.0528       268.465
       0.0529        272.25
        0.053       276.641
       0.0531       271.663
       0.0532       269.406
       0.0533       267.704
       0.0534       266.439
       0.0535       265.754
       0.0536       265.594
       0.0537        266.03
       0.0538       267.122
       0.0539        268.85
        0.054        271.33
       0.0541       264.528
       0.0542       260.861
       0.0543        257.89
       0.0544       255.622
       0.0545       253.999
       0.0546        252.98
       0.0547       252.551
       0.0548       252.618
       0.0549       253.242
        0.055       254.434
       0.0551       247.986
       0.0552       244.257
       0.0553       241.317
       0.0554       239.104
       0.0555       237.625
       0.0556       236.891
       0.0557       236.975
       0.0558       237.903
       0.0559       239.695
        0.056       242.406
       0.0561       238.718
       0.0562       237.724
       0.0563       237.338
       0.0564       237.484
       0.0565       238.199
       0.0566       239.451
       0.0567       241.303
       0.0568       243.681
       0.0569       246.583
        0.057       250.046
       0.0571       244.813
       0.0572       242.351
       0.0573       240.441
       0.0574       239.103
       0.0575       238.376
       0.0576       238.248
       0.0577       238.749
       0.0578       239.879
       0.0579       241.696
        0.058        244.15
       0.0581       238.002
       0.0582       234.779
       0.0583       232.215
       0.0584       230.264
       0.0585       228.866
       0.0586       227.994
       0.0587       227.629
       0.0588       227.779
       0.0589       228.474
        0.059       229.762
       0.0591       223.892
       0.0592       221.054
       0.0593       218.972
       0.0594       217.611
       0.0595       216.942
       0.0596       216.944
       0.0597       217.683
       0.0598       219.098
       0.0599       221.143
         0.06       223.849
       0.0601       219.693
       0.0602       217.862
       0.0603       216.553
       0.0604       215.742
       0.0605       215.422
       0.0606       215.617
       0.0607       216.358
       0.0608       217.708
       0.0609       219.723
        0.061       222.453
       0.0611       217.792
       0.0612       216.128
       0.0613       214.952
       0.0614       214.292
       0.0615       214.118
       0.0616       214.405
       0.0617       215.132
       0.0618        216.32
       0.0619       217.953
        0.062       219.944
       0.0621       214.116
       0.0622       210.912
       0.0623       208.346
       0.0624       206.349
       0.0625       204.875
       0.0626       203.951
       0.0627        203.61
       0.0628        203.92
       0.0629       204.934
        0.063       206.717
       0.0631       202.467
       0.0632       201.052
       0.0633       200.152
       0.0634       199.766
       0.0635       199.803
       0.0636       200.263
       0.0637       201.125
       0.0638       202.394
       0.0639       204.009
        0.064       205.979
       0.0641       201.029
       0.0642       198.373
       0.0643       196.291
       0.0644       194.812
       0.0645        193.97
       0.0646       193.778
       0.0647       194.278
       0.0648       195.503
       0.0649       197.471
        0.065       200.143
       0.0651       196.381
       0.0652        195.19
       0.0653       194.387
       0.0654       193.935
       0.0655       193.755
       0.0656       193.838
       0.0657       194.207
       0.0658       194.829
       0.0659       195.734
        0.066       196.914
       0.0661       191.467
       0.0662       188.698
       0.0663       186.651
       0.0664       185.297
       0.0665       184.602
       0.0666       184.562
       0.0667       185.191
       0.0668       186.484
       0.0669       188.406
        0.067       190.985
       0.0671       187.062
       0.0672       185.375
       0.0673        183.97
       0.0674       182.882
       0.0675       182.051
       0.0676        181.54
       0.0677       181.331
       0.0678       181.552
       0.0679       182.163
        0.068       183.242
       0.0681       179.104
       0.0682       177.398
       0.0683       176.229
       0.0684       175.573
       0.0685       175.409
       0.0686       175.718
       0.0687       176.456
       0.0688       177.615
       0.0689       179.222
        0.069       181.193
       0.0691        177.09
       0.0692       175.189
       0.0693        173.67
       0.0694       172.552
       0.0695       171.754
       0.0696       171.309
       0.0697        171.34
       0.0698       171.859
       0.0699       172.858
         0.07        174.47
       0.0701       171.128
       0.0702       170.256
       0.0703        169.81
       0.0704        169.73
       0.0705       170.006
       0.0706       170.549
       0.0707        171.36
       0.0708       172.406
       0.0709       173.652
        0.071       175.117
       0.0711       170.505
       0.0712        167.98
       0.0713       165.894
       0.0714       164.294
       0.0715       163.146
       0.0716       162.537
       0.0717       162.501
       0.0718       163.024
       0.0719        164.15
        0.072       165.818
       0.0721       162.489
       0.0722       161.304
       0.0723       160.347
       0.0724       159.579
       0.0725       159.048
       0.0726       158.766
       0.0727       158.649
       0.0728       158.742
       0.0729        159.08
        0.073       159.631
       0.0731           156
       0.0732        154.57
       0.0733       153.634
       0.0734       153.158
       0.0735       153.113
       0.0736       153.524
       0.0737       154.375
       0.0738       155.633
       0.0739        157.31
        0.074       159.338
       0.0741       156.369
       0.0742        155.34
       0.0743       154.483
       0.0744       153.812
       0.0745       153.282
       0.0746       152.901
       0.0747       152.738
       0.0748       152.794
       0.0749       153.124
        0.075       153.792
       0.0751       150.285
       0.0752       149.018
       0.0753       148.144
       0.0754       147.647
       0.0755        147.49
       0.0756       147.621
       0.0757       148.022
       0.0758       148.575
       0.0759       149.413
        0.076       150.378
       0.0761        146.84
       0.0762       145.117
       0.0763       143.724
       0.0764       142.669
       0.0765       141.946
       0.0766       141.594
       0.0767       141.631
       0.0768        142.04
       0.0769       142.904
        0.077       144.248
       0.0771       142.032
       0.0772       141.755
       0.0773       141.715
       0.0774       141.855
       0.0775        142.15
       0.0776       142.536
       0.0777       142.943
       0.0778       143.567
       0.0779       144.205
        0.078       144.891
       0.0781       141.265
       0.0782       139.425
       0.0783       137.963
       0.0784       136.874
       0.0785       136.218
       0.0786       135.905
       0.0787       136.007
       0.0788       136.498
       0.0789       137.387
        0.079       138.646
       0.0791       135.875
       0.0792           135
       0.0793       134.233
       0.0794       133.603
       0.0795       133.022
       0.0796       132.529
       0.0797       132.116
       0.0798       131.846
       0.0799       131.711
         0.08       131.772
       0.0801       128.964
       0.0802       127.961
       0.0803       127.336
       0.0804       126.984
       0.0805        126.85
       0.0806       127.078
       0.0807       127.441
       0.0808       128.067
       0.0809       128.879
        0.081       129.822
       0.0811       127.404
       0.0812         126.8
       0.0813       126.204
       0.0814       125.776
       0.0815       125.445
       0.0816       125.248
       0.0817       125.164
       0.0818       125.293
       0.0819       125.634
        0.082       126.203
       0.0821        124.09
       0.0822       123.525
       0.0823       123.173
       0.0824       123.009
       0.0825        122.99
       0.0826       123.053
       0.0827       123.226
       0.0828       123.449
       0.0829       123.743
        0.083        124.07
       0.0831       121.331
       0.0832       120.084
       0.0833       119.267
       0.0834       118.663
       0.0835       118.188
       0.0836       118.009
       0.0837       118.041
       0.0838       118.319
       0.0839       118.852
        0.084       119.615
       0.0841       117.447
       0.0842       116.786
       0.0843       116.222
       0.0844       115.751
       0.0845       115.305
       0.0846       114.922
       0.0847       114.664
       0.0848       114.439
       0.0849       114.261
        0.085       114.111
       0.0851       112.047
       0.0852       111.395
       0.0853       111.039
       0.0854       110.865
       0.0855       110.952
       0.0856       111.156
       0.0857       111.526
       0.0858       112.094
       0.0859       112.782
        0.086       113.593
       0.0861       111.453
       0.0862       110.677
       0.0863       109.987
       0.0864       109.379
       0.0865       108.854
       0.0866       108.402
       0.0867       108.043
       0.0868       107.752
       0.0869       107.623
        0.087       107.631
       0.0871       105.834
       0.0872       105.502
       0.0873       105.327
       0.0874        105.24
       0.0875       105.246
       0.0876       105.278
       0.0877        105.36
       0.0878       105.459
       0.0879       105.562
        0.088       105.668
       0.0881       103.516
       0.0882       102.738
       0.0883        102.07
       0.0884       101.529
       0.0885       101.124
       0.0886       100.842
       0.0887       100.683
       0.0888       100.667
       0.0889       100.817
        0.089       101.138
       0.0891       99.5852
       0.0892       99.5241
       0.0893       99.5089
       0.0894       99.5348
       0.0895       99.5897
       0.0896       99.6905
       0.0897        99.784
       0.0898       99.8956
       0.0899       100.028
         0.09       100.153
       0.0901       98.1907
       0.0902       97.5311
       0.0903       97.0853
       0.0904       96.8149
       0.0905       96.6409
       0.0906       96.5767
       0.0907       96.6376
       0.0908       96.8088
       0.0909       97.1261
        0.091       97.5555
       0.0911       96.0061
       0.0912       95.5451
       0.0913       95.0609
       0.0914       94.5787
       0.0915       94.1208
       0.0916       93.6556
       0.0917       93.2046
       0.0918       92.7669
       0.0919       92.3604
        0.092        91.958
       0.0921       90.4759
       0.0922       90.1111
       0.0923        89.903
       0.0924       89.8342
       0.0925       89.8429
       0.0926       89.9725
       0.0927       90.1594
       0.0928       90.4112
       0.0929        90.698
        0.093       91.0256
       0.0931       89.5852
       0.0932       89.3081
       0.0933        89.067
       0.0934       88.8673
       0.0935       88.6521
       0.0936       88.4817
       0.0937       88.3617
       0.0938       88.3304
       0.0939       88.3324
        0.094       88.4189
       0.0941       87.3767
       0.0942       87.1742
       0.0943       87.0308
       0.0944       86.9481
       0.0945       86.8945
       0.0946       86.8252
       0.0947       86.7136
       0.0948       86.5673
       0.0949       86.3855
        0.095       86.1851
       0.0951       84.5286
       0.0952       83.9561
       0.0953       83.4587
       0.0954       83.0573
       0.0955       82.7166
       0.0956       82.4515
       0.0957       82.2524
       0.0958       82.1449
       0.0959        82.108
        0.096       82.1704
       0.0961       81.4538
       0.0962       81.4251
       0.0963       81.3955
       0.0964       81.3929
       0.0965       81.3741
       0.0966       81.3833
       0.0967       81.3917
       0.0968       81.3911
       0.0969       81.3914
        0.097       81.3911
       0.0971       80.3953
       0.0972       80.1703
       0.0973        80.024
       0.0974       79.9448
       0.0975       79.8829
       0.0976       79.8903
       0.0977       79.9308
       0.0978       80.0189
       0.0979       80.1265
        0.098       80.2783
       0.0981       79.0829
       0.0982       78.8557
       0.0983       78.6107
       0.0984       78.3876
       0.0985       78.1892
       0.0986        77.973
       0.0987       77.7517
       0.0988       77.5139
       0.0989       77.2777
        0.099       77.0084
       0.0991        75.874
       0.0992       75.5449
       0.0993       75.3049
       0.0994       75.1496
       0.0995       75.0564
       0.0996       75.0158
       0.0997       75.0371
       0.0998       75.1071
       0.0999       75.2163
          0.1       75.3596
       0.1001       74.4447
       0.1002       74.3906
       0.1003       74.3058
       0.1004       74.2232
       0.1005       74.1146
       0.1006       74.0218
       0.1007       73.8838
       0.1008       73.7504
       0.1009       73.6188
        0.101        73.568
       0.1011       72.6351
       0.1012       72.5756
       0.1013       72.4902
       0.1014       72.4613
       0.1015       72.4133
       0.1016       72.4242
       0.1017       72.4111
       0.1018       72.4426
       0.1019       72.4242
        0.102       72.4399
       0.1021       71.6229
       0.1022        71.553
       0.1023       71.4374
       0.1024       71.3498
       0.1025       71.2252
       0.1026       71.1268
       0.1027         70.98
       0.1028       70.8599
       0.1029       70.7359
        0.103       70.6448
       0.1031       69.6514
       0.1032       69.4989
       0.1033        69.338
       0.1034       69.2622
       0.1035       69.1835
       0.1036        69.161
       0.1037       69.1357
       0.1038       69.1579
       0.1039       69.1834
        0.104        69.237
       0.1041       68.4284
       0.1042       68.2743
       0.1043       68.0831
       0.1044       67.9472
       0.1045       67.7937
       0.1046       67.6708
       0.1047       67.5413
       0.1048       67.4629
       0.1049       67.3537
        0.105        67.295
       0.1051       66.7283
       0.1052       66.8245
       0.1053       66.8799
       0.1054       66.9742
       0.1055        67.033
       0.1056       67.1117
       0.1057       67.1763
       0.1058       67.2544
       0.1059       67.2872
        0.106       67.3212
       0.1061          66.5
       0.1062       66.2803
       0.1063       66.0573
       0.1064       65.8683
       0.1065       65.6795
       0.1066       65.5255
       0.1067       65.3717
       0.1068       65.2452
       0.1069        65.119