# Probe 0 (0 0 0.01)
#       Probe             0
#        Time
       0.0001             (0.0322266 0.0130172 1.63558)
       0.0002             (0.0365199 0.0174886 1.6498)
       0.0003             (0.0343756 0.0172863 1.65889)
       0.0004             (0.031188 0.0158906 1.67318)
       0.0005             (0.0268225 0.0136839 1.70941)
       0.0006             (0.0215394 0.0105285 1.7788)
       0.0007             (0.015745 0.00636077 1.88932)
       0.0008             (0.00985562 0.00170182 2.04997)
       0.0009             (0.00373419 -0.00405493 2.27652)
        0.001             (-0.00277628 -0.0103902 2.59721)
       0.0011             (-0.00571304 -0.0122757 2.62159)
       0.0012             (-0.00829783 -0.0137859 2.65081)
       0.0013             (-0.0101575 -0.0149186 2.6781)
       0.0014             (-0.0116141 -0.015765 2.70228)
       0.0015             (-0.0128045 -0.016349 2.72359)
       0.0016             (-0.013736 -0.016844 2.74251)
       0.0017             (-0.0144783 -0.0172295 2.75948)
       0.0018             (-0.0150898 -0.017543 2.77475)
       0.0019             (-0.0156085 -0.0178001 2.78858)
        0.002             (-0.0160369 -0.0180348 2.80113)
       0.0021             (-0.0158368 -0.01771 2.80516)
       0.0022             (-0.0156651 -0.0174187 2.80733)
       0.0023             (-0.0155359 -0.017206 2.80939)
       0.0024             (-0.015426 -0.0170372 2.81153)
       0.0025             (-0.0153203 -0.0168933 2.81376)
       0.0026             (-0.0152183 -0.0167698 2.81606)
       0.0027             (-0.015113 -0.01666 2.81839)
       0.0028             (-0.0150066 -0.0165581 2.82074)
       0.0029             (-0.0149035 -0.016461 2.8231)
        0.003             (-0.0147877 -0.0163642 2.82545)
       0.0031             (-0.0145667 -0.0163024 2.83964)
       0.0032             (-0.0142118 -0.0161469 2.85516)
       0.0033             (-0.0137738 -0.0159092 2.87089)
       0.0034             (-0.013308 -0.0156277 2.88654)
       0.0035             (-0.012815 -0.0153634 2.9021)
       0.0036             (-0.0123223 -0.0149798 2.91757)
       0.0037             (-0.011805 -0.0146034 2.93309)
       0.0038             (-0.0113207 -0.0142229 2.94857)
       0.0039             (-0.0108488 -0.0138575 2.96376)
        0.004             (-0.0102853 -0.0134883 2.97882)
       0.0041             (-0.00914226 -0.0125428 2.98619)
       0.0042             (-0.00805111 -0.011635 2.99264)
       0.0043             (-0.00700179 -0.010793 2.99893)
       0.0044             (-0.00591513 -0.00998007 3.00519)
       0.0045             (-0.00493907 -0.0091867 3.01141)
       0.0046             (-0.00399117 -0.00838754 3.01763)
       0.0047             (-0.00303144 -0.00765591 3.02383)
       0.0048             (-0.00203697 -0.00692815 3.03005)
       0.0049             (-0.0010427 -0.00618954 3.0363)
        0.005             (-5.43697e-05 -0.00543979 3.04255)
       0.0051             (0.000257733 -0.00516252 3.05073)
       0.0052             (0.000442189 -0.0050351 3.05957)
       0.0053             (0.000606667 -0.00492262 3.06853)
       0.0054             (0.000773187 -0.00478998 3.07746)
       0.0055             (0.000949939 -0.00462204 3.08633)
       0.0056             (0.00113076 -0.00445484 3.09513)
       0.0057             (0.00128542 -0.00427362 3.10391)
       0.0058             (0.00144682 -0.00408325 3.11264)
       0.0059             (0.00163295 -0.00388872 3.12125)
        0.006             (0.00182326 -0.00368125 3.12976)
       0.0061             (0.000944253 -0.00438733 3.13215)
       0.0062             (0.000164175 -0.00498165 3.13349)
       0.0063             (-0.00048723 -0.00547204 3.1345)
       0.0064             (-0.00108591 -0.00592076 3.13531)
       0.0065             (-0.00165578 -0.00634849 3.13594)
       0.0066             (-0.00221856 -0.00677304 3.13636)
       0.0067             (-0.00276704 -0.00718999 3.13657)
       0.0068             (-0.00332089 -0.00758761 3.13653)
       0.0069             (-0.00386391 -0.00798725 3.13624)
        0.007             (-0.0043983 -0.00838277 3.13569)
       0.0071             (-0.00414409 -0.00842452 3.1297)
       0.0072             (-0.00377525 -0.0083823 3.12307)
       0.0073             (-0.00339414 -0.00831659 3.11628)
       0.0074             (-0.00301574 -0.00824909 3.10935)
       0.0075             (-0.00265917 -0.00816742 3.10231)
       0.0076             (-0.00232335 -0.00811435 3.09506)
       0.0077             (-0.00199004 -0.00803913 3.08764)
       0.0078             (-0.00173006 -0.00796986 3.08011)
       0.0079             (-0.00139975 -0.00797788 3.0723)
        0.008             (-0.00110296 -0.00791712 3.06444)
       0.0081             (-0.000196461 -0.00720223 3.05679)
       0.0082             (0.000795163 -0.00638119 3.04959)
       0.0083             (0.00178713 -0.00554192 3.04263)
       0.0084             (0.00274953 -0.00470429 3.03591)
       0.0085             (0.00368522 -0.00383889 3.02941)
       0.0086             (0.00463228 -0.00295785 3.02307)
       0.0087             (0.00563128 -0.00206173 3.01707)
       0.0088             (0.00663828 -0.00116245 3.01112)
       0.0089             (0.00764385 -0.00024549 3.00524)
        0.009             (0.0085548 0.000698618 2.99982)
       0.0091             (0.0116711 0.0032242 2.98551)
       0.0092             (0.0146851 0.00552524 2.97243)
       0.0093             (0.0175212 0.00782956 2.96104)
       0.0094             (0.0204909 0.0101434 2.95086)
       0.0095             (0.0235681 0.0127888 2.94234)
       0.0096             (0.0268451 0.0155459 2.93544)
       0.0097             (0.0303362 0.0184523 2.93014)
       0.0098             (0.0339839 0.0215612 2.92617)
       0.0099             (0.0378091 0.0248166 2.92376)
         0.01             (0.0418798 0.0282589 2.92285)
       0.0101             (0.0488718 0.0336488 2.87014)
       0.0102             (0.0563865 0.0394681 2.81795)
       0.0103             (0.0641857 0.0459319 2.76973)
       0.0104             (0.0720885 0.0523458 2.72537)
       0.0105             (0.0800746 0.0587338 2.68454)
       0.0106             (0.0880663 0.0650261 2.6471)
       0.0107             (0.0959759 0.0713344 2.61307)
       0.0108             (0.103822 0.0774015 2.58255)
       0.0109             (0.111348 0.0831998 2.55536)
        0.011             (0.118721 0.0888105 2.53183)
       0.0111             (0.124853 0.0922094 2.50753)
       0.0112             (0.130768 0.0953836 2.48691)
       0.0113             (0.13629 0.0981694 2.46865)
       0.0114             (0.140952 0.100151 2.45212)
       0.0115             (0.144593 0.101477 2.44063)
       0.0116             (0.147086 0.101539 2.43268)
       0.0117             (0.149184 0.101292 2.42854)
       0.0118             (0.150505 0.100636 2.42761)
       0.0119             (0.15104 0.0993644 2.42977)
        0.012             (0.150781 0.0976141 2.43478)
       0.0121             (0.146988 0.0935712 2.44752)
       0.0122             (0.142623 0.0890051 2.46239)
       0.0123             (0.137833 0.0842189 2.47878)
       0.0124             (0.132671 0.0792824 2.49655)
       0.0125             (0.127212 0.0742811 2.51578)
       0.0126             (0.12165 0.0693502 2.53627)
       0.0127             (0.115955 0.0644251 2.55802)
       0.0128             (0.110278 0.0596813 2.58118)
       0.0129             (0.104706 0.0550462 2.60582)
        0.013             (0.099081 0.0505405 2.63199)
       0.0131             (0.0887363 0.0432021 2.65363)
       0.0132             (0.0797757 0.0369006 2.68047)
       0.0133             (0.0721384 0.0314678 2.70898)
       0.0134             (0.0645378 0.0260955 2.7411)
       0.0135             (0.0571294 0.0208334 2.77502)
       0.0136             (0.0499921 0.0157285 2.81037)
       0.0137             (0.0427777 0.010599 2.84696)
       0.0138             (0.035778 0.00552884 2.88447)
       0.0139             (0.02917 0.000644031 2.92294)
        0.014             (0.0230033 -0.00405725 2.96277)
       0.0141             (0.020172 -0.00603663 3.00085)
       0.0142             (0.0174059 -0.00784616 3.04275)
       0.0143             (0.0144756 -0.00969232 3.08617)
       0.0144             (0.0114668 -0.0116295 3.13055)
       0.0145             (0.008304 -0.0135713 3.17559)
       0.0146             (0.00500661 -0.0156236 3.22114)
       0.0147             (0.00163714 -0.0176426 3.26727)
       0.0148             (-0.00150055 -0.0195064 3.31386)
       0.0149             (-0.00467396 -0.0215549 3.36115)
        0.015             (-0.00791296 -0.0235726 3.40869)
       0.0151             (-0.00683813 -0.0220207 3.43456)
       0.0152             (-0.00508069 -0.0200775 3.45228)
       0.0153             (-0.00319778 -0.0181268 3.46646)
       0.0154             (-0.00119872 -0.0159203 3.47882)
       0.0155             (0.000921842 -0.0134893 3.49001)
       0.0156             (0.00329283 -0.0109822 3.50052)
       0.0157             (0.00624985 -0.00815237 3.51084)
       0.0158             (0.00944522 -0.00489279 3.52132)
       0.0159             (0.0132079 -0.00121897 3.532)
        0.016             (0.0177842 0.00309651 3.54291)
       0.0161             (0.0196691 0.00399952 3.54642)
       0.0162             (0.0211643 0.00441679 3.5498)
       0.0163             (0.0228903 0.00489853 3.55386)
       0.0164             (0.0250796 0.00577625 3.55865)
       0.0165             (0.0278605 0.00697488 3.56409)
       0.0166             (0.0312105 0.00847648 3.56985)
       0.0167             (0.035323 0.0102509 3.57602)
       0.0168             (0.0400228 0.0122397 3.58266)
       0.0169             (0.0452438 0.0144448 3.5896)
        0.017             (0.050997 0.0170229 3.59634)
       0.0171             (0.0576836 0.0213643 3.57977)
       0.0172             (0.0648339 0.0261222 3.55201)
       0.0173             (0.0721222 0.0309065 3.52028)
       0.0174             (0.0794462 0.0354729 3.48381)
       0.0175             (0.0869923 0.0399666 3.44506)
       0.0176             (0.0946258 0.0444562 3.4053)
       0.0177             (0.102197 0.0486074 3.36552)
       0.0178             (0.109662 0.0524194 3.3262)
       0.0179             (0.117552 0.0560011 3.28756)
        0.018             (0.125676 0.0592698 3.25008)
       0.0181             (0.129083 0.0591197 3.21738)
       0.0182             (0.131031 0.0577666 3.18805)
       0.0183             (0.132196 0.0558945 3.16249)
       0.0184             (0.133102 0.0540866 3.14109)
       0.0185             (0.133986 0.0523785 3.1234)
       0.0186             (0.135122 0.0508986 3.10934)
       0.0187             (0.136484 0.0497313 3.0987)
       0.0188             (0.138325 0.0489911 3.09144)
       0.0189             (0.140808 0.0487108 3.08765)
        0.019             (0.144021 0.0489735 3.09165)
       0.0191             (0.14136 0.0467361 3.10644)
       0.0192             (0.136131 0.0438166 3.12434)
       0.0193             (0.129567 0.0404319 3.14519)
       0.0194             (0.12219 0.0367978 3.16861)
       0.0195             (0.11424 0.0329542 3.1949)
       0.0196             (0.105763 0.0287544 3.22411)
       0.0197             (0.0967238 0.0241937 3.25648)
       0.0198             (0.0870324 0.0193129 3.29211)
       0.0199             (0.0764828 0.0139077 3.33096)
         0.02             (0.0649979 0.00790512 3.37298)
       0.0201             (0.0564226 0.00431254 3.40731)
       0.0202             (0.0494792 0.0025988 3.43492)
       0.0203             (0.0434684 0.00159347 3.45737)
       0.0204             (0.0385263 0.00123403 3.4759)
       0.0205             (0.0344099 0.0014577 3.49129)
       0.0206             (0.0312205 0.00220269 3.50399)
       0.0207             (0.0289127 0.00362084 3.51429)
       0.0208             (0.0276634 0.00558227 3.52213)
       0.0209             (0.0273432 0.00839629 3.52755)
        0.021             (0.0280738 0.0117594 3.53076)
       0.0211             (0.029915 0.016093 3.51941)
       0.0212             (0.0338823 0.0212871 3.49716)
       0.0213             (0.0390024 0.0275299 3.4662)
       0.0214             (0.0455381 0.034164 3.42796)
       0.0215             (0.0531024 0.0416687 3.38414)
       0.0216             (0.0614978 0.0496508 3.33546)
       0.0217             (0.0701587 0.0577712 3.28185)
       0.0218             (0.0793769 0.0659977 3.22345)
       0.0219             (0.0890543 0.0748659 3.1644)
        0.022             (0.0986359 0.0836015 3.10031)
       0.0221             (0.10595 0.0900743 3.03131)
       0.0222             (0.11181 0.0950886 2.96075)
       0.0223             (0.116735 0.0990264 2.88914)
       0.0224             (0.120784 0.101984 2.81711)
       0.0225             (0.123978 0.103711 2.74526)
       0.0226             (0.125986 0.104819 2.67439)
       0.0227             (0.127469 0.105367 2.60337)
       0.0228             (0.128271 0.105445 2.53259)
       0.0229             (0.128404 0.105145 2.46231)
        0.023             (0.12803 0.104502 2.39271)
       0.0231             (0.125335 0.102209 2.32529)
       0.0232             (0.121541 0.098998 2.26024)
       0.0233             (0.116913 0.0952296 2.19803)
       0.0234             (0.111811 0.0911006 2.13875)
       0.0235             (0.106405 0.0868861 2.08255)
       0.0236             (0.100867 0.0825425 2.02913)
       0.0237             (0.0954408 0.0780582 1.97803)
       0.0238             (0.090174 0.0735866 1.93109)
       0.0239             (0.0851907 0.0693924 1.88844)
        0.024             (0.0804166 0.0656035 1.84964)
       0.0241             (0.0734703 0.0604857 1.82139)
       0.0242             (0.065551 0.0551055 1.79888)
       0.0243             (0.0571441 0.049446 1.77898)
       0.0244             (0.0485762 0.0437716 1.761)
       0.0245             (0.0401972 0.038102 1.74458)
       0.0246             (0.0321267 0.0327314 1.72934)
       0.0247             (0.0245156 0.0277246 1.71502)
       0.0248             (0.0172721 0.0229251 1.70134)
       0.0249             (0.0101026 0.0182925 1.68816)
        0.025             (0.00287233 0.0137295 1.67526)
       0.0251             (-0.00243439 0.0114652 1.6657)
       0.0252             (-0.00602643 0.0108084 1.65826)
       0.0253             (-0.0082372 0.0111019 1.6529)
       0.0254             (-0.00920543 0.0122623 1.64916)
       0.0255             (-0.00892245 0.0143766 1.64684)
       0.0256             (-0.00766595 0.0175436 1.64558)
       0.0257             (-0.00502932 0.0213873 1.64543)
       0.0258             (-0.000831883 0.0263819 1.64716)
       0.0259             (0.00448448 0.0322588 1.65029)
        0.026             (0.0107186 0.038658 1.65469)
       0.0261             (0.0162625 0.0434406 1.65969)
       0.0262             (0.0222032 0.0479278 1.66525)
       0.0263             (0.028764 0.0524408 1.67156)
       0.0264             (0.0358492 0.0569451 1.67848)
       0.0265             (0.0434604 0.0614168 1.68548)
       0.0266             (0.0513151 0.0658716 1.6928)
       0.0267             (0.0593827 0.0700867 1.70024)
       0.0268             (0.0676129 0.0737234 1.708)
       0.0269             (0.0759264 0.0771918 1.71588)
        0.027             (0.0841882 0.0804057 1.72363)
       0.0271             (0.0904475 0.0823688 1.72597)
       0.0272             (0.0953332 0.0832936 1.72454)
       0.0273             (0.0992293 0.0834003 1.72059)
       0.0274             (0.102388 0.0829038 1.71494)
       0.0275             (0.104822 0.0818557 1.70796)
       0.0276             (0.106672 0.0804624 1.69993)
       0.0277             (0.108225 0.0787972 1.69088)
       0.0278             (0.10948 0.0768976 1.68097)
       0.0279             (0.110495 0.0749192 1.67041)
        0.028             (0.111515 0.0730135 1.65963)
       0.0281             (0.110913 0.0704473 1.65097)
       0.0282             (0.10997 0.0678784 1.64378)
       0.0283             (0.108856 0.0652995 1.63825)
       0.0284             (0.107631 0.0627694 1.63413)
       0.0285             (0.10633 0.060274 1.63133)
       0.0286             (0.105019 0.0579261 1.62982)
       0.0287             (0.103769 0.055683 1.62951)
       0.0288             (0.102619 0.0534937 1.63033)
       0.0289             (0.101616 0.051332 1.63229)
        0.029             (0.100812 0.049147 1.63538)
       0.0291             (0.0989537 0.046557 1.63928)
       0.0292             (0.096893 0.0439965 1.64457)
       0.0293             (0.0949097 0.0414673 1.65112)
       0.0294             (0.0931289 0.0390651 1.65879)
       0.0295             (0.0916148 0.0370244 1.66708)
       0.0296             (0.0904165 0.0353298 1.67603)
       0.0297             (0.0895286 0.0341021 1.6853)
       0.0298             (0.0890392 0.0332311 1.69508)
       0.0299             (0.0890506 0.0327112 1.70538)
         0.03             (0.0896037 0.0325337 1.71625)
       0.0301             (0.0908622 0.0332683 1.72728)
       0.0302             (0.0931207 0.0347967 1.73818)
       0.0303             (0.0962316 0.0368671 1.74893)
       0.0304             (0.100145 0.0393451 1.75937)
       0.0305             (0.104704 0.0420029 1.76947)
       0.0306             (0.109864 0.0448422 1.77921)
       0.0307             (0.115519 0.047716 1.78833)
       0.0308             (0.121677 0.0507074 1.79739)
       0.0309             (0.128281 0.0537156 1.8061)
        0.031             (0.135287 0.0567024 1.81422)
       0.0311             (0.140986 0.0579777 1.81973)
       0.0312             (0.146295 0.058278 1.82338)
       0.0313             (0.151497 0.0579153 1.82563)
       0.0314             (0.156746 0.0570825 1.82672)
       0.0315             (0.162123 0.0558467 1.82687)
       0.0316             (0.167712 0.0542889 1.82626)
       0.0317             (0.173552 0.0524376 1.82504)
       0.0318             (0.179638 0.05039 1.82332)
       0.0319             (0.186049 0.0481894 1.82119)
        0.032             (0.1928 0.0458552 1.81874)
       0.0321             (0.19731 0.0435707 1.81566)
       0.0322             (0.200665 0.0414785 1.8122)
       0.0323             (0.20317 0.0394772 1.80856)
       0.0324             (0.205032 0.0375539 1.80487)
       0.0325             (0.206475 0.0356871 1.80121)
       0.0326             (0.207633 0.0338577 1.79771)
       0.0327             (0.208576 0.0320115 1.79448)
       0.0328             (0.209403 0.0302204 1.79164)
       0.0329             (0.210163 0.0285462 1.78919)
        0.033             (0.210873 0.0269901 1.78716)
       0.0331             (0.210035 0.0249798 1.7851)
       0.0332             (0.208564 0.0228425 1.7835)
       0.0333             (0.206816 0.0206874 1.78233)
       0.0334             (0.204995 0.0186384 1.78175)
       0.0335             (0.203286 0.0167398 1.78176)
       0.0336             (0.201773 0.0149968 1.78219)
       0.0337             (0.200483 0.0134025 1.78318)
       0.0338             (0.199457 0.0119826 1.78472)
       0.0339             (0.198759 0.0107328 1.78683)
        0.034             (0.198381 0.00965433 1.78949)
       0.0341             (0.197639 0.00934296 1.79194)
       0.0342             (0.197042 0.00959508 1.79486)
       0.0343             (0.196653 0.0102323 1.79818)
       0.0344             (0.19653 0.0111898 1.80188)
       0.0345             (0.19682 0.0123524 1.80594)
       0.0346             (0.197516 0.0136929 1.81031)
       0.0347             (0.198643 0.015236 1.81495)
       0.0348             (0.200203 0.0168903 1.81985)
       0.0349             (0.202222 0.0186566 1.82502)
        0.035             (0.204716 0.0205719 1.83047)
       0.0351             (0.2068 0.0219389 1.83527)
       0.0352             (0.20895 0.0230944 1.83957)
       0.0353             (0.211301 0.0241187 1.84355)
       0.0354             (0.213913 0.0250312 1.84729)
       0.0355             (0.216834 0.0258638 1.85086)
       0.0356             (0.220079 0.0266095 1.85429)
       0.0357             (0.22367 0.0272941 1.85763)
       0.0358             (0.227597 0.0278932 1.8609)
       0.0359             (0.231865 0.0284236 1.86413)
        0.036             (0.236449 0.0288544 1.86735)
       0.0361             (0.239817 0.0287642 1.87021)
       0.0362             (0.242683 0.0283878 1.87255)
       0.0363             (0.245179 0.0277594 1.87446)
       0.0364             (0.247408 0.0269889 1.87606)
       0.0365             (0.249439 0.0261188 1.87743)
       0.0366             (0.251324 0.0251851 1.87862)
       0.0367             (0.25314 0.0242248 1.87968)
       0.0368             (0.254883 0.0232435 1.88066)
       0.0369             (0.256563 0.0222669 1.8816)
        0.037             (0.258194 0.0213088 1.88253)
       0.0371             (0.25854 0.0203111 1.88314)
       0.0372             (0.258159 0.0193795 1.88365)
       0.0373             (0.257223 0.0185169 1.88412)
       0.0374             (0.255875 0.0177285 1.88456)
       0.0375             (0.254235 0.0170382 1.88502)
       0.0376             (0.252402 0.016445 1.88551)
       0.0377             (0.250426 0.0159527 1.88604)
       0.0378             (0.248359 0.0155507 1.88664)
       0.0379             (0.24625 0.0152283 1.88733)
        0.038             (0.244148 0.0149857 1.88811)
       0.0381             (0.241631 0.014892 1.88894)
       0.0382             (0.239031 0.0149233 1.89)
       0.0383             (0.23644 0.0150491 1.89129)
       0.0384             (0.233845 0.0152791 1.8928)
       0.0385             (0.231307 0.0156078 1.89455)
       0.0386             (0.228873 0.0160444 1.89656)
       0.0387             (0.226566 0.0165782 1.8988)
       0.0388             (0.224419 0.0172317 1.9013)
       0.0389             (0.222527 0.0180019 1.90399)
        0.039             (0.220803 0.0188854 1.9069)
       0.0391             (0.218934 0.0197221 1.90974)
       0.0392             (0.21714 0.020599 1.91276)
       0.0393             (0.215494 0.0215211 1.91596)
       0.0394             (0.214047 0.022496 1.91936)
       0.0395             (0.21282 0.0234937 1.92294)
       0.0396             (0.211819 0.0245256 1.9267)
       0.0397             (0.211046 0.0255922 1.93062)
       0.0398             (0.210568 0.0266923 1.93472)
       0.0399             (0.21038 0.0278207 1.93899)
         0.04             (0.210487 0.0289433 1.94339)
       0.0401             (0.21017 0.029751 1.9473)
       0.0402             (0.209731 0.0303962 1.95095)
       0.0403             (0.209228 0.0309267 1.95441)
       0.0404             (0.208697 0.0313856 1.9577)
       0.0405             (0.208152 0.0317841 1.96087)
       0.0406             (0.20747 0.0322149 1.9638)
       0.0407             (0.206725 0.033038 1.9666)
       0.0408             (0.206017 0.0338766 1.96946)
       0.0409             (0.205353 0.0347346 1.97241)
        0.041             (0.20474 0.0356299 1.97545)
       0.0411             (0.203148 0.0364351 1.97781)
       0.0412             (0.201011 0.0372406 1.9797)
       0.0413             (0.198442 0.0380358 1.98118)
       0.0414             (0.195551 0.0387292 1.98229)
       0.0415             (0.192429 0.0393242 1.98304)
       0.0416             (0.189157 0.0398714 1.98345)
       0.0417             (0.185849 0.0403837 1.98355)
       0.0418             (0.182538 0.041016 1.98331)
       0.0419             (0.179286 0.0415806 1.98284)
        0.042             (0.176109 0.0420749 1.98214)
       0.0421             (0.172319 0.0425655 1.98122)
       0.0422             (0.168249 0.0430325 1.98007)
       0.0423             (0.164003 0.0435179 1.97873)
       0.0424             (0.159724 0.0440366 1.97732)
       0.0425             (0.155499 0.0445658 1.97589)
       0.0426             (0.15139 0.045127 1.97438)
       0.0427             (0.147442 0.0457274 1.97281)
       0.0428             (0.143744 0.0463672 1.97116)
       0.0429             (0.140051 0.0470539 1.96952)
        0.043             (0.136552 0.0477834 1.9679)
       0.0431             (0.132885 0.0483777 1.96655)
       0.0432             (0.129282 0.0489735 1.96535)
       0.0433             (0.125824 0.049651 1.9643)
       0.0434             (0.122509 0.0503664 1.96342)
       0.0435             (0.119394 0.0511011 1.96264)
       0.0436             (0.11649 0.0518377 1.96199)
       0.0437             (0.113812 0.0525716 1.96144)
       0.0438             (0.111354 0.0533271 1.961)
       0.0439             (0.10913 0.0540935 1.96066)
        0.044             (0.107142 0.0548734 1.96044)
       0.0441             (0.104511 0.0553864 1.96009)
       0.0442             (0.101595 0.0557525 1.95997)
       0.0443             (0.0985118 0.055993 1.96009)
       0.0444             (0.0953206 0.0561333 1.96044)
       0.0445             (0.09211 0.0561992 1.96104)
       0.0446             (0.0889153 0.0562094 1.9619)
       0.0447             (0.0857654 0.0561785 1.963)
       0.0448             (0.0826823 0.0561302 1.96432)
       0.0449             (0.0797093 0.0560799 1.96587)
        0.045             (0.0768773 0.0560526 1.96763)
       0.0451             (0.0740797 0.0559903 1.96964)
       0.0452             (0.0713338 0.0559068 1.97189)
       0.0453             (0.0686717 0.0558325 1.9744)
       0.0454             (0.0661398 0.0557758 1.9772)
       0.0455             (0.0637201 0.0557521 1.98028)
       0.0456             (0.0614168 0.0557498 1.98368)
       0.0457             (0.0592935 0.055788 1.98744)
       0.0458             (0.0573583 0.055874 1.99153)
       0.0459             (0.055578 0.0559926 1.99602)
        0.046             (0.0539756 0.0561455 2.00091)
       0.0461             (0.0524025 0.056341 2.00577)
       0.0462             (0.0508885 0.0566172 2.01055)
       0.0463             (0.0494533 0.0569585 2.01527)
       0.0464             (0.0481185 0.0573561 2.01996)
       0.0465             (0.0469122 0.0578088 2.02462)
       0.0466             (0.0458467 0.0583128 2.02924)
       0.0467             (0.0449305 0.0588695 2.03384)
       0.0468             (0.044165 0.0594878 2.03843)
       0.0469             (0.0435745 0.0601543 2.043)
        0.047             (0.0431621 0.0608749 2.04756)
       0.0471             (0.0428074 0.0615038 2.05184)
       0.0472             (0.0425576 0.0621126 2.05586)
       0.0473             (0.0424181 0.0627122 2.05965)
       0.0474             (0.0423978 0.0633359 2.06322)
       0.0475             (0.0425003 0.0639815 2.06661)
       0.0476             (0.0427251 0.0646255 2.06981)
       0.0477             (0.0430738 0.0652755 2.07285)
       0.0478             (0.0435487 0.0659363 2.07573)
       0.0479             (0.044148 0.0666052 2.07848)
        0.048             (0.0448594 0.0672724 2.08104)
       0.0481             (0.0453387 0.0676762 2.08318)
       0.0482             (0.0457045 0.0679542 2.08494)
       0.0483             (0.0459908 0.0681464 2.08644)
       0.0484             (0.0462136 0.0682658 2.08767)
       0.0485             (0.0463868 0.0683299 2.08868)
       0.0486             (0.0465208 0.0683531 2.08947)
       0.0487             (0.046619 0.0683445 2.09008)
       0.0488             (0.0466961 0.0683034 2.09051)
       0.0489             (0.0467537 0.0682274 2.09077)
        0.049             (0.046795 0.0681275 2.09089)
       0.0491             (0.0464992 0.0679401 2.09073)
       0.0492             (0.0460008 0.0677206 2.09045)
       0.0493             (0.0453755 0.0674777 2.09007)
       0.0494             (0.0446654 0.0672311 2.08961)
       0.0495             (0.0439192 0.0669857 2.08909)
       0.0496             (0.0431702 0.066751 2.08854)
       0.0497             (0.0424389 0.0665492 2.08798)
       0.0498             (0.0417296 0.0663746 2.08735)
       0.0499             (0.0410637 0.0662322 2.08667)
         0.05             (0.0404676 0.0661265 2.08598)
       0.0501             (0.0398472 0.066042 2.08531)
       0.0502             (0.0392961 0.0660138 2.08475)
       0.0503             (0.0388086 0.0660332 2.08431)
       0.0504             (0.0383841 0.0660892 2.08398)
       0.0505             (0.0380269 0.0661878 2.08377)
       0.0506             (0.0377412 0.0663161 2.08366)
       0.0507             (0.0375256 0.0664934 2.08366)
       0.0508             (0.0373825 0.0666974 2.08373)
       0.0509             (0.0373126 0.0669485 2.08392)
        0.051             (0.0373188 0.0672311 2.08418)
       0.0511             (0.0371993 0.0674679 2.08442)
       0.0512             (0.0370705 0.067704 2.08476)
       0.0513             (0.0369367 0.0679461 2.08522)
       0.0514             (0.0368231 0.0681997 2.08578)
       0.0515             (0.0367332 0.0684635 2.08646)
       0.0516             (0.036682 0.0687416 2.08723)
       0.0517             (0.0366666 0.069038 2.08812)
       0.0518             (0.0367051 0.0693528 2.08912)
       0.0519             (0.0367967 0.0696841 2.09023)
        0.052             (0.03696 0.0700406 2.09145)
       0.0521             (0.0369194 0.070237 2.09295)
       0.0522             (0.0368165 0.0703604 2.09461)
       0.0523             (0.0366371 0.0704374 2.09642)
       0.0524             (0.0364134 0.0704767 2.09836)
       0.0525             (0.0361589 0.0704878 2.10046)
       0.0526             (0.035883 0.070481 2.1027)
       0.0527             (0.0355839 0.0704471 2.10511)
       0.0528             (0.0352607 0.0703907 2.10768)
       0.0529             (0.0349201 0.0703164 2.11039)
        0.053             (0.0345646 0.0702232 2.11322)
       0.0531             (0.0339755 0.0700271 2.11613)
       0.0532             (0.0332501 0.0698001 2.11909)
       0.0533             (0.0324347 0.0695502 2.12211)
       0.0534             (0.0315683 0.0692732 2.12522)
       0.0535             (0.0306713 0.0689752 2.12841)