/*--------------------------------*- C++ -*----------------------------------*\
| =========                 |                                                 |
| \\      /  F ield         | OpenFOAM: The Open Source CFD Toolbox           |
|  \\    /   O peration     | Version:  5.x                                   |
|   \\  /    A nd           | Web:      www.OpenFOAM.org                      |
|    \\/     M anipulation  |                                                 |
\*---------------------------------------------------------------------------*/
FoamFile
{
    version     2.0;
    format      ascii;
    class       surfaceScalarField;
    location    "3";
    object      phi;
}
// * * * * * * * * * * * * * * * * * * * * * * * * * * * * * * * * * * * * * //

dimensions      [0 3 -1 0 0 0 0];

internalField   nonuniform List<scalar> 
29271
(
-4.19485e-06
-2.65428e-07
1.47419e-06
3.04133e-06
-5.98478e-06
1.76831e-06
-1.27592e-06
5.67651e-06
-1.7064e-05
-3.52012e-07
-2.68263e-06
4.93137e-06
-1.74886e-07
1.53422e-05
-2.05624e-05
-6.32502e-06
-2.75496e-06
-1.97851e-06
9.21161e-06
2.24093e-05
-1.53418e-05
-1.31555e-06
3.45082e-07
3.26729e-06
1.16808e-05
1.36416e-06
-2.14456e-05
8.03844e-07
-1.21501e-06
5.12049e-06
-2.38026e-07
1.69743e-05
-2.06675e-05
7.53758e-07
-7.27828e-06
5.90231e-06
-2.38628e-06
2.3676e-05
-2.09186e-05
3.53615e-06
-6.82362e-06
-1.55373e-06
-6.50159e-06
3.22614e-05
-1.54885e-05
-7.89846e-07
3.25658e-06
9.30184e-07
-8.75075e-07
1.29666e-05
-1.50849e-05
-1.49613e-06
4.696e-07
1.60337e-05
4.8158e-08
-4.6624e-06
5.60326e-07
-2.40005e-06
6.41738e-06
-1.68295e-05
-9.64026e-07
-1.07735e-06
-6.45184e-07
1.61824e-06
1.78978e-05
-1.36322e-05
3.46631e-06
1.12655e-07
6.60432e-07
-1.1278e-06
1.05206e-05
-1.32467e-05
3.45504e-06
-1.14039e-06
1.67322e-06
-6.549e-07
9.91369e-06
-1.63818e-05
-5.07407e-07
-3.18194e-06
2.95449e-06
2.18564e-07
1.68981e-05
-1.98275e-05
-2.95937e-07
-1.42755e-06
-3.53326e-07
2.19882e-05
-8.38795e-08
-1.69798e-05
-7.55217e-07
-4.23208e-07
2.59203e-07
1.70777e-05
8.21388e-07
-1.42252e-05
-4.01398e-07
-8.53114e-07
1.5392e-06
3.64941e-06
1.02911e-05
-1.51911e-05
-1.30457e-06
-1.12412e-06
1.66605e-06
3.08733e-06
1.28664e-05
-1.7256e-05
1.74373e-06
-8.30698e-07
1.61415e-05
1.66177e-06
-1.46029e-06
-6.77404e-06
9.51088e-07
-4.16274e-07
6.18179e-06
-1.69826e-05
-4.53607e-06
5.53994e-06
1.98043e-05
-3.91252e-06
-1.91711e-05
1.4787e-06
-2.44175e-06
1.41298e-06
1.97643e-05
-1.04313e-06
-6.90546e-06
2.37135e-06
1.42307e-07
4.56661e-06
-3.48354e-06
-7.70113e-07
-1.40356e-06
5.67057e-06
-4.38677e-06
1.80725e-06
-1.28709e-07
2.81672e-06
2.02488e-06
-1.83753e-06
-1.52515e-05
2.92537e-06
5.81575e-07
1.15572e-05
2.95318e-06
-1.58474e-05
-1.72634e-06
2.77297e-06
-1.44374e-06
1.32914e-05
-1.28503e-05
3.59242e-07
-1.15318e-06
-3.15276e-06
1.77601e-05
-9.63085e-07
7.43409e-07
-3.32463e-06
-1.60062e-05
1.93386e-06
-3.62971e-06
2.02833e-05
4.63687e-06
-3.39362e-05
0.000151929
-2.60168e-05
-2.27593e-05
-2.3512e-05
-2.15601e-05
2.74447e-06
-2.96826e-06
-4.34474e-06
-1.71827e-06
-4.48676e-06
-4.93601e-06
-8.12438e-06
-4.94773e-06
-6.9891e-06
-1.30525e-05
9.68317e-05
-4.07001e-05
-2.33305e-05
-8.87445e-06
-7.46325e-06
-3.49441e-06
2.80112e-06
3.54681e-06
5.36159e-06
-5.12806e-07
-2.23465e-05
6.02603e-05
3.31144e-06
2.22923e-06
9.79611e-06
5.92279e-06
-2.04322e-06
-4.46562e-08
-2.61074e-07
-9.21368e-06
-1.86033e-05
-5.95799e-06
-2.95257e-05
-2.14808e-05
-1.7247e-06
-2.39187e-07
2.29365e-05
-6.66334e-06
-8.18997e-07
4.06897e-06
3.52637e-06
-4.69598e-06
-2.04846e-05
3.82624e-06
3.28706e-06
-1.57712e-06
1.96444e-05
1.87517e-06
-2.09614e-06
1.05427e-05
-7.4315e-06
-7.10499e-06
-6.96218e-06
-6.78699e-06
-2.32226e-06
-5.76312e-06
-2.3404e-06
-5.54649e-06
1.85324e-05
-6.10031e-06
3.38711e-06
-5.53421e-06
-4.9516e-06
-5.64689e-06
-1.08638e-05
7.57727e-06
-4.69211e-06
6.79883e-05
7.34502e-06
9.51498e-06
7.65603e-06
-3.7403e-06
-4.04539e-06
-3.46717e-06
-1.41921e-05
-2.99776e-05
-2.22892e-05
-2.14918e-05
-2.78004e-05
7.18992e-06
5.9241e-06
-6.80225e-06
2.90659e-05
-1.69109e-05
-8.98498e-07
1.33353e-06
-8.44356e-07
1.17695e-05
5.55069e-06
2.98059e-05
2.35878e-06
5.66499e-06
-4.39626e-06
-3.99848e-06
-3.3051e-06
-2.97738e-06
9.03438e-06
7.14223e-07
5.70278e-06
-6.1868e-06
-5.27884e-06
-9.38105e-06
-1.98533e-05
6.9768e-06
-1.26256e-05
0.000110254
6.75455e-06
7.72583e-06
5.68108e-06
-5.33177e-06
-1.31061e-05
-6.62428e-06
-1.30065e-05
-1.72367e-05
-2.46556e-05
-2.11006e-05
-1.9599e-05
1.83885e-06
-7.57524e-06
2.762e-05
-4.2498e-06
2.20189e-06
-1.61786e-06
3.66421e-06
-1.68553e-05
-4.87195e-06
1.57838e-05
8.32878e-06
-2.36146e-05
-1.25373e-05
8.8124e-06
-6.76245e-06
2.14764e-05
-2.96327e-06
5.32837e-06
-4.17968e-06
1.81781e-06
-7.17936e-06
-3.27223e-07
-8.41652e-07
8.34823e-06
-1.16605e-06
5.0021e-06
-3.57954e-06
-2.84776e-07
2.83999e-06
-4.12169e-06
-7.76285e-06
-1.10603e-07
-6.55314e-06
1.57083e-05
6.61639e-06
-1.90708e-05
1.74981e-06
-8.01263e-08
-9.51542e-06
2.03002e-05
-2.36048e-05
4.1613e-06
-2.16198e-07
-7.79052e-06
2.83133e-05
-8.6308e-07
2.73689e-06
-5.3077e-06
-2.43977e-05
7.19972e-06
-6.54025e-06
2.6309e-05
1.75379e-05
-2.07817e-05
0.000140524
3.39277e-06
2.65936e-06
7.31483e-06
6.05552e-06
-3.16162e-06
-2.78965e-06
-5.79525e-07
1.75708e-06
-6.33849e-06
-1.52259e-05
0.000120084
2.63872e-06
4.01288e-06
3.48312e-06
5.71517e-06
-6.3281e-06
-3.05525e-05
8.08516e-05
7.47222e-06
6.01723e-06
8.07266e-06
6.85287e-06
-8.44642e-06
-5.34617e-06
-4.67158e-06
-2.86123e-05
1.21969e-05
-2.36285e-05
3.37282e-05
-1.71426e-06
5.1262e-07
7.05019e-07
5.3664e-07
-9.68827e-07
-1.78152e-05
7.99527e-06
3.1711e-06
-8.64725e-06
1.62649e-05
-7.2518e-07
-7.37172e-06
2.08562e-06
-1.15154e-06
-2.30898e-06
7.52513e-08
-8.42471e-07
-5.73265e-06
-2.44712e-05
1.76399e-05
1.74679e-06
-8.74584e-06
5.5757e-05
1.22027e-06
-3.00772e-07
2.05515e-07
-4.7292e-06
-8.28834e-06
-5.16233e-06
-2.41582e-05
1.51729e-05
8.15761e-06
-7.67049e-06
1.0245e-05
-5.71588e-06
-1.07978e-06
1.82899e-06
1.05115e-06
2.89766e-06
1.01786e-06
1.75126e-05
-7.49413e-07
-1.22134e-06
-1.16347e-06
-1.04953e-06
-8.61794e-07
-7.52314e-07
-2.96663e-06
-5.90653e-07
-9.86418e-06
5.25318e-06
-1.17255e-05
0.000124738
3.89024e-06
5.25842e-06
3.972e-06
-8.74239e-06
-1.0528e-05
-8.81999e-06
-3.06476e-05
6.68745e-06
-5.68904e-06
2.61565e-05
-6.67244e-06
5.8022e-06
-7.84828e-06
8.71806e-06
-2.30204e-06
-8.26987e-07
3.88669e-06
-1.4662e-06
-1.49839e-05
-1.18864e-05
1.67759e-05
-1.23582e-05
1.07271e-05
-2.93339e-06
4.10365e-06
-6.22181e-06
5.04006e-06
-9.43798e-06
-4.34109e-07
3.82781e-09
9.86826e-06
3.51684e-07
2.33406e-08
-1.08055e-06
6.60371e-07
5.77777e-06
5.28887e-07
-2.40289e-05
-8.89583e-07
-6.87622e-06
2.5488e-05
1.17568e-06
-2.02311e-05
1.60449e-06
-1.83317e-06
-1.41139e-06
2.06955e-05
-3.29265e-05
4.36299e-06
-1.45494e-06
-7.47151e-06
3.64863e-05
1.00361e-06
9.21899e-07
-1.38602e-06
-2.90776e-05
3.71076e-06
-2.88359e-06
2.87145e-05
1.53737e-05
-6.90461e-06
0.000123936
2.60604e-06
2.918e-06
3.26158e-06
4.39478e-06
-1.87895e-06
-1.06626e-06
-1.89366e-06
-2.22624e-07
9.05201e-06
-2.10226e-05
0.00013193
2.36314e-06
4.14333e-06
4.10941e-06
4.88273e-06
-2.71745e-06
-2.34969e-05
0.000101642
6.55449e-06
5.49996e-06
5.67555e-06
4.79528e-06
-2.30166e-06
-3.65497e-06
-2.09235e-06
-3.15044e-05
7.21118e-06
-1.00896e-05
3.16655e-05
2.98284e-07
-4.76273e-08
5.64754e-07
-8.08459e-07
-4.75635e-06
-1.77032e-05
7.88272e-06
3.47612e-06
-6.62165e-06
1.77224e-05
-1.58525e-06
-5.18467e-06
5.41007e-06
6.78772e-08
7.21774e-08
-3.02103e-06
-5.78169e-07
-4.0681e-06
-5.06978e-05
4.9798e-05
3.96154e-07
-1.29121e-05
5.33552e-05
-1.23981e-06
5.16284e-07
-5.53561e-07
-5.1009e-06
-4.06016e-06
-2.20915e-06
-1.16103e-05
5.60592e-06
1.44954e-06
-7.95078e-06
1.29018e-05
-1.26385e-06
-4.98664e-07
5.87011e-07
1.02919e-07
-4.45994e-07
1.51858e-06
-1.66975e-06
-8.42247e-07
1.27812e-06
-1.78143e-07
-3.36473e-07
-4.02067e-08
-3.23082e-07
-2.85324e-06
-5.12806e-07
-9.28188e-07
-2.27451e-06
-5.59945e-06
0.000102593
-4.0549e-06
-4.41588e-07
-1.10143e-06
-8.61375e-06
-3.75011e-06
-4.38672e-06
-2.22325e-05
5.58203e-07
-5.05528e-06
1.15429e-05
-1.2891e-05
5.56905e-06
-3.10131e-06
1.0451e-05
1.25084e-06
-5.62504e-08
-1.6132e-06
-3.88741e-07
-8.46814e-06
-1.6823e-06
7.02336e-06
-6.29861e-06
3.82624e-06
-7.2281e-06
3.49189e-06
-2.30156e-06
6.04529e-06
-1.00999e-05
-4.28386e-07
3.02625e-07
1.02257e-05
-2.93656e-06
-1.14501e-06
-1.68337e-06
5.76461e-06
2.04628e-06
1.93176e-06
-2.59014e-05
-2.92975e-06
-2.0577e-06
2.69108e-05
-1.22361e-06
-2.22136e-05
3.59927e-06
-3.31168e-06
-5.30055e-07
2.36797e-05
-3.85648e-05
3.33179e-06
-1.52244e-06
-4.14552e-06
3.95513e-05
1.34959e-06
4.75985e-06
9.69249e-07
-2.47451e-05
3.396e-07
-1.54506e-06
2.02215e-05
9.58018e-06
-4.93976e-06
0.00013007
9.091e-07
1.05029e-06
-1.90332e-06
-5.44037e-07
-2.12896e-06
-3.41497e-06
-2.27394e-06
-2.4685e-06
9.06266e-06
-2.46956e-05
0.000140774
3.05803e-06
3.73714e-06
4.56968e-06
5.00445e-06
-1.32266e-06
-1.31e-05
0.000107239
3.34037e-06
3.31896e-06
4.30737e-06
3.88349e-06
9.25638e-07
-5.33504e-07
2.64591e-06
-3.17133e-05
4.38783e-06
-5.69206e-06
3.16948e-05
9.72856e-07
-1.57116e-07
2.07551e-07
-1.05836e-06
-4.00185e-07
-1.51861e-05
2.14624e-06
4.98221e-06
-1.80016e-06
1.0258e-05
4.85704e-06
-2.45183e-06
1.16422e-05
-5.93783e-06
-2.25429e-06
-3.17432e-06
-2.21063e-06
-5.96941e-06
-2.33399e-05
5.92687e-05
-5.97882e-07
-1.55998e-06
5.10147e-05
-1.4948e-06
-3.41092e-06
-4.47479e-06
-1.37186e-06
-1.94509e-06
-1.87351e-06
-1.20881e-05
2.85195e-06
-2.02865e-07
-1.79785e-06
1.0639e-05
2.4145e-06
-3.38634e-07
3.55639e-07
3.72305e-07
-2.52773e-06
-2.76086e-07
-3.13771e-06
-1.52796e-07
5.01571e-06
-2.80091e-07
-5.26482e-07
-1.35226e-06
-5.94144e-07
-2.80568e-07
1.0808e-07
2.65435e-08
-2.49127e-07
-2.8502e-07
6.97785e-05
-4.206e-07
2.67391e-06
1.70947e-07
-9.54863e-08
2.49206e-06
2.04996e-06
-8.16807e-06
6.63979e-07
-1.34654e-06
7.04152e-06
-7.40402e-06
-2.77811e-07
-1.42734e-06
9.10966e-06
2.94824e-07
-4.77205e-07
4.64433e-07
-4.45282e-07
-2.13295e-06
-1.91206e-07
-1.12116e-06
-6.75729e-07
3.83602e-06
-3.85817e-06
-3.56138e-07
7.55629e-07
3.41611e-06
-1.01992e-05
-2.65516e-07
4.13068e-07
1.00516e-05
-8.11503e-06
-1.89733e-06
2.27453e-07
9.78491e-06
1.17155e-06
1.71371e-06
-2.65271e-05
-3.19716e-06
1.32133e-06
2.55177e-05
-1.81994e-06
-2.52059e-05
4.60593e-06
-3.31921e-06
-5.64938e-07
2.6304e-05
-4.06797e-05
2.6799e-06
-1.38587e-06
-3.20398e-06
4.13505e-05
1.23913e-06
2.30055e-06
-9.54038e-07
-1.79061e-05
1.0076e-06
-4.16964e-07
1.5969e-05
4.17214e-06
4.38799e-06
0.000135558
-2.94691e-06
-1.65368e-06
-3.35403e-06
-1.1195e-06
-1.06055e-06
-1.66777e-06
-1.18598e-06
-1.05966e-06
5.57844e-06
-1.27857e-05
0.000139442
2.80922e-06
2.88943e-06
3.41495e-06
3.59705e-06
-4.56369e-08
-1.16364e-05
0.000108038
2.96011e-06
3.10236e-06
3.5945e-06
2.07912e-06
2.8403e-06
-4.75952e-07
2.36051e-06
-2.91428e-05
9.86586e-07
3.60922e-06
-6.17572e-06
3.06771e-05
-1.63309e-08
-1.62766e-08
3.93982e-09
2.67136e-08
1.05897e-06
-1.56049e-08
3.01137e-07
-1.35051e-06
-5.90037e-07
-7.98772e-06
-1.92087e-07
1.94214e-06
9.24512e-08
6.73526e-06
-2.07847e-06
3.29885e-06
2.28589e-05
-2.39078e-06
-1.73168e-06
-2.39905e-06
-1.52758e-06
-7.01083e-06
-7.64479e-06
5.90602e-05
-2.62072e-06
-9.23222e-07
3.77571e-05
-1.85273e-06
-1.31372e-06
-7.88042e-07
5.52105e-08
1.07904e-06
9.74556e-07
-7.02985e-06
1.51971e-06
-1.66715e-06
-8.10012e-07
5.36658e-06
2.43542e-09
2.20736e-07
-1.56853e-08
-2.50483e-08
-1.93085e-07
3.08361e-06
-6.29516e-07
1.66156e-06
7.64287e-07
-4.27761e-06
-6.02327e-07
5.35768e-06
6.84828e-07
1.2472e-05
-3.55798e-06
-2.24372e-06
-2.75951e-06
-3.12148e-06
7.79265e-07
2.81404e-07
4.22086e-07
-1.07469e-06
1.19946e-06
8.28633e-05
-1.49612e-06
-4.96791e-06
-4.61957e-06
1.53129e-07
-1.27037e-06
-3.29582e-06
-8.1182e-06
-1.63838e-07
5.30447e-07
5.75368e-06
-8.08123e-06
-5.28793e-07
3.33906e-06
5.27097e-06
1.08945e-06
-1.44681e-06
2.6632e-06
-1.63145e-06
-8.43436e-06
-1.48407e-06
2.16146e-07
2.00727e-08
1.08817e-05
-4.03409e-06
-8.1689e-07
4.98731e-07
4.35225e-06
-9.8128e-06
-8.57879e-08
4.08676e-07
9.48991e-06
-1.08321e-05
-2.15549e-06
1.73305e-06
1.12546e-05
1.50953e-07
2.43124e-06
-2.42109e-05
-3.86599e-06
2.48126e-06
2.30135e-05
-2.9134e-06
-2.72291e-05
4.53659e-06
-2.85103e-06
6.04527e-07
2.78524e-05
-4.19429e-05
2.6125e-06
-1.31781e-06
-3.09251e-06
4.23348e-05
1.40595e-06
2.68969e-08
1.41244e-07
-1.36369e-05
7.12799e-07
4.34858e-07
1.23211e-05
4.13097e-06
1.03352e-05
0.000133614
-3.60528e-06
-2.31129e-06
-2.99709e-06
-1.85579e-06
-5.40432e-07
-1.304e-06
3.77206e-07
-2.85779e-07
5.96304e-06
-6.15789e-06
0.000138548
1.42135e-06
1.50601e-06
8.43291e-07
1.44964e-06
1.97925e-07
-8.81365e-06
0.000107082
2.76535e-06
2.32746e-06
3.56059e-06
2.27743e-06
1.75664e-06
1.11046e-06
1.73748e-06
-3.49037e-05
6.74235e-06
3.53699e-06
-6.28776e-07
2.54511e-05
-7.14586e-07
1.1897e-06
2.34217e-06
-3.64958e-06
3.99269e-07
4.33019e-07
1.48214e-06
2.25804e-07
1.07225e-07
-1.81447e-06
6.17269e-07
-4.68904e-06
-9.80806e-07
1.57654e-06
5.98163e-07
2.87787e-06
3.40102e-08
4.20784e-06
3.90805e-05
-3.35235e-06
-1.69854e-06
-3.26839e-06
-1.80902e-06
-6.33879e-06
-3.59278e-06
6.28679e-05
-1.80333e-06
7.32855e-07
3.30604e-05
-3.32086e-06
-2.1351e-06
-3.80216e-06
6.03843e-07
-6.91928e-07
-3.90828e-08
-5.35031e-06
-7.75816e-08
-3.05111e-06
4.221e-07
6.25358e-06
1.02497e-06
-2.0187e-06
3.87507e-06
-2.88437e-06
1.86548e-06
-1.86244e-06
4.88604e-06
-1.10246e-06
4.94092e-07
1.3828e-06
-5.09887e-06
-5.61592e-07
-6.27606e-06
8.32778e-07
2.41929e-05
1.51996e-07
-1.01433e-06
-1.93394e-08
-8.35493e-07
-9.39122e-08
4.73672e-07
-7.32434e-07
-3.72338e-06
-6.23648e-07
8.60394e-05
-3.96673e-06
-1.73166e-06
-2.40387e-06
-1.26547e-06
7.74012e-08
5.92349e-07
-3.82913e-06
-3.63467e-06
1.25151e-06
3.22176e-06
-2.89373e-06
-2.08301e-06
4.08182e-06
-1.77859e-06
2.6735e-06
-7.85615e-07
1.81606e-06
-1.26449e-06
2.34039e-07
2.68401e-06
-1.21988e-06
1.37239e-06
-2.00362e-06
-1.05437e-05
7.25023e-08
-8.1876e-07
7.42175e-07
9.92413e-06
-4.52485e-06
-2.34623e-06
2.44507e-06
4.42601e-06
-9.00999e-06
1.93416e-07
6.46828e-07
8.16974e-06
-1.17546e-05
-2.18135e-06
1.75412e-06
1.21818e-05
-6.1628e-07
2.20953e-06
-2.2302e-05
-3.4903e-06
2.30255e-06
2.18965e-05
-3.90577e-06
-2.79338e-05
4.14518e-06
-3.21688e-06
3.53363e-06
2.73777e-05
-4.24675e-05
2.5974e-06
-1.24602e-06
-3.01449e-06
4.22013e-05
1.92934e-06
-2.15004e-07
2.26081e-06
-1.16749e-05
-1.57721e-06
-7.77174e-07
1.19835e-05
5.6622e-06
1.29482e-05
0.000126313
-3.13562e-06
-3.34921e-06
-3.15421e-06
-3.46984e-06
1.01926e-06
-6.60622e-07
1.44528e-06
-4.22791e-09
9.35924e-06
6.33123e-07
0.000140488
-2.22377e-06
-7.34295e-07
-2.81444e-06
-4.97968e-07
1.77945e-06
-6.62906e-06
0.000105264
2.57449e-06
1.93026e-06
3.31132e-06
1.78061e-06
1.88287e-06
2.50506e-06
2.04143e-06
-2.48283e-05
-6.42576e-07
2.24851e-06
8.35369e-07
2.41664e-05
6.94455e-07
-1.10163e-06
-8.75896e-07
-4.75215e-07
1.44559e-06
3.12704e-07
2.03236e-06
-1.03913e-06
1.30892e-06
-2.30216e-06
-7.84731e-07
-1.13353e-06
7.11684e-08
2.3384e-06
1.81173e-08
-5.09417e-07
6.28415e-06
3.2286e-06
5.23289e-05
-3.43099e-06
-1.85295e-06
-2.64602e-06
-1.88293e-06
4.28362e-07
2.88427e-07
6.90684e-05
-1.4624e-06
-1.34264e-06
3.67964e-05
-3.11863e-06
-9.43689e-07
-2.2735e-06
2.38891e-07
-1.26013e-06
2.25397e-07
-7.39519e-06
-9.62747e-07
-2.1772e-06
7.95694e-07
8.27705e-06
3.32356e-06
-2.35632e-06
2.16617e-06
-6.53838e-07
1.91297e-06
-4.39253e-06
5.90106e-06
-1.48582e-06
8.30137e-07
1.96912e-06
-6.97093e-06
-2.43565e-07
-9.26293e-06
2.93906e-07
3.66531e-05
6.11398e-07
9.56612e-08
6.23723e-07
5.07935e-07
-1.01948e-06
3.44899e-08
-1.11628e-06
-1.71506e-06
6.20142e-07
7.96507e-05
-1.42844e-06
-1.55249e-06
-1.32294e-06
9.17423e-07
7.42207e-07
1.15339e-06
-3.50553e-06
-1.78319e-06
-1.50239e-06
3.73341e-06
-1.61804e-06
-5.69483e-07
3.11015e-06
-1.61725e-06
6.94625e-07
-6.14632e-07
-6.39105e-07
9.97349e-07
-1.92547e-07
4.48934e-07
7.52967e-07
7.96545e-07
-1.2106e-06
-4.53453e-08
-9.75473e-06
1.87233e-06
-3.34595e-06
1.39042e-06
1.04581e-05
-2.9267e-06
-2.49138e-07
2.98337e-06
1.9246e-07
-6.81769e-06
-4.94498e-07
1.87884e-06
5.43335e-06
-1.2068e-05
-1.74084e-06
2.00332e-06
1.18055e-05
-2.11346e-06
1.88598e-06
-2.16742e-05
-3.14183e-06
3.53665e-06
2.15069e-05
-5.20623e-06
-2.66143e-05
2.64361e-06
-2.45912e-06
5.74835e-06
2.58877e-05
-4.18758e-05
2.30483e-06
-1.16451e-06
-2.66751e-06
4.14233e-05
1.97971e-06
-1.89985e-06
4.12291e-06
-1.32207e-05
-3.34846e-06
-1.25231e-07
1.44713e-05
6.34747e-06
1.63736e-05
0.000117424
-3.70096e-06
-5.28698e-06
-4.1607e-06
-5.64944e-06
1.98762e-06
-1.74351e-07
2.2094e-06
9.43902e-07
1.45753e-05
6.45118e-06
0.000138336
-4.73396e-06
-2.07724e-06
-4.25954e-06
-1.45576e-06
3.04827e-06
-1.49637e-06
0.000106806
2.02841e-06
1.48958e-06
2.47088e-06
4.12218e-07
2.1439e-06
1.4726e-06
1.46447e-06
-2.95387e-05
5.36775e-07
5.95209e-06
1.04352e-06
2.50546e-05
-4.22782e-06
-6.1448e-06
3.62967e-06
4.60016e-06
2.14279e-06
2.40986e-06
-2.47226e-06
2.22248e-06
-2.16008e-06
-1.28688e-06
1.70325e-06
2.32217e-08
8.10248e-07
5.06809e-07
-1.75665e-06
1.11741e-05
3.89782e-06
5.86475e-05
-1.38771e-06
-1.38304e-06
-2.34509e-07
-2.01175e-06
1.09854e-05
2.23866e-06
7.34696e-05
2.70931e-07
-8.04062e-07
4.55567e-05
-5.55168e-07
5.38983e-07
-6.51168e-07
9.17522e-07
-1.94365e-07
1.20608e-06
-8.45653e-06
-1.17382e-06
-5.5811e-09
1.98948e-06
7.91739e-06
3.80208e-06
-4.05994e-06
-7.35855e-07
1.87028e-06
1.65169e-06
-2.52824e-06
7.49507e-06
-1.88194e-06
-4.30324e-08
1.10251e-06
-6.32807e-06
-3.44529e-07
-7.60071e-06
4.05417e-07
4.25162e-05
1.37008e-06
1.59993e-06
9.99588e-07
1.95714e-06
-5.70499e-07
1.72215e-07
-2.98386e-07
-1.53269e-06
1.23726e-06
7.5058e-05
-1.38519e-06
-1.544e-06
-1.89197e-06
1.59014e-06
1.21918e-06
1.53788e-06
-3.9726e-06
-1.65089e-06
-6.91772e-07
3.97851e-06
-1.54759e-07
-2.25498e-06
2.5422e-06
-1.32464e-07
-8.53792e-07
1.57006e-06
-2.1549e-06
1.84405e-06
-1.14242e-05
2.23776e-06
-3.1815e-06
1.051e-06
1.25542e-05
1.4462e-06
-9.38339e-07
1.3929e-06
-1.90076e-06
-4.67142e-06
-3.92724e-07
7.52543e-07
4.3116e-06
-1.15913e-05
-1.61689e-06
2.06978e-06
1.11384e-05
-3.23594e-06
1.74205e-06
-2.09092e-05
-2.12015e-06
5.36996e-06
1.91533e-05
-4.68088e-06
-2.52711e-05
1.25829e-06
-1.96901e-06
5.86914e-06
2.47935e-05
-4.08641e-05
1.80856e-06
-6.94696e-07
-1.99804e-06
3.98132e-05
1.93505e-06
-3.44084e-06
4.73301e-06
-1.48185e-05
-4.22936e-06
3.73654e-06
1.40192e-05
9.66901e-06
2.26503e-05
0.000106663
-5.93621e-06
-7.24194e-06
-6.87421e-06
-6.73954e-06
1.71413e-06
5.44388e-07
1.80563e-06
1.16949e-06
1.8498e-05
1.22645e-05
0.000132685
-5.68281e-06
-2.9858e-06
-4.90628e-06
-1.86785e-06
9.69971e-07
6.85734e-06
0.0001112
6.4147e-07
-2.23365e-07
1.15404e-06
-3.71528e-08
1.20688e-06
1.75047e-06
1.78426e-06
-2.07259e-05
-3.97494e-06
3.84148e-06
2.18293e-05
1.59038e-06
-3.11408e-06
2.26413e-06
-7.40425e-07
2.33597e-07
6.4288e-07
-3.226e-06
-1.05095e-06
2.20478e-06
1.19569e-06
1.39647e-05
8.58275e-06
6.26769e-05
-1.9013e-07
-1.58196e-06
-8.46612e-08
-2.06988e-06
1.59085e-05
5.32074e-06
7.84696e-05
6.2064e-07
1.14879e-06
5.82353e-05
1.04509e-07
9.28756e-07
6.40223e-08
2.57339e-06
1.80532e-06
2.84179e-06
-8.56369e-06
-3.02971e-06
-2.83965e-06
4.98038e-06
1.00733e-05
3.75417e-06
-8.79546e-07
-4.91042e-07
-1.56136e-06
-6.98736e-07
-1.23486e-07
-3.00499e-06
7.5813e-07
4.74262e-05
7.51113e-07
1.93182e-06
-6.05604e-08
1.93043e-06
5.01924e-07
4.7935e-07
3.85523e-07
-1.07015e-06
1.58341e-06
7.46412e-05
-1.23128e-06
-7.34952e-07
-1.36381e-06
2.05771e-06
1.51684e-06
1.97484e-06
-4.32443e-06
-2.03526e-06
9.42375e-07
5.49596e-06
-1.14578e-07
-4.51977e-06
3.69833e-06
9.36016e-07
-2.56571e-06
2.23781e-06
-2.41106e-06
3.49708e-06
-1.30714e-05
2.09299e-06
-2.53083e-06
1.55978e-06
1.35329e-05
1.84981e-06
-1.36987e-06
7.62097e-07
-1.24203e-06
-3.74672e-06
6.41689e-07
2.19362e-07
2.88566e-06
-1.01783e-05
-3.73709e-06
4.8566e-06
9.05876e-06
-4.55405e-06
2.47571e-06
-1.61314e-05
-1.64443e-06
7.38752e-06
1.24666e-05
-4.45066e-06
-2.47574e-05
1.24751e-06
-2.30243e-06
5.77337e-06
2.44897e-05
-3.87598e-05
1.04884e-06
-6.94759e-07
-9.53542e-07
3.7222e-05
2.13734e-06
-5.39745e-06
3.96552e-06
-1.33903e-05
-3.99464e-06
5.42949e-06
1.33874e-05
1.03706e-05
2.70534e-05
9.33721e-05
-7.51766e-06
-7.34276e-06
-6.91743e-06
-6.53405e-06
1.62108e-06
1.73245e-07
1.696e-06
6.88047e-07
1.76254e-05
1.56751e-05
0.000126623
-5.90045e-06
-3.19495e-06
-5.14509e-06
-2.6274e-06
2.0936e-06
1.15886e-05
0.000110537
-2.38929e-07
-1.3069e-06
-1.66626e-07
-1.6583e-06
2.77398e-06
2.05784e-06
3.14478e-06
-2.1601e-05
-2.21895e-06
4.77516e-06
2.11384e-05
-2.54334e-07
-2.97356e-06
1.93553e-06
1.29237e-06
7.45127e-07
-2.97874e-06
-4.60441e-06
-9.73904e-07
3.20256e-06
4.60937e-06
1.33887e-05
1.65597e-05
6.44143e-05
-5.12632e-07
-1.92581e-06
-1.97644e-07
-1.99637e-06
1.54338e-05
8.36851e-06
8.3731e-05
1.1455e-06
2.76788e-06
6.97954e-05
3.00299e-07
9.48564e-07
-4.51867e-08
3.51999e-06
3.43374e-06
3.39161e-06
-1.07775e-05
-3.86032e-06
-2.19917e-06
5.97714e-06
1.20053e-05
-2.05512e-06
3.88696e-09
-1.21047e-07
-2.28349e-06
4.52305e-06
-6.72699e-08
1.21688e-06
1.4315e-06
5.44995e-05
-2.89783e-07
1.82715e-06
-4.93633e-07
1.72564e-06
1.44991e-06
1.20724e-06
1.41144e-06
-4.78931e-07
1.88142e-06
7.7861e-05
-7.19494e-07
9.67162e-08
-7.61851e-07
2.37114e-06
1.81529e-06
2.16127e-06
-7.17398e-06
-1.78574e-06
1.99752e-06
9.25115e-06
-1.79802e-06
-4.60157e-06
3.57859e-06
2.821e-06
-4.10776e-06
2.67922e-06
-2.52921e-06
5.38924e-06
-1.39317e-05
1.72482e-06
-2.04734e-06
1.59327e-06
1.45424e-05
4.95944e-07
-1.31172e-06
4.80186e-07
3.35591e-07
-2.13971e-06
8.09856e-07
-4.17916e-07
1.74777e-06
-8.4468e-06
-4.40594e-06
4.57678e-06
8.27596e-06
-3.31757e-06
2.11837e-06
-9.34206e-06
-1.96615e-06
5.20734e-06
7.30007e-06
-2.95047e-06
-2.3389e-05
2.76577e-06
-3.58445e-06
5.73627e-06
2.14219e-05
-3.48605e-05
-9.98314e-07
1.75825e-07
6.89483e-07
3.25054e-05
2.4881e-06
-4.32282e-06
3.00574e-06
-1.37016e-05
-3.54523e-06
4.32646e-06
1.42374e-05
4.7573e-06
2.66057e-05
7.79343e-05
-5.97779e-06
-6.3685e-06
-5.17397e-06
-5.50874e-06
2.29448e-06
1.00388e-06
2.35767e-06
1.44777e-06
1.11617e-05
1.65735e-05
0.000120067
-5.88023e-06
-3.50082e-06
-4.78085e-06
-2.26005e-06
1.01972e-06
1.39857e-05
0.000107438
-1.46745e-06
-1.40944e-06
-4.99666e-07
-1.10791e-06
2.04472e-06
5.30143e-07
1.16511e-06
-2.05674e-05
-1.22619e-06
3.6462e-06
1.91671e-05
-2.24931e-06
-2.46189e-06
1.73171e-06
2.97949e-06
-3.49733e-07
-6.27414e-06
-3.70821e-06
-1.88873e-09
2.21419e-06
8.11978e-06
1.06274e-05
2.01823e-05
6.6443e-05
-7.16791e-07
-2.18754e-06
-1.28648e-06
-2.04186e-06
1.14847e-05
1.08559e-05
8.85912e-05
7.85542e-08
3.43182e-06
8.16709e-05
-5.14265e-07
1.33176e-08
-3.54238e-07
3.39606e-06
4.11548e-06
3.42816e-06
-1.31198e-05
-4.37933e-06
-2.19328e-06
5.71836e-06
1.40526e-05
-6.21722e-06
1.16795e-06
-4.51475e-07
-2.76815e-06
7.47099e-06
7.97906e-07
2.60129e-06
1.6102e-06
6.2115e-05
-3.21257e-07
1.86829e-06
5.57986e-08
1.86055e-06
1.8036e-06
1.3615e-06
1.72682e-06
8.29785e-08
2.12726e-06
8.25722e-05
-4.7421e-07
8.52214e-07
-4.12725e-07
2.36336e-06
2.03413e-06
2.17302e-06
-1.18444e-05
-1.0595e-06
2.45836e-06
1.39603e-05
-3.98753e-06
-3.41934e-06
2.59186e-06
4.81501e-06
-6.37511e-06
2.92067e-06
-2.59531e-06
7.65995e-06
-1.52079e-05
1.53695e-06
-1.86631e-06
1.58249e-06
1.6082e-05
-1.27853e-06
-1.29858e-06
4.74204e-07
2.1029e-06
-1.61218e-06
4.53168e-07
-4.77572e-07
1.63658e-06
-8.26114e-06
-8.54618e-07
1.21136e-06
7.9044e-06
-1.1502e-06
3.73453e-07
-6.20766e-06
-1.44396e-06
2.60826e-06
5.82011e-06
-1.80122e-06
-1.90479e-05
3.02622e-06
-3.22254e-06
4.65507e-06
1.63903e-05
-3.09544e-05
-1.77564e-06
1.43517e-06
1.25446e-06
2.84751e-05
1.56539e-06
-1.0164e-06
1.45846e-06
-1.45523e-05
-8.88839e-07
1.22567e-06
1.37735e-05
1.90663e-06
2.3954e-05
7.19488e-05
-4.2526e-06
-5.58674e-06
-2.70106e-06
-4.95135e-06
5.80128e-07
-6.70616e-08
-1.40138e-06
-1.49507e-06
6.28958e-06
1.934e-05
0.000112745
-5.33701e-06
-3.51611e-06
-4.31288e-06
-3.23536e-06
-1.12565e-07
1.65468e-05
0.000105712
-1.79979e-06
-2.22864e-06
-1.77744e-06
-2.93838e-06
1.68137e-07
-2.0467e-07
3.62067e-07
-1.74033e-05
-1.85057e-06
3.51943e-06
1.56219e-05
-3.39164e-06
-1.93566e-06
1.78426e-06
3.54305e-06
-2.55955e-06
-9.82671e-06
-1.21608e-06
2.78348e-06
-1.69338e-07
1.09882e-05
8.39353e-06
2.0356e-05
7.04388e-05
-2.83984e-06
-1.97893e-06
-2.9205e-06
-1.05201e-06
8.25372e-06
1.43727e-05
9.36983e-05
-2.65062e-08
3.52447e-06
9.23974e-05
-4.70781e-07
2.87061e-07
-4.60625e-08
3.20191e-06
4.37607e-06
3.22795e-06
-1.53831e-05
-4.06732e-06
-7.64773e-07
3.01557e-06
1.71731e-05
-8.1138e-06
1.6877e-06
-1.21964e-06
-3.13615e-06
8.6516e-06
2.13029e-06
2.81558e-06
1.23152e-06
6.89016e-05
4.74426e-07
2.03585e-06
9.60868e-07
2.01237e-06
1.60024e-06
9.25214e-07
1.51333e-06
4.48314e-07
2.43314e-06
8.87409e-05
-2.80482e-07
1.20519e-06
-1.60849e-07
2.4418e-06
2.56805e-06
2.3644e-06
-1.66328e-05
-9.96951e-08
2.60424e-06
1.81011e-05
-5.69259e-06
-1.13375e-06
5.52039e-07
6.2743e-06
-8.6557e-06
3.16047e-06
-2.83872e-06
9.56547e-06
-1.68914e-05
1.58102e-06
-1.83205e-06
1.6129e-06
1.79627e-05
-3.03907e-06
-1.27734e-06
4.93081e-07
3.82332e-06
-1.77291e-06
-2.55174e-08
-1.74688e-07
1.97311e-06
-7.31062e-06
1.79764e-06
-1.14555e-06
6.65852e-06
5.3494e-07
-1.63452e-06
-6.34784e-06
4.63107e-07
-1.90687e-07
7.175e-06
-3.87329e-07
-1.40119e-05
1.76127e-06
-2.01862e-06
2.43534e-06
1.22212e-05
-2.47013e-05
1.19096e-07
1.81935e-06
2.11345e-06
2.00735e-05
5.75959e-07
1.23601e-06
-1.98296e-06
-1.21162e-05
3.19409e-06
-1.17189e-06
1.0841e-05
3.2724e-06
2.13002e-05
7.06511e-05
-1.6403e-06
-4.59405e-06
-1.23169e-06
-3.91153e-06
-2.96711e-06
-3.00037e-06
-3.19179e-06
-2.738e-06
2.64306e-06
2.34812e-05
0.00010814
-5.1991e-06
-4.92512e-06
-4.16915e-06
-3.95282e-06
-7.6574e-07
1.83796e-05
0.000104283
-3.83365e-06
-3.37706e-06
-3.18097e-06
-2.52138e-06
-1.82149e-09
-6.52724e-07
2.61563e-08
-1.47271e-05
-1.68905e-06
1.42789e-06
1.42225e-05
-3.36937e-06
-5.83932e-08
6.09024e-07
2.81874e-06
-2.33867e-06
-1.17488e-05
1.03985e-06
2.78056e-06
-2.04948e-06
1.23165e-05
5.69996e-06
1.85874e-05
7.27314e-05
-2.81776e-06
-8.09206e-07
-1.70603e-06
5.31576e-08
6.29529e-06
1.80648e-05
9.85194e-05
3.12629e-07
3.54091e-06
0.000102173
1.14303e-07
3.49893e-07
5.28184e-07
2.84606e-06
4.32239e-06
2.88484e-06
-1.91459e-05
-1.32985e-06
4.07445e-07
4.66841e-08
2.03342e-05
-8.88054e-06
1.80661e-06
-1.69207e-06
-3.13251e-06
9.06834e-06
2.83017e-06
1.54585e-06
5.19371e-07
7.55752e-05
1.23123e-06
2.22327e-06
1.77452e-06
2.26698e-06
1.10287e-06
2.56473e-07
9.93254e-07
3.94187e-07
2.97699e-06
9.52779e-05
-1.96547e-07
1.26921e-06
-4.16894e-08
2.68275e-06
3.23921e-06
2.74954e-06
-2.03889e-05
4.81039e-07
2.67922e-06
2.11637e-05
-7.00964e-06
2.27879e-07
-8.9345e-07
7.67521e-06
-1.02192e-05
3.33122e-06
-3.18303e-06
1.05904e-05
-1.89813e-05
1.78413e-06
-1.81284e-06
1.82568e-06
2.01613e-05
-4.71198e-06
-1.1128e-06
4.04486e-07
5.42029e-06
-2.16262e-06
-3.35003e-07
1.79577e-07
2.31805e-06
-6.08589e-06
3.11224e-06
-2.77858e-06
5.75223e-06
1.01469e-06
-2.6379e-06
-7.95897e-06
1.80312e-06
-6.8771e-07
8.46676e-06
-8.14572e-07
-1.13534e-05
1.05887e-07
-1.18654e-06
2.22909e-06
1.10196e-05
-1.64502e-05
6.51937e-07
-1.47749e-06
1.21461e-06
1.44261e-05
1.63511e-06
2.21828e-06
-3.20237e-06
-1.00571e-05
3.80358e-06
-2.14249e-06
9.38008e-06
1.29561e-06
1.98836e-05
7.05655e-05
-1.36708e-06
-3.97709e-06
-1.33451e-06
-3.58446e-06
-3.20633e-06
-2.71298e-06
-2.94508e-06
-1.96605e-06
-3.47473e-06
2.40493e-05
0.000104993
-4.53893e-06
-4.39736e-06
-3.82239e-06
-3.37361e-06
-1.70626e-06
1.72502e-05
9.56189e-05
-3.16032e-06
-9.22883e-07
-2.08289e-06
1.40179e-07
-1.18646e-06
-1.82495e-06
-1.31761e-06
-1.41368e-05
1.97927e-06
-2.95794e-06
1.34092e-05
-2.21765e-06
1.50478e-06
-1.06903e-06
1.78189e-06
-7.94549e-07
-1.27311e-05
2.07853e-06
1.18946e-06
-2.81823e-06
1.30759e-05
3.89181e-06
1.42897e-05
7.4249e-05
-1.08127e-06
2.37184e-07
3.6342e-08
9.92185e-07
4.11549e-06
1.87793e-05
0.000103566
9.42016e-08
3.14446e-06
0.000109758
5.0607e-07
2.84251e-07
7.84156e-07
2.5126e-06
4.12564e-06
2.32913e-06
-2.03817e-05
1.62264e-06
1.01864e-06
-1.67705e-06
1.95116e-05
-9.10432e-06
2.54586e-06
-2.50998e-06
-3.22369e-06
9.21044e-06
3.0817e-06
-1.88649e-06
-3.66516e-07
8.26131e-05
2.08794e-06
2.52475e-06
2.60624e-06
2.53957e-06
1.89271e-07
-4.86308e-07
4.34239e-08
9.41188e-08
3.15053e-06
0.00010039
-4.34973e-07
7.60858e-07
-4.70471e-07
2.81447e-06
3.14064e-06
2.72549e-06
-2.31368e-05
6.24779e-07
2.45755e-06
2.32931e-05
-8.44121e-06
9.26849e-07
-1.3427e-06
8.85706e-06
-1.08297e-05
3.46287e-06
-3.61868e-06
1.0619e-05
-2.13493e-05
2.1712e-06
-2.05907e-06
2.05544e-06
2.23323e-05
-6.08892e-06
-7.38694e-07
3.15209e-07
6.5124e-06
-2.46147e-06
-5.27235e-07
3.83339e-07
2.60536e-06
-5.58414e-06
3.24471e-06
-3.20808e-06
5.54751e-06
9.50497e-07
-2.77771e-06
-8.85448e-06
2.09108e-06
-6.01877e-07
9.19249e-06
-1.07965e-06
-1.10985e-05
-3.60495e-07
-1.09114e-06
2.3467e-06
1.12831e-05
-1.37281e-05
9.82433e-07
-3.62715e-06
4.76788e-07
1.34651e-05
2.43093e-06
2.81443e-06
-2.43042e-06
-8.81308e-06
2.90725e-06
-3.08394e-06
8.60576e-06
-3.36613e-06
1.71715e-05
7.21035e-05
-1.26426e-06
-3.62718e-06
-1.10358e-06
-3.14486e-06
-2.26423e-06
-1.51799e-06
-1.77987e-06
-6.41399e-07
-1.06066e-05
2.00038e-05
0.000105387
-3.80324e-06
-3.40345e-06
-3.28419e-06
-2.66677e-06
-2.61146e-06
1.02578e-05
8.37724e-05
-1.50346e-06
1.31877e-06
-8.33611e-07
1.46108e-06
-2.18326e-06
-2.63386e-06
-2.0321e-06
-1.29281e-05
3.66164e-06
-5.44556e-06
1.21005e-05
-1.57549e-06
2.41804e-06
-2.47773e-06
1.63518e-06
8.27679e-07
-1.31578e-05
3.13405e-06
-1.69434e-07
-3.63501e-06
1.30005e-05
2.01225e-06
6.8304e-06
7.98181e-05
-7.14011e-08
7.37582e-07
5.49634e-07
1.54397e-06
-1.4036e-06
1.67175e-05
0.000110268
-1.82029e-08
2.70231e-06
0.000109487
3.96075e-07
3.60063e-07
7.64442e-07
1.22662e-06
3.02575e-06
6.68295e-07
-1.83813e-05
3.95997e-06
1.8326e-06
-4.44724e-06
1.70178e-05
-9.03644e-06
3.68509e-06
-3.57938e-06
-3.2505e-06
8.72994e-06
3.45129e-06
-5.20514e-06
-1.07386e-06
8.63504e-05
2.94361e-06
2.84574e-06
3.78745e-06
2.85533e-06
-1.04572e-06
-9.91186e-07