/*--------------------------------*- C++ -*----------------------------------*\
| =========                 |                                                 |
| \\      /  F ield         | OpenFOAM: The Open Source CFD Toolbox           |
|  \\    /   O peration     | Version:  5.x                                   |
|   \\  /    A nd           | Web:      www.OpenFOAM.org                      |
|    \\/     M anipulation  |                                                 |
\*---------------------------------------------------------------------------*/
FoamFile
{
    version     2.0;
    format      ascii;
    class       volVectorField;
    location    "3";
    object      U;
}
// * * * * * * * * * * * * * * * * * * * * * * * * * * * * * * * * * * * * * //

dimensions      [0 1 -1 0 0 0 0];

internalField   nonuniform List<vector> 
10571
(
(0.120763 0.319289 1.09379)
(0.138641 -0.0953423 0.836703)
(0.427526 -0.0879603 1.26543)
(0.059966 0.716253 1.93315)
(-0.00682201 0.187063 1.12396)
(0.139868 -0.161517 1.34436)
(0.709522 -0.334742 2.15025)
(0.570166 -0.933969 1.77954)
(0.081045 -0.169778 1.34473)
(-0.00629874 0.0648027 1.16349)
(0.0495198 -0.140372 1.17901)
(-0.0668201 0.234622 1.14236)
(-0.00695395 -0.317579 1.14712)
(0.243445 -0.320853 1.21261)
(0.562252 0.118277 1.30683)
(-0.00716071 0.0066761 1.16611)
(-0.0578385 0.0159879 1.07737)
(0.0664236 0.433895 1.21098)
(0.248797 0.452845 1.28798)
(0.346459 -0.0540142 1.20878)
(0.00570093 -0.0939975 0.79394)
(0.703628 0.336363 1.5018)
(-0.315459 0.232861 1.09544)
(0.0567712 -0.21798 0.913211)
(0.102784 -0.0769393 1.31851)
(0.107092 -0.00955108 0.460951)
(0.194457 -0.0414044 1.36148)
(0.169177 -0.289375 0.625101)
(-0.0359829 -0.252616 1.2311)
(0.380074 -0.346205 0.997269)
(0.629414 -0.986059 3.31355)
(-0.244643 -0.408931 1.26108)
(-0.0318931 -0.336951 0.769291)
(-0.0409036 0.279201 1.56656)
(0.275777 0.191937 1.23644)
(0.51157 -0.306038 1.77542)
(0.153162 -0.163402 0.433112)
(0.051394 -0.0312697 0.315875)
(0.80421 -0.436657 1.48186)
(0.440009 -0.58664 1.2822)
(0.0787835 -0.292664 1.19693)
(0.458245 -0.01667 0.465088)
(0.914187 -0.321265 2.24351)
(0.410563 -0.234674 1.78941)
(0.0859907 -0.141148 0.383746)
(1.07077 0.0728288 1.01758)
(0.886552 -0.849035 1.49185)
(0.391141 -0.129691 0.535815)
(0.0544629 -0.0295094 1.04883)
(0.154421 -0.279707 0.0505411)
(0.0964822 -0.646457 0.633869)
(-0.112299 -0.940053 0.983854)
(0.0107781 -0.47288 0.951487)
(0.84383 -0.512147 1.32632)
(0.341397 -0.924919 1.48528)
(0.143584 -0.568849 1.43668)
(-0.346915 -0.722381 0.807584)
(-0.399554 -1.24957 1.87993)
(0.0592777 -0.0992753 0.259212)
(0.301587 -0.670776 0.753729)
(0.0947301 -0.165406 0.144076)
(-0.0960628 -0.0991207 -0.0508438)
(-0.144935 -0.400732 0.480667)
(0.247392 -0.697883 1.03858)
(0.219666 0.191779 0.274558)
(0.116409 -0.171085 -0.0321571)
(0.699797 -0.988186 1.13088)
(0.457113 -0.64407 1.25447)
(0.4349 -0.503291 0.70389)
(0.0400828 -0.129729 -0.0388453)
(1.01833 -0.749576 0.558449)
(0.529912 -0.142732 0.418539)
(0.0642668 -0.0305334 1.3888)
(-0.0702568 -0.100993 0.0017943)
(-0.116537 -0.825652 1.0518)
(-0.19662 -0.175673 0.841981)
(-0.0798409 -0.430937 1.37078)
(0.372113 -0.00505384 1.26058)
(0.195499 -0.238801 1.06437)
(0.376483 -0.411921 1.38901)
(-0.0846731 -0.517849 1.21338)
(-0.258663 -0.706254 1.79185)
(0.0279187 0.0322151 -0.162481)
(0.646657 -1.04805 1.24728)
(0.013259 -0.156596 0.00259452)
(-0.0647076 -0.530347 0.54048)
(-0.173756 -0.610229 0.654242)
(0.0796733 -0.672194 0.816184)
(0.0821762 -0.0360981 0.0279423)
(-0.0147492 -0.112673 -0.0626205)
(-0.0725748 -1.16626 1.62006)
(-0.0661015 -0.884715 1.12582)
(0.274753 -0.694811 1.8329)
(-0.0761655 -0.0921944 -0.0845036)
(0.303237 -0.352469 0.334266)
(0.0818071 -0.23251 0.953252)
(0.0709076 -0.0276403 1.46919)
(-0.0818065 0.111951 0.312965)
(-0.212774 -0.217315 1.16277)
(-0.350086 0.0747545 1.00826)
(-0.0970606 -0.293847 1.5559)
(-0.0891236 -0.190201 0.887402)
(0.159992 -0.0480681 1.4559)
(0.219792 -0.360723 1.36454)
(0.0358292 -0.268278 1.10659)
(-0.266164 -0.46021 1.53946)
(0.00766336 0.053206 -0.277896)
(0.146513 -0.381992 0.689241)
(0.211245 -0.0993765 0.171022)
(-0.0145454 -0.589971 0.72986)
(-0.260921 -0.276679 0.827701)
(0.0198499 -0.189661 0.407547)
(0.0413537 0.0710094 -0.225935)
(0.0252598 -0.0455777 0.0687374)
(-0.126044 -0.195077 0.658216)
(0.00202577 -0.137355 0.441449)
(0.0538395 0.047877 1.25654)
(0.0909855 0.00159073 -0.037814)
(-0.0341428 0.00444924 0.11585)
(-0.0818914 0.0457056 0.14247)
(0.0638397 -0.0322838 1.44856)
(-0.130412 0.12712 0.674134)
(-0.169913 -0.0994556 1.15154)
(-0.370406 0.117197 1.14909)
(-0.0901927 -0.210783 1.60263)
(0.0196784 -0.129031 0.825765)
(0.0493114 0.0224486 1.34176)
(0.0990627 -0.23785 1.42468)
(0.0651626 -0.270144 1.15412)
(-0.145883 -0.205641 1.41582)
(-0.0138996 0.00177975 -0.00214917)
(0.00491635 0.0339345 -0.252634)
(0.0562071 -0.0132122 0.46303)
(0.0599934 0.13048 0.104016)
(-0.120559 -0.186847 0.56224)
(-0.13958 -0.151905 0.389524)
(-0.232752 -0.161979 0.261232)
(-0.00594827 -0.00194608 -0.00202896)
(0.0638185 0.0746224 -0.185763)
(0.412512 -0.0161362 0.128957)
(-0.246935 -0.125351 1.08627)
(0.0380438 -0.00773447 0.216798)
(-0.206184 0.161345 0.409334)
(0.2124 0.0606874 -0.0432826)
(0.0902474 0.211429 0.349425)
(-0.070842 0.0343507 0.288168)
(0.0158172 -0.0366818 1.38815)
(-0.141032 0.134501 0.814979)
(-0.224839 0.0355956 1.03721)
(-0.309713 0.202181 1.2146)
(-0.0903887 -0.17601 1.6625)
(0.0595823 -0.0161628 0.534633)
(0.00101617 0.126808 1.31028)
(0.140903 -0.145696 1.42712)
(0.053238 -0.235622 1.19953)
(0.0319486 -0.0362452 1.27705)
(-0.348405 -0.0495686 0.0426146)
(0.0219598 -0.0106649 -0.243801)
(-0.0460815 0.0693009 0.175734)
(0.129504 0.206199 0.331315)
(-0.124049 -0.0715653 0.60767)
(-0.10804 -0.0694287 0.389696)
(-0.129238 0.0246651 0.258175)
(-0.253955 0.129324 -0.0497076)
(0.100082 0.0763557 -0.198822)
(0.0503155 -0.0469258 0.150243)
(-0.262003 -0.0518338 0.849703)
(-0.26666 0.109801 0.113079)
(-0.224349 0.125233 0.189849)
(-0.2816 0.017657 0.0168932)
(0.0971622 0.102244 -0.164328)
(-0.0414572 -0.046953 0.415101)
(-0.291093 0.121774 0.427516)
(-0.0426028 -0.012619 1.25601)
(-0.132092 0.0981723 0.874212)
(-0.177829 0.114361 0.967289)
(-0.297991 0.295636 1.23031)
(-0.0974086 -0.169822 1.66589)
(-0.0990289 -0.0660071 0.519867)
(-0.03198 0.201061 1.31763)
(0.23003 -0.0244165 1.44058)
(0.0804866 -0.207076 1.16935)
(0.139387 0.116193 1.21623)
(-0.00863938 0.0849457 -0.0867447)
(0.014457 0.169891 -0.316469)
(0.0563976 0.0243255 -0.00578301)
(0.186589 0.228113 0.47643)
(0.0424588 0.0420449 0.687812)
(-0.0258868 -0.0242588 0.349252)
(-0.147672 0.0970164 0.377829)
(-0.122341 0.15072 -0.175242)
(0.118172 0.066139 -0.264937)
(-0.104299 -0.103026 0.347943)
(-0.239911 -0.030682 0.88827)
(-0.0605175 -0.120072 0.156125)
(-0.162293 0.112698 0.0744754)
(-0.0788341 -0.00231112 0.0363615)
(-0.055087 0.0841904 -0.02396)
(-0.167263 0.059198 0.393239)
(-0.254791 0.0392183 0.147915)
(0.0770091 0.022499 0.851007)
(-0.105527 0.0717114 0.87694)
(-0.175476 0.262037 0.952299)
(-0.157398 0.398591 1.15582)
(-0.0874427 -0.151077 1.63181)
(-0.242635 0.0790026 0.630899)
(-0.0706326 0.264808 1.24264)
(0.290172 0.0956706 1.44079)
(0.208522 -0.0952623 1.18042)
(0.200371 0.189152 1.14186)
(0.511099 0.259684 0.155904)
(0.00992455 0.357232 -0.337953)
(0.0546861 0.0919426 -0.111278)
(0.148596 0.277304 0.568328)
(0.229349 0.11684 0.742998)
(0.150678 0.0421516 0.451206)
(-0.0518834 0.143725 0.42366)
(0.105089 0.160495 -0.12521)
(0.102615 0.0520149 -0.294528)
(-0.0759097 -0.124732 0.439951)
(-0.206208 -0.0259712 0.837059)
(-0.0554122 -0.0927142 0.173584)
(-0.103669 0.157674 -0.0273528)
(-0.119546 0.103772 0.0749706)
(-0.170874 0.11406 0.473668)
(-0.058221 0.0724009 -0.162768)
(0.0867953 -0.0392808 0.644779)
(-0.102717 0.0497002 0.829959)
(-0.149329 0.3337 0.904016)
(-0.0772628 0.381947 1.09981)
(-0.0853373 -0.103286 1.58193)
(-0.34827 0.296107 0.641807)
(-0.007156 0.378772 1.11759)
(0.340545 0.224574 1.37884)
(0.297101 0.0964479 1.19345)
(0.13556 0.264356 1.06049)
(0.00563097 0.44549 -0.172381)
(-0.0770322 0.263746 0.00762707)
(0.1467 0.377307 0.627862)
(0.329754 0.189278 0.779605)
(0.231189 0.165918 0.576367)
(0.0137773 0.35007 0.356496)
(0.0132571 -0.0758513 -0.0831867)
(-0.00493692 -0.0599209 0.467876)
(-0.100458 0.0197705 0.769754)
(-0.046983 0.0668882 0.21039)
(-0.1345 0.344778 0.00878819)
(-0.152473 0.107866 0.158293)
(-0.146797 0.127569 0.523583)
(-0.0288997 0.0735509 -0.158577)
(-0.0485195 -0.0300959 0.473872)
(-0.22947 0.242201 0.698266)
(-0.147446 0.441353 0.61378)
(-0.100881 0.381258 1.08453)
(-0.096127 -0.0357542 1.50166)
(-0.300016 0.430218 0.581213)
(0.0318676 0.455796 1.01572)
(0.328008 0.296921 1.30191)
(0.267188 0.163035 1.18236)
(0.118329 0.274215 1.07541)
(-0.00284631 0.435402 0.110436)
(-0.111126 0.361936 0.167855)
(0.125672 0.45937 0.647262)
(0.342161 0.238372 0.82917)
(0.202823 0.263803 0.678362)
(0.0652327 0.375773 0.452443)
(-0.0201572 -0.119216 0.134818)
(0.0495187 0.121062 0.529848)
(-0.00145636 0.0737415 0.794056)
(-0.024359 0.19088 0.355544)
(-0.151001 0.371482 0.205748)
(-0.178864 0.0992096 0.237621)
(-0.114994 0.135926 0.558029)
(-0.0257886 0.0550458 -0.0230266)
(-0.104308 0.00182588 0.267398)
(-0.302034 0.26345 0.599945)
(-0.124905 0.293909 0.350866)
(-0.242328 0.35732 0.992778)
(-0.0991215 0.0806952 1.30655)
(-0.241311 0.33608 0.609518)
(-0.0576232 0.462273 0.848238)
(0.222085 0.301497 1.24592)
(0.149726 0.190988 1.1435)
(0.0364923 0.147075 1.01148)
(-0.00500978 0.376664 0.383152)
(-0.000600171 0.277266 0.311563)
(0.0985595 0.453135 0.646994)
(0.280037 0.272611 0.8688)
(0.127988 0.317141 0.790005)
(-0.015742 0.396231 0.525234)
(-0.0659427 -0.15996 0.272414)
(0.055161 0.225765 0.609752)
(0.0449778 0.118742 0.840064)
(0.0191155 0.242452 0.565146)
(-0.112468 0.246164 0.405782)
(-0.191078 0.0725064 0.355523)
(-0.0988616 0.141521 0.614442)
(-0.0316009 0.0476326 0.141902)
(-0.0630705 -0.00429203 0.228798)
(-0.0785344 0.0503946 0.600772)
(-0.0300094 0.118948 0.256272)
(-0.25494 0.283412 0.778406)
(0.0146382 0.16433 1.1782)
(-0.0748004 0.0666875 0.632673)
(-0.0469767 0.3985 0.719969)
(0.11345 0.344223 1.17144)
(0.0836003 0.274477 1.10173)
(-0.0579522 0.164077 0.825181)
(0.00590201 0.288411 0.507206)
(0.190601 0.0723678 0.458353)
(0.0920607 0.428294 0.679207)
(0.209631 0.326336 0.917931)
(0.0852505 0.329093 0.919733)
(-0.00986382 0.319084 0.634643)
(-0.0942748 -0.200978 0.327608)
(0.0414078 0.250529 0.688575)
(0.0696137 0.181983 0.897443)
(0.0498399 0.255201 0.760121)
(0.00232831 0.0994298 0.548632)
(-0.206593 0.0241669 0.460272)
(-0.0944057 0.144371 0.685375)
(-0.0314448 0.0428243 0.303039)
(-0.00246076 -0.0100776 0.266576)
(0.0893477 -0.0746669 0.511061)
(0.120016 -0.0109842 0.298826)
(-0.204453 0.0720593 0.564168)
(0.034717 0.0964837 0.863854)
(0.197904 -0.111067 0.503355)
(0.0474414 0.340514 0.697706)
(0.0711466 0.41933 1.09074)
(0.00024242 0.336483 1.11296)
(-0.0828838 0.108929 0.732868)
(0.0256654 -0.0513964 0.444214)
(0.174489 -0.11289 0.527229)
(0.0641429 0.400964 0.72425)
(0.145894 0.389092 0.973861)
(0.0794831 0.334918 1.01989)
(0.0182523 0.119957 0.788867)
(-0.0968823 -0.200766 0.349146)
(0.00422545 0.220234 0.756647)
(0.0597542 0.243193 0.966621)
(0.0544614 0.261597 0.907154)
(0.0801677 0.037786 0.6733)
(-0.219202 -0.035685 0.527229)
(-0.0931522 0.170851 0.768987)
(-0.0191898 0.0280349 0.458548)
(0.0474957 -0.00856947 0.320562)
(0.184122 -0.170388 0.426362)
(0.200035 -0.0449562 0.361842)
(-0.0729916 0.0962979 0.486323)
(-0.120839 0.0148368 0.591343)
(0.256875 -0.160625 0.425598)
(0.0551446 0.333922 0.700154)
(-0.00676576 0.437203 1.06075)
(-0.130739 0.302349 1.07442)
(-0.10297 -0.17528 0.704584)
(0.00771832 -0.234685 0.280042)
(0.115494 -0.168084 0.571813)
(0.0435222 0.362296 0.734865)
(0.104031 0.388419 1.01172)
(0.0458663 0.323228 1.1217)
(-0.00180674 -0.0827491 0.791522)
(-0.140709 -0.196175 0.353979)
(-0.058267 0.117126 0.829611)
(-0.00270163 0.261408 1.02878)
(0.0575469 0.232824 1.00743)
(0.101146 -0.039156 0.800028)
(-0.235758 -0.07619 0.544559)
(-0.116929 0.184224 0.858191)
(0.00560485 0.00223177 0.575612)
(0.0788156 -0.00726331 0.362171)
(0.190622 -0.190548 0.403402)
(0.213323 -0.0377364 0.396128)
(-0.0274375 0.115386 0.490943)
(-0.207757 -0.0135656 0.528985)
(0.204239 -0.214151 0.381014)
(0.0307717 0.317368 0.711754)
(-0.135653 0.348339 1.04234)
(-0.248433 0.121793 0.929823)
(-0.127737 -0.320255 0.633567)
(-0.0378415 -0.343693 0.223915)
(0.0166784 -0.23894 0.580289)
(0.0302143 0.281428 0.761944)
(0.0494324 0.334078 1.08177)
(-0.0852761 0.246116 1.18659)
(0.0359182 -0.288347 0.702526)
(-0.225712 -0.202588 0.345381)
(-0.125578 -0.0421872 0.917559)
(-0.0557759 0.241061 1.08488)
(0.00649541 0.226906 1.08643)
(0.149426 -0.180441 0.79763)
(-0.251162 -0.068033 0.514448)
(-0.169694 0.133693 0.921837)
(0.0500697 -0.0109814 0.632323)
(0.0988575 -0.00737836 0.405324)
(0.177876 -0.198454 0.419969)
(0.198777 -0.0260486 0.428971)
(-0.0147582 0.101067 0.518325)
(-0.210534 -0.0133121 0.526306)
(0.119606 -0.301717 0.397242)
(0.0382756 0.247722 0.730832)
(-0.196854 0.256529 1.06189)
(-0.245192 -0.0835719 0.818386)
(-0.136267 -0.378221 0.574075)
(-0.0800935 -0.404448 0.316496)
(-0.12318 -0.360956 0.548217)
(-0.0230592 0.0521065 0.846992)
(-0.00270993 0.288779 1.15205)
(-0.141555 0.0915094 1.14581)
(0.0924284 -0.4074 0.612195)
(-0.275109 -0.234604 0.329676)
(-0.228948 -0.203264 0.921682)
(-0.0407308 0.176904 1.1401)
(-0.122759 0.0719783 1.16386)
(0.219373 -0.390096 0.570028)
(-0.281821 -0.0370279 0.441605)
(-0.165474 0.0679016 0.929444)
(0.0859453 -0.0194898 0.623361)
(0.108079 -0.00603934 0.449244)
(0.146656 -0.187039 0.50562)
(0.152959 -0.0135221 0.475481)
(-0.0179433 0.0786961 0.553263)
(-0.191221 -0.0356668 0.538657)
(0.0469295 -0.320568 0.477623)
(0.0510625 0.041149 0.784853)
(-0.170605 0.223528 1.09126)
(-0.164338 -0.252705 0.798165)
(-0.134412 -0.361613 0.552587)
(-0.0706834 -0.364803 0.487596)
(-0.169464 -0.387024 0.531295)
(-0.0999474 -0.219853 0.895869)
(0.00755201 0.235684 1.19828)
(-0.0707562 -0.148853 1.05676)
(0.0948876 -0.400042 0.555605)
(-0.286968 -0.224469 0.358411)
(-0.345593 -0.304521 0.74224)
(-0.0261285 -0.00412159 1.14513)
(-0.0929388 -0.0725507 1.10163)
(0.200436 -0.370764 0.366009)
(-0.286918 -0.0515573 0.367554)
(-0.140285 0.0706718 0.8496)
(0.0691047 -0.0232744 0.56002)
(0.0986743 -0.00352831 0.497379)
(0.125367 -0.154384 0.603954)
(0.0787602 -0.0198821 0.534556)
(-0.0210368 0.0468722 0.6009)
(-0.162553 -0.0865088 0.575934)
(-0.00964456 -0.249399 0.573281)
(0.013541 -0.150804 0.850332)
(-0.110416 0.152187 1.11638)
(-0.0771498 -0.369379 0.82398)
(-0.082094 -0.263968 0.566925)
(-0.0481693 -0.222038 0.571818)
(-0.101366 -0.265175 0.565406)
(-0.141816 -0.336811 0.898291)
(0.0245535 0.0963174 1.26686)
(0.000331617 -0.34496 0.981786)
(0.104428 -0.292595 0.537441)
(-0.161441 -0.102571 0.42216)
(-0.306594 -0.257507 0.550581)
(-0.0765886 -0.226493 0.975196)
(0.110917 -0.292028 0.856244)
(0.109411 -0.191457 0.262527)
(-0.229408 -0.076996 0.263293)
(-0.15318 -0.00868734 0.655358)
(0.0866191 -0.0474483 0.473778)
(0.068655 -0.00255636 0.550475)
(0.0870374 -0.114461 0.6784)
(-0.0243836 -0.0619747 0.616653)
(-0.0275646 -0.0103452 0.656866)
(-0.141506 -0.135649 0.659479)
(-0.0231831 -0.151447 0.636577)
(-0.0624478 -0.221084 0.894796)
(-0.086045 0.0144473 1.14832)
(-0.0118974 -0.393794 0.851935)
(-0.0397587 -0.194027 0.617721)
(-0.031459 -0.119408 0.579366)
(-0.084833 -0.10455 0.583227)
(-0.160746 -0.348507 0.887245)
(-0.0259741 -0.108995 1.32895)
(0.0702524 -0.390996 0.858229)
(0.132978 -0.217343 0.564476)
(-0.0276859 0.0186247 0.424466)
(-0.175704 -0.136969 0.458865)
(-0.107298 -0.17994 0.810666)
(0.094268 -0.191305 0.601346)
(0.0330891 -0.00650143 0.197818)
(-0.104909 -0.080155 0.208318)
(-0.044356 -0.0255098 0.481099)
(0.101903 -0.0543875 0.37566)
(0.0450447 -0.00705528 0.623444)
(0.0581099 -0.0805129 0.76839)
(-0.0892284 -0.0785637 0.70803)
(-0.0636343 -0.0797474 0.729251)
(-0.122263 -0.149122 0.782759)
(-0.0378477 -0.107501 0.697811)
(-0.140681 -0.205102 0.917035)
(-0.0936726 -0.118513 1.13637)
(0.0342701 -0.340965 0.874002)
(-0.021849 -0.190783 0.699945)
(-0.0248186 -0.0796932 0.610384)
(-0.14634 -0.0404684 0.57489)
(-0.193342 -0.309543 0.856139)
(-0.0996927 -0.218676 1.26372)
(0.107148 -0.256913 0.656186)
(0.116183 -0.155397 0.575362)
(0.0395097 0.077051 0.424445)
(-0.0935645 -0.043134 0.41299)
(-0.090411 0.0025456 0.666656)
(0.0377237 -0.0535086 0.443481)
(0.0149319 0.0240363 0.161163)
(0.00721854 -0.0737396 0.209333)
(-0.00405618 -0.00383959 0.364018)
(0.116113 -0.054573 0.287163)
(0.0282034 -0.026625 0.752262)
(0.0665511 -0.0884374 0.874545)
(-0.021696 0.00540122 0.810724)
(-0.0673245 -0.0926356 0.830271)
(-0.0868896 -0.116421 0.896497)
(-0.0566551 -0.0762463 0.762363)
(-0.167864 -0.133506 0.924295)
(-0.0774075 -0.182555 1.07614)
(0.0743899 -0.218528 0.867629)
(-0.0256902 -0.134105 0.817981)
(-0.0172756 -0.0728133 0.69772)
(-0.184233 -0.00126863 0.597839)
(-0.264181 -0.132688 0.770096)
(-0.128937 -0.183755 1.09943)
(0.058784 -0.108967 0.536042)
(0.0899565 -0.127818 0.504234)
(0.0232977 0.093348 0.437892)
(-0.0728887 0.0267448 0.401935)
(-0.0467542 0.122974 0.55995)
(0.0355427 0.0168776 0.389703)
(0.0365105 -0.0664716 0.177259)
(0.0506288 -0.0663978 0.226645)
(0.0108507 0.0125928 0.322605)
(0.124479 -0.0532404 0.24174)
(0.0243771 -0.0221037 0.915054)
(0.0130755 -0.0540541 0.953486)
(0.0484718 0.087523 0.871861)
(-0.00895369 -0.0875302 0.933227)
(-0.0562209 -0.0740191 0.965687)
(-0.0377918 -0.0504344 0.830136)
(-0.130214 0.00544468 0.909783)
(-0.0267969 -0.152873 0.997077)
(0.0928301 -0.117821 0.87035)
(-0.0592302 -0.104304 0.895917)
(-0.0145533 -0.0934012 0.74163)
(-0.178012 0.0326771 0.661196)
(-0.269534 0.0543828 0.698341)
(-0.125911 -0.0453428 0.846185)
(-0.0271997 -0.040314 0.480621)
(-0.0578092 -0.0826481 0.472263)
(-0.0355784 0.101685 0.486362)
(-0.0692542 0.0696101 0.430499)
(0.000838785 0.150233 0.4906)
(0.0580139 0.0322625 0.378527)
(0.0641495 -0.114658 0.204177)
(0.0541077 -0.0634294 0.257482)
(0.0247737 0.0244649 0.327175)
(0.122536 -0.0497688 0.234296)
(0.00695365 0.0232718 0.921572)
(0.00989011 -0.0318792 1.01137)
(0.0469026 0.10745 0.839453)
(0.0839337 -0.0642595 0.995123)
(-0.0204483 -0.0587888 1.02058)
(0.00976052 -0.0587328 0.880566)
(-0.0782246 0.115204 0.874544)
(0.024808 -0.0874542 0.89727)
(0.0747691 -0.0863469 0.883254)
(-0.058037 -0.0789803 0.948883)
(-0.00783259 -0.107542 0.778095)
(-0.15657 0.0490803 0.720693)
(-0.232314 0.149573 0.667081)
(-0.103485 0.0436118 0.715249)
(-0.0947028 -0.0251104 0.447824)
(-0.0743654 0.090023 0.398301)
(-0.061594 0.106217 0.549609)
(-0.0506724 0.0655749 0.474335)
(0.0350085 0.12335 0.454147)
(0.0859378 0.0195753 0.385861)
(0.0731479 -0.114247 0.231375)
(0.0414696 -0.0656213 0.295123)
(0.0351591 0.0309724 0.349742)
(0.110996 -0.0419631 0.239697)
(0.0318951 0.0397337 0.674747)
(-0.00987722 -0.00863383 1.0631)
(0.0288459 0.118278 0.75953)
(0.110671 0.0574794 0.959325)
(0.00298976 -0.0713974 1.08249)
(0.0281362 -0.0564415 0.924711)
(-0.0688647 0.163058 0.831944)
(0.00107996 -0.0598171 0.862334)
(0.0151195 -0.0913199 0.919993)
(-0.0719802 -0.101803 0.972194)
(-0.00161938 -0.0996718 0.777277)
(-0.163594 0.0707202 0.76454)
(-0.215116 0.178251 0.656891)
(-0.0900669 0.114574 0.625503)
(-0.122554 -0.011592 0.420178)
(-0.0900257 0.0578831 0.332367)
(-0.068364 0.104401 0.612428)
(-0.0137688 0.0167602 0.522572)
(0.0465599 0.0949822 0.443193)
(0.105495 -0.00280864 0.396072)
(0.0930016 -0.139253 0.25404)
(0.0342176 -0.0707404 0.331219)
(0.0369105 0.0411757 0.371492)
(0.0959163 -0.0324819 0.241446)
(-0.0893637 -0.0283235 0.546083)
(-0.00571501 0.0191947 1.09788)
(0.044004 0.0790091 0.66871)
(0.0646535 0.0754294 0.920476)
(-0.0749176 -0.095496 1.17211)
(0.0300349 -0.0215446 0.980123)
(-0.118511 0.18296 0.805289)
(-0.0792208 0.0121803 0.829448)
(-0.00617146 -0.0566948 0.967013)
(-0.12809 -0.16991 0.956469)
(0.00403998 -0.0775237 0.790133)
(-0.190013 0.0942541 0.810145)
(-0.212445 0.169061 0.665117)
(-0.0885876 0.176736 0.555395)
(-0.123422 0.046543 0.399513)
(-0.0573346 -0.0633702 0.312105)
(-0.0482031 0.112519 0.676486)
(0.0200826 -0.0296866 0.566484)
(0.0470651 0.0835656 0.453464)
(0.101946 -0.0105617 0.392776)
(0.115236 -0.175813 0.256697)
(0.037821 -0.0737259 0.353761)
(0.0307469 0.0567873 0.388086)
(0.075445 -0.020345 0.246664)
(-0.381031 -0.0669018 0.419162)
(0.000929739 0.0266217 1.13257)
(-0.159575 0.0679595 0.647041)
(-0.15886 0.0716885 0.894156)
(-0.138555 -0.104201 1.17499)
(0.0138348 0.0244526 1.03556)
(-0.164345 0.171907 0.814305)
(-0.145341 0.146263 0.704271)
(-0.009367 0.0343144 0.954625)
(-0.130066 -0.155732 0.881678)
(0.00125643 -0.0435182 0.768434)
(-0.185617 0.12824 0.858038)
(-0.19038 0.125111 0.701809)
(-0.0749044 0.198272 0.523971)
(-0.0953559 0.161442 0.385717)
(-0.0124299 -0.0929424 0.299946)
(-0.0597301 0.149493 0.760403)
(0.0626152 -0.0343944 0.602407)
(0.0617557 0.0802674 0.47907)
(0.0676239 0.0256479 0.384373)
(0.120686 -0.181192 0.253949)
(0.0678293 -0.0608358 0.363887)
(0.0298712 0.0678835 0.409556)
(0.0509191 -0.00134353 0.276517)
(-0.518922 -0.0620629 0.289747)
(-0.00471248 0.0295058 1.23532)
(-0.392485 0.0745336 0.741726)
(-0.42742 0.16811 0.646765)
(-0.158127 -0.0808777 1.06736)
(0.0632832 0.0560402 1.10061)
(-0.13426 0.116645 0.862931)
(-0.108224 0.168156 0.61683)
(-0.00788907 0.219605 0.800171)
(-0.00548151 -0.107469 0.814788)
(-0.00929761 -0.0124858 0.805026)
(-0.174272 0.129853 0.889537)
(-0.0863905 0.108289 0.726656)
(-0.012957 0.186445 0.532745)
(-0.0394415 0.22975 0.40186)
(0.0270534 -0.0518947 0.315612)
(-0.00270869 0.156886 0.833229)
(0.142121 0.0150043 0.619817)
(0.127105 0.0837991 0.526539)
(0.0702319 0.081813 0.416791)
(0.113404 -0.150956 0.279231)
(0.133804 -0.0363247 0.379551)
(0.0484479 0.0678156 0.44649)
(0.0306355 0.0215397 0.344812)
(-0.239815 -0.0193422 0.246434)
(0.110074 -0.08119 1.34617)
(-0.353606 -0.0453268 0.939116)
(-0.289209 0.2012 0.452239)
(-0.0627164 0.0170678 0.833269)
(0.125325 -0.00757022 1.10187)
(0.119736 0.0214723 0.845279)
(0.101177 0.0883666 0.594766)
(0.0237382 0.245653 0.703191)
(0.0480183 0.0411538 0.819699)
(-0.0207108 0.0307722 0.811082)
(-0.123745 0.132832 0.934258)
(0.172614 0.14627 0.647699)
(0.178151 0.165513 0.558642)
(0.0408977 0.233071 0.481205)
(0.0650443 0.0265868 0.398642)
(0.0556355 0.12071 0.867231)
(0.238638 0.0638071 0.621027)
(0.222911 0.0893034 0.58891)
(0.130079 0.104055 0.504666)
(0.0950442 -0.119915 0.366027)
(0.185761 -0.0270849 0.424075)
(0.0706623 0.0658726 0.511907)
(0.0130989 0.0446723 0.451157)
(0.14343 0.000225277 0.343395)
(0.253674 -0.213957 1.29214)
(0.26425 -0.192049 1.0846)
(0.111857 0.02225 0.520078)
(0.0564388 0.0995229 0.676802)
(0.269856 0.0141995 0.917797)
(0.341734 -0.0105364 0.669062)
(0.270323 0.0593873 0.598154)
(0.0495044 0.221115 0.708416)
(-0.0212452 0.125981 0.802778)
(-0.0259597 0.152575 0.897696)
(-0.0253503 0.321015 0.873649)
(0.318058 0.120871 0.55906)
(0.289252 0.138482 0.601558)
(0.0947642 0.205465 0.601438)
(0.0905311 0.0529674 0.529429)
(0.0540146 0.149369 0.908324)
(0.299164 0.0549386 0.647225)
(0.282378 0.066771 0.667986)
(0.180903 0.0921966 0.615522)
(0.06443 -0.0848807 0.500095)
(0.155587 -0.072382 0.494352)
(0.0632185 0.0585047 0.60007)
(-0.0113948 0.065098 0.583458)
(0.28956 0.0196244 0.583747)
(0.32533 -0.269049 0.990264)
(0.486607 -0.258385 1.09292)
(0.296426 -0.00502474 0.715045)
(0.0630525 0.090237 0.678737)
(0.211231 0.0220434 0.52864)
(0.308463 0.00388368 0.583919)
(0.271669 0.0897035 0.621158)
(0.0691238 0.210627 0.785365)
(-0.0601066 0.0845829 0.733609)
(0.00172082 0.17663 0.980155)
(0.20118 0.264496 0.568944)
(0.30761 0.0297006 0.553309)
(0.284266 0.0777603 0.673512)
(0.115198 0.164614 0.724899)
(0.110476 0.0340279 0.666765)
(0.189624 0.209097 0.921596)
(0.287783 -0.00494842 0.703309)
(0.250843 0.0219387 0.761152)
(0.175134 0.0668998 0.732271)
(0.0268114 -0.0288221 0.638327)
(0.0245066 -0.106734 0.581228)
(0.00209285 0.0413042 0.66139)
(-0.0497433 0.0799059 0.698873)
(0.218898 0.0339754 0.703878)
(0.0656243 -0.00282233 0.374424)
(0.388772 -0.187563 1.07139)
(0.222407 0.162626 0.819201)
(-0.0423132 0.053624 0.739822)
(0.0655773 0.0405336 0.365357)
(0.184987 0.115179 0.57127)
(0.201838 0.189361 0.725935)
(0.0701981 0.204773 0.858731)
(-0.0484579 -0.0125205 0.718157)
(0.0328405 0.127157 0.811031)
(0.228622 0.108348 0.414934)
(0.172098 -0.102659 0.613162)
(0.24586 0.0308759 0.759478)
(0.1396 0.120186 0.822096)
(0.126972 0.00643559 0.776623)
(0.278918 0.214649 0.786056)
(0.123015 -0.0979335 0.748635)
(0.132709 -0.0151811 0.811808)
(0.110496 0.0609047 0.832359)
(0.002732 0.0294145 0.745306)
(-0.0939026 -0.0901232 0.597576)
(-0.0688836 0.0368911 0.664752)
(-0.0966259 0.092597 0.760557)
(0.125832 0.00319018 0.676554)
(-0.0109786 0.0219809 0.212402)
(0.101341 0.172273 0.910458)
(0.0446141 0.204201 0.788426)
(-0.0925385 0.0397975 0.751059)
(-0.0200386 0.0471396 0.315118)
(0.127742 0.201896 0.646498)
(0.161297 0.231567 0.822643)
(0.0583759 0.171372 0.871151)
(-0.0360485 -0.0972817 0.711539)
(0.0153151 -0.00596595 0.421221)
(0.12326 -0.0435853 0.447966)
(0.0786621 -0.120848 0.667808)
(0.231026 0.0381471 0.825065)
(0.170177 0.0766008 0.894523)
(0.144065 -0.0117471 0.858433)
(0.0362488 -0.133429 0.725539)
(-0.0588091 -0.136214 0.722616)
(0.0166292 -0.034197 0.788214)
(0.069654 0.0412382 0.884205)
(-0.00836604 0.0683274 0.843936)
(-0.157224 -0.07419 0.57178)
(-0.13699 0.0436858 0.625383)
(-0.120886 0.0844675 0.753046)
(0.0782678 -0.00690056 0.629043)
(-0.0105898 0.015544 0.236112)
(0.0562136 0.222963 0.717353)
(-0.0889154 0.169558 0.754614)
(-0.101492 -0.00387099 0.700157)
(-0.0166596 0.0169238 0.312003)
(0.0996824 0.207695 0.730075)
(0.158011 0.21104 0.887003)
(0.00564597 0.0689439 0.87978)
(-0.0529115 -0.159257 0.686585)
(-0.00850829 -0.00820845 0.372509)
(0.0430057 -0.155612 0.529254)
(0.0396861 -0.0921411 0.71118)
(0.216805 0.0406688 0.874185)
(0.155017 0.0349879 0.954529)
(0.131398 -0.0249586 0.923827)
(-0.0525771 -0.206074 0.674909)
(-0.131752 -0.143048 0.684045)
(-0.0603955 -0.0258653 0.731849)
(0.0353031 0.0154079 0.885156)
(-0.0248852 0.0924981 0.89505)
(-0.151609 -0.0647766 0.554935)
(-0.186689 0.0468383 0.583464)
(-0.144019 0.0843935 0.694808)
(0.0534854 -0.0103805 0.570732)
(-0.0133218 0.00598418 0.257209)
(-0.0104095 0.143064 0.670171)
(-0.196782 0.101742 0.752887)
(-0.110028 -0.0707636 0.636892)
(0.0027787 -0.0115618 0.331848)
(0.0791987 0.19398 0.802337)
(0.121545 0.162323 0.920519)
(-0.0781108 -0.0761229 0.895377)
(-0.0538153 -0.175387 0.644086)
(-0.0149834 -0.00113224 0.421143)
(-0.00537809 -0.184361 0.59334)
(0.0306007 -0.0640695 0.741385)
(0.174189 0.00508857 0.908567)
(0.0863796 0.00834348 0.992658)
(0.0617302 -0.0572794 0.946508)
(-0.0786633 -0.140109 0.632286)
(-0.146619 -0.13706 0.661699)
(-0.10194 0.00115299 0.676149)
(-0.0139951 0.0238667 0.859748)
(-0.0499751 0.109418 0.855794)
(-0.122967 -0.05179 0.546857)
(-0.212094 0.0413574 0.567387)
(-0.176032 0.105705 0.650006)
(0.0334737 -0.0144748 0.529653)
(-0.022249 0.0120255 0.277798)
(-0.0942454 0.105271 0.696587)
(-0.260603 0.00850517 0.768897)
(-0.111129 -0.123893 0.609737)
(0.0251153 -0.0129273 0.354436)
(0.0730702 0.183961 0.861345)
(0.0121145 0.0550738 0.944624)
(-0.12422 -0.164554 0.869646)
(-0.0309348 -0.126148 0.613161)
(-0.0141935 0.00786245 0.493639)
(-0.0478865 -0.171364 0.643038)
(0.0118121 -0.0587617 0.785096)
(0.0521703 -0.0514491 0.931015)
(0.0315123 0.00446789 0.975672)
(-0.0106984 -0.0720491 0.879421)
(-0.0719413 -0.103336 0.596956)
(-0.138407 -0.110039 0.650296)
(-0.123057 0.0115129 0.625094)
(-0.0518421 0.0633781 0.82124)
(-0.0578967 0.123286 0.76265)
(-0.0995318 -0.0438997 0.544875)
(-0.209484 0.0237175 0.57537)
(-0.198182 0.121039 0.629176)
(0.037604 -0.0101301 0.512047)
(-0.0349955 0.0333477 0.306421)
(-0.125451 0.0429191 0.740793)
(-0.248337 -0.0216049 0.798085)
(-0.0991475 -0.116109 0.615033)
(0.0578208 -0.0139402 0.389854)
(0.0649617 0.164503 0.905208)
(-0.0823652 -0.0442821 0.981833)
(-0.126467 -0.188396 0.793125)
(-0.00312036 -0.0516715 0.600757)
(-0.0117605 0.00223029 0.554175)
(-0.0984957 -0.122197 0.717876)
(-0.0332894 -0.0789317 0.846591)
(-0.0677956 -0.0817191 0.910933)
(-7.77694e-05 0.0103047 0.878759)
(-0.00857501 -0.0497234 0.783212)
(-0.0335004 -0.0793914 0.571509)
(-0.109834 -0.0666438 0.650219)
(-0.122127 -0.00658469 0.581934)
(-0.0781301 0.104368 0.747508)
(-0.0487804 0.114785 0.722639)
(-0.0772234 -0.0404148 0.548304)
(-0.180745 0.00738369 0.593716)
(-0.203605 0.122323 0.62286)
(0.0604555 -0.00475703 0.520313)
(-0.0440536 0.0512237 0.337433)
(-0.110568 -0.0124923 0.765713)
(-0.203613 -0.0170776 0.836328)
(-0.0253756 -0.0108325 0.642102)
(0.0759431 -0.0350058 0.418582)
(0.0371256 0.129004 0.937976)
(-0.113236 -0.0887925 1.01962)
(-0.0928614 -0.146917 0.720265)
(0.0142615 0.00912878 0.591392)
(-0.00736637 -0.0196619 0.578133)
(-0.127489 -0.0729702 0.814078)
(-0.0680789 -0.0949042 0.908636)
(-0.115611 -0.0883453 0.872797)
(-0.034097 0.00691797 0.733426)
(-0.00895849 -0.00605487 0.705763)
(-0.00534826 -0.0592861 0.547695)
(-0.070122 -0.0557695 0.656991)
(-0.0921945 -0.0406455 0.552317)
(-0.0974552 0.0972411 0.663823)
(-0.0557574 0.10888 0.698878)
(-0.0625868 -0.0379635 0.562065)
(-0.149732 -0.00261551 0.60405)
(-0.192741 0.113531 0.624033)
(0.0715236 -0.00498788 0.552542)
(-0.0324929 0.0368752 0.375802)
(-0.114892 0.00209453 0.728058)
(-0.128263 -0.0415203 0.887957)
(0.0631414 0.0800124 0.651628)
(0.0654332 -0.0677436 0.447462)
(0.00748419 0.0983843 0.964109)
(-0.110446 -0.092029 1.03365)
(-0.0453597 -0.078376 0.671812)
(0.01532 0.0467697 0.581042)
(-0.00659382 -0.0429739 0.572979)
(-0.136853 -0.0419849 0.899552)
(-0.0743169 -0.0697465 0.964692)
(-0.110021 -0.0881277 0.85351)
(-0.045142 -0.00583683 0.637749)
(-0.0169636 0.0356843 0.646374)
(0.0143537 -0.0363465 0.555802)
(-0.0183689 -0.0597632 0.652644)
(-0.0394352 -0.0694211 0.537948)
(-0.0977967 0.0553398 0.594063)
(-0.0635008 0.105802 0.661037)
(-0.072026 -0.0311355 0.579016)
(-0.130469 -0.00613193 0.597291)