/*--------------------------------*- C++ -*----------------------------------*\
| =========                 |                                                 |
| \\      /  F ield         | OpenFOAM: The Open Source CFD Toolbox           |
|  \\    /   O peration     | Version:  5.x                                   |
|   \\  /    A nd           | Web:      www.OpenFOAM.org                      |
|    \\/     M anipulation  |                                                 |
\*---------------------------------------------------------------------------*/
FoamFile
{
    version     2.0;
    format      ascii;
    class       volVectorField;
    location    "3";
    object      Us;
}
// * * * * * * * * * * * * * * * * * * * * * * * * * * * * * * * * * * * * * //

dimensions      [0 1 -1 0 0 0 0];

internalField   nonuniform List<vector> 
10571
(
(0.0153739 0.0124033 -0.0213715)
(0.0564486 -0.0183685 -0.0412048)
(0.116188 0.011344 0.0715404)
(-0.0162306 0.107824 0.00492931)
(0.00401428 0.039093 -0.0319137)
(0.106383 -0.0144562 -0.00328625)
(0.200952 -0.144807 0.142079)
(0.105912 -0.189001 0.118156)
(-0.0310771 -0.0479484 -0.100392)
(0.00925215 0.00211138 0.00152511)
(-0.0136462 0.02119 0.0475437)
(0.00630658 0.040996 0.0225246)
(-0.0143169 -0.111121 -0.0684821)
(0.00796797 -0.0524529 -0.0845367)
(0.0785568 0.0330597 -0.0341538)
(0.00804649 0.00725436 0.00514592)
(0.0118916 0.0255103 0.0155518)
(0.00393983 0.0699329 -0.0710166)
(0.050913 0.0983462 -0.0234371)
(0.0545722 -0.016163 0.0501754)
(0.0138651 -0.00680633 0.00963526)
(0.108739 0.0593873 0.0438246)
(-0.0361581 0.00824681 0.026418)
(0.0102937 -0.0361234 -0.0814606)
(0.0639506 0.0213772 -0.154922)
(0.0270375 -0.0018627 -0.139465)
(0.0305329 -0.0423703 -0.111566)
(0.0764216 -0.0380081 -0.260884)
(0.0125807 0.0201292 -0.105763)
(0.0990495 -0.089051 -0.0362226)
(0.0943866 -0.107172 0.0949632)
(0.00322895 -0.00879788 -0.2479)
(-0.0823486 -0.0535243 -0.273959)
(-0.0138048 -0.0080317 -0.233972)
(0.0308126 0.0203693 -0.202967)
(0.0746933 -0.0976391 -0.125016)
(-0.0212064 -0.0524709 -0.206756)
(-0.0300431 0.00573028 -0.247734)
(-0.0674044 -0.0130573 -0.261245)
(0.0341391 -0.0288861 -0.240855)
(0.0541805 0.0259673 -0.247217)
(0.013305 -0.023779 -0.238632)
(0.0146037 0.020276 -0.180176)
(0.00362585 0.0638044 -0.171887)
(-0.0029339 0.00763452 -0.294683)
(0.0501551 -0.0101891 -0.27938)
(0.0607225 -0.0517759 -0.24547)
(-0.0161812 0.00813501 -0.227857)
(0 0 0)
(0.0208807 -0.0401478 -0.317563)
(-0.00294835 -0.0856174 -0.297933)
(0.109406 -0.0765839 -0.259444)
(0.193533 -0.0952271 -0.363661)
(-0.101862 -0.0163328 -0.111016)
(0.0148245 0.0605474 -0.112221)
(0.0873185 0.0359633 -0.206095)
(-0.124421 -0.11014 -0.244952)
(-0.082779 -0.159512 -0.218731)
(0.0090851 0.0117554 -0.257271)
(0.0640261 -0.137102 -0.108332)
(-0.0143493 -0.0212544 -0.238172)
(-0.0761033 -0.024662 -0.271214)
(-0.10151 -0.0495471 -0.253778)
(0.00639191 -0.0488722 -0.187936)
(0.0552334 0.0394484 -0.236356)
(-0.0100696 -0.0448758 -0.23913)
(-0.061077 -0.0213328 -0.165941)
(-0.065354 0.0177357 -0.183791)
(-0.000257355 0.00176187 -0.235611)
(-0.0074848 -0.0219653 -0.284633)
(0.0510434 -0.0536796 -0.187602)
(-0.0329473 0.0286691 -0.220984)
(0 0 0)
(0.00131429 -0.0636488 -0.231818)
(0.021395 -0.0605945 -0.152737)
(0 0 0)
(0 0 0)
(-0.0953622 0.0535966 -0.150031)
(0.0288365 0.0822281 -0.150552)
(0.128827 0.0617835 -0.196806)
(-0.0632225 -0.0978913 -0.218015)
(-0.0622236 -0.115257 -0.151805)
(0.00673823 0.0443385 -0.307597)
(-0.0055123 -0.00697556 -0.113888)
(0.00079009 0.0262237 -0.207292)
(-0.0659952 -0.0384373 -0.232222)
(-0.0814205 -0.0502443 -0.234356)
(-0.0253759 -0.0641546 -0.218733)
(0.0402621 0.0454582 -0.254063)
(-0.0295919 -0.03071 -0.1874)
(-0.122792 -0.0501272 -0.103192)
(-0.0708131 -0.0496392 -0.153924)
(-0.00800277 -0.044382 -0.151372)
(0.00646792 -0.00957957 -0.229308)
(-0.0397297 -0.0407149 -0.124606)
(-0.076384 0.0315718 -0.160855)
(0 0 0)
(0.0970324 -0.149572 -0.343106)
(0 0 0)
(0 0 0)
(0 0 0)
(-0.0836248 0.0147718 -0.0961126)
(0.0518529 0.0728814 -0.111916)
(0.149299 0.063984 -0.189736)
(0 0 0)
(0 0 0)
(-0.000210881 0.0518032 -0.285567)
(-0.0442681 0.137799 -0.198096)
(0.0138153 0.0176645 -0.133841)
(-0.0553418 -0.0423311 -0.163604)
(-0.0467842 -0.0380799 -0.17976)
(-0.064553 -0.015183 -0.293003)
(0.0301371 0.0965047 -0.263127)
(0.000812077 0.0150152 -0.121352)
(-0.108784 0.00215784 -0.133413)
(-0.0460359 -0.00638147 -0.169659)
(-0.00871602 0.00840727 -0.190103)
(0.0795273 0.029125 -0.163968)
(-0.0940464 0.0222699 -0.122044)
(-0.0497856 0.0389484 -0.128268)
(0 0 0)
(0 0 0)
(0 0 0)
(0 0 0)
(0 0 0)
(0.0617725 -0.0415607 -0.330809)
(0 0 0)
(0 0 0)
(0 0 0)
(0 0 0)
(-0.00687735 0.00282432 -0.00220403)
(0.00337773 0.0361777 -0.258569)
(-0.0254421 0.102407 -0.126006)
(0.050223 -0.02112 0.0216663)
(0 0 0)
(0 0 0)
(-0.0699725 -0.0157081 -0.184725)
(-0.00561302 -0.00165399 -0.00236284)
(0.0543406 0.0956744 -0.242647)
(0.115033 0.0679034 -0.0504829)
(0.0622924 0.00944195 -0.00194116)
(0 0 0)
(0 0 0)
(0.173594 0.0667743 -0.157151)
(0.24289 0.0225603 -0.0704751)
(0 0 0)
(0 0 0)
(0 0 0)
(0 0 0)
(0 0 0)
(0 0 0)
(0 0 0)
(0 0 0)
(0 0 0)
(0 0 0)
(0 0 0)
(0 0 0)
(0.016284 0.0241932 -0.264279)
(0 0 0)
(0 0 0)
(0 0 0)
(0 0 0)
(0 0 0)
(0 0 0)
(0.0684801 0.097757 -0.24788)
(0.141318 0.0738693 -0.271181)
(0.0119852 0.0484051 0.0103091)
(0 0 0)
(0 0 0)
(0 0 0)
(0.201159 0.0558059 -0.228722)
(0 0 0)
(0 0 0)
(0 0 0)
(0 0 0)
(0 0 0)
(0 0 0)
(0 0 0)
(0 0 0)
(0 0 0)
(0 0 0)
(0 0 0)
(0 0 0)
(0 0 0)
(0 0 0)
(0 0 0)
(0 0 0)
(0 0 0)
(0 0 0)
(0 0 0)
(0 0 0)
(0.0626142 0.103231 -0.209803)
(0 0 0)
(0 0 0)
(0 0 0)
(0 0 0)
(0 0 0)
(0.192983 0.186426 -0.20491)
(0 0 0)
(0 0 0)
(0 0 0)
(0 0 0)
(0 0 0)
(0 0 0)
(0 0 0)
(0 0 0)
(0 0 0)
(0 0 0)
(0 0 0)
(0 0 0)
(0 0 0)
(0 0 0)
(0 0 0)
(0 0 0)
(0 0 0)
(0 0 0)
(0 0 0)
(0 0 0)
(0.0857012 0.0503077 -0.147031)
(0 0 0)
(0 0 0)
(0 0 0)
(0 0 0)
(0 0 0)
(0 0 0)
(0 0 0)
(0 0 0)
(0 0 0)
(0 0 0)
(0 0 0)
(0 0 0)
(0 0 0)
(0 0 0)
(0 0 0)
(0 0 0)
(0 0 0)
(0 0 0)
(0 0 0)
(0 0 0)
(0 0 0)
(0 0 0)
(0 0 0)
(0 0 0)
(0 0 0)
(0 0 0)
(0 0 0)
(0 0 0)
(0 0 0)
(0 0 0)
(0 0 0)
(0 0 0)
(0 0 0)
(0 0 0)
(0 0 0)
(0 0 0)
(0 0 0)
(0 0 0)
(0 0 0)
(0 0 0)
(0 0 0)
(0 0 0)
(0 0 0)
(0 0 0)
(0 0 0)
(0 0 0)
(0 0 0)
(0 0 0)
(0 0 0)
(0 0 0)
(0 0 0)
(0 0 0)
(0 0 0)
(0 0 0)
(0 0 0)
(0 0 0)
(0 0 0)
(0 0 0)
(0 0 0)
(0 0 0)
(0 0 0)
(0 0 0)
(0 0 0)
(0 0 0)
(0 0 0)
(0 0 0)
(0 0 0)
(0 0 0)
(0 0 0)
(0 0 0)
(0 0 0)
(0 0 0)
(0 0 0)
(0 0 0)
(0 0 0)
(0 0 0)
(0 0 0)
(0 0 0)
(0 0 0)
(0 0 0)
(0 0 0)
(0 0 0)
(0 0 0)
(0 0 0)
(0 0 0)
(0 0 0)
(0 0 0)
(0 0 0)
(0 0 0)
(0 0 0)
(0 0 0)
(0 0 0)
(0 0 0)
(0 0 0)
(0 0 0)
(0 0 0)
(0 0 0)
(0 0 0)
(0 0 0)
(0 0 0)
(0 0 0)
(0 0 0)
(0 0 0)
(0 0 0)
(0 0 0)
(0 0 0)
(0 0 0)
(0 0 0)
(0 0 0)
(0 0 0)
(0 0 0)
(0 0 0)
(0 0 0)
(0 0 0)
(0 0 0)
(0 0 0)
(0 0 0)
(0 0 0)
(0 0 0)
(0 0 0)
(0 0 0)
(0 0 0)
(0 0 0)
(0 0 0)
(0 0 0)
(0 0 0)
(0 0 0)
(0 0 0)
(0 0 0)
(0 0 0)
(0 0 0)
(0 0 0)
(0 0 0)
(0 0 0)
(0 0 0)
(0 0 0)
(0 0 0)
(0 0 0)
(0 0 0)
(0 0 0)
(0 0 0)
(0 0 0)
(0 0 0)
(0 0 0)
(0 0 0)
(0 0 0)
(0 0 0)
(0 0 0)
(0 0 0)
(0 0 0)
(0 0 0)
(0 0 0)
(0 0 0)
(0 0 0)
(0 0 0)
(0 0 0)
(0 0 0)
(0 0 0)
(0 0 0)
(0 0 0)
(0 0 0)
(0 0 0)
(0 0 0)
(0 0 0)
(0 0 0)
(0 0 0)
(0 0 0)
(0 0 0)
(0 0 0)
(0 0 0)
(0 0 0)
(0 0 0)
(0 0 0)
(0 0 0)
(0 0 0)
(0 0 0)
(0 0 0)
(0 0 0)
(0 0 0)
(0 0 0)
(0 0 0)
(0 0 0)
(0 0 0)
(0 0 0)
(0 0 0)
(0 0 0)
(0 0 0)
(0 0 0)
(0 0 0)
(0 0 0)
(0 0 0)
(0 0 0)
(0 0 0)
(0 0 0)
(0 0 0)
(0 0 0)
(0 0 0)
(0 0 0)
(0 0 0)
(0 0 0)
(0 0 0)
(0 0 0)
(0 0 0)
(0 0 0)
(0 0 0)
(0 0 0)
(0 0 0)
(0 0 0)
(0 0 0)
(0 0 0)
(0 0 0)
(0 0 0)
(0 0 0)
(0 0 0)
(0 0 0)
(0 0 0)
(0 0 0)
(0 0 0)
(0 0 0)
(0 0 0)
(0 0 0)
(0 0 0)
(0 0 0)
(0 0 0)
(0 0 0)
(0 0 0)
(0 0 0)
(0 0 0)
(0 0 0)
(0 0 0)
(0 0 0)
(0 0 0)
(0 0 0)
(0 0 0)
(0 0 0)
(0 0 0)
(0 0 0)
(0 0 0)
(0 0 0)
(0 0 0)
(0 0 0)
(0 0 0)
(0 0 0)
(0 0 0)
(0 0 0)
(0 0 0)
(0 0 0)
(0 0 0)
(0 0 0)
(0 0 0)
(0 0 0)
(0 0 0)
(0 0 0)
(0 0 0)
(0 0 0)
(0 0 0)
(0 0 0)
(0 0 0)
(0 0 0)
(0 0 0)
(0 0 0)
(0 0 0)
(0 0 0)
(0 0 0)
(0 0 0)
(0 0 0)
(0 0 0)
(0 0 0)
(0 0 0)
(0 0 0)
(0 0 0)
(0 0 0)
(0 0 0)
(0 0 0)
(0 0 0)
(0 0 0)
(0 0 0)
(0 0 0)
(0 0 0)
(0 0 0)
(0 0 0)
(0 0 0)
(0 0 0)
(0 0 0)
(0 0 0)
(0 0 0)
(0 0 0)
(0 0 0)
(0 0 0)
(0 0 0)
(0 0 0)
(0 0 0)
(0 0 0)
(0 0 0)
(0 0 0)
(0 0 0)
(0 0 0)
(0 0 0)
(0 0 0)
(0 0 0)
(0 0 0)
(0 0 0)
(0 0 0)
(0 0 0)
(0 0 0)
(0 0 0)
(0 0 0)
(0 0 0)
(0 0 0)
(0 0 0)
(0 0 0)
(0 0 0)
(0 0 0)
(0 0 0)
(0 0 0)
(0 0 0)
(0 0 0)
(0 0 0)
(0 0 0)
(0 0 0)
(0 0 0)
(0 0 0)
(0 0 0)
(0 0 0)
(0 0 0)
(0 0 0)
(0 0 0)
(0 0 0)
(0 0 0)
(0 0 0)
(0 0 0)
(0 0 0)
(0 0 0)
(0 0 0)
(0 0 0)
(0 0 0)
(0 0 0)
(0 0 0)
(0 0 0)
(0 0 0)
(0 0 0)
(0 0 0)
(0 0 0)
(0 0 0)
(0 0 0)
(0 0 0)
(0 0 0)
(0 0 0)
(0 0 0)
(0 0 0)
(0 0 0)
(0 0 0)
(0 0 0)
(0 0 0)
(0 0 0)
(0 0 0)
(0 0 0)
(0 0 0)
(0 0 0)
(0 0 0)
(0 0 0)
(0 0 0)
(0 0 0)
(0 0 0)
(0 0 0)
(0 0 0)
(0 0 0)
(0 0 0)
(0 0 0)
(0 0 0)
(0 0 0)
(0 0 0)
(0 0 0)
(0 0 0)
(0 0 0)
(0 0 0)
(0 0 0)
(0 0 0)
(0 0 0)
(0 0 0)
(0 0 0)
(0 0 0)
(0 0 0)
(0 0 0)
(0 0 0)
(0 0 0)
(0 0 0)
(0 0 0)
(0 0 0)
(0 0 0)
(0 0 0)
(0 0 0)
(0 0 0)
(0 0 0)
(0 0 0)
(0 0 0)
(0 0 0)
(0 0 0)
(0 0 0)
(0 0 0)
(0 0 0)
(0 0 0)
(0 0 0)
(0 0 0)
(0 0 0)
(0 0 0)
(0 0 0)
(0 0 0)
(0 0 0)
(0 0 0)
(0 0 0)
(0 0 0)
(0 0 0)
(0 0 0)
(0 0 0)
(0 0 0)
(0 0 0)
(0 0 0)
(0 0 0)
(0 0 0)
(0 0 0)
(0 0 0)
(0 0 0)
(0 0 0)
(0 0 0)
(0 0 0)
(0 0 0)
(0 0 0)
(0 0 0)
(0 0 0)
(0 0 0)
(0 0 0)
(0 0 0)
(0 0 0)
(0 0 0)
(0 0 0)
(0 0 0)
(0 0 0)
(0 0 0)
(0 0 0)
(0 0 0)
(0 0 0)
(0 0 0)
(0 0 0)
(0 0 0)
(0 0 0)
(0 0 0)
(0 0 0)
(0 0 0)
(0 0 0)
(0 0 0)
(0 0 0)
(0 0 0)
(0 0 0)
(0 0 0)
(0 0 0)
(0 0 0)
(0 0 0)
(0 0 0)
(0 0 0)
(0 0 0)
(0 0 0)
(0 0 0)
(0 0 0)
(0 0 0)
(0 0 0)
(0 0 0)
(0 0 0)
(0 0 0)
(0 0 0)
(0 0 0)
(0 0 0)
(0 0 0)
(0 0 0)
(0 0 0)
(0 0 0)
(0 0 0)
(0 0 0)
(0 0 0)
(0 0 0)
(0 0 0)
(0 0 0)
(0 0 0)
(0 0 0)
(0 0 0)
(0 0 0)
(0 0 0)
(0 0 0)
(0 0 0)
(0 0 0)
(0 0 0)
(0 0 0)
(0 0 0)
(0 0 0)
(0 0 0)
(0 0 0)
(0 0 0)
(0 0 0)
(0 0 0)
(0 0 0)
(0 0 0)
(0 0 0)
(0 0 0)
(0 0 0)
(0 0 0)
(0 0 0)
(0 0 0)
(0 0 0)
(0 0 0)
(0 0 0)
(0 0 0)
(0 0 0)
(0 0 0)
(0 0 0)
(0 0 0)
(0 0 0)
(0 0 0)
(0 0 0)
(0 0 0)
(0 0 0)
(0 0 0)
(0 0 0)
(0 0 0)
(0 0 0)
(0 0 0)
(0 0 0)
(0 0 0)
(0 0 0)
(0 0 0)
(0 0 0)
(0 0 0)
(0 0 0)
(0 0 0)
(0 0 0)
(0 0 0)
(0 0 0)
(0 0 0)
(0 0 0)
(0 0 0)
(0 0 0)
(0 0 0)
(0 0 0)
(0 0 0)
(0 0 0)
(0 0 0)
(0 0 0)
(0 0 0)
(0 0 0)
(0 0 0)
(0 0 0)
(0 0 0)
(0 0 0)
(0 0 0)
(0 0 0)
(0 0 0)
(0 0 0)
(0 0 0)
(0 0 0)
(0 0 0)
(0 0 0)
(0 0 0)
(0 0 0)
(0 0 0)
(0 0 0)
(0 0 0)
(0 0 0)
(0 0 0)
(0 0 0)
(0 0 0)
(0 0 0)
(0 0 0)
(0 0 0)
(0 0 0)
(0 0 0)
(0 0 0)
(0 0 0)
(0 0 0)
(0 0 0)
(0 0 0)
(0 0 0)
(0 0 0)
(0 0 0)
(0 0 0)
(0 0 0)
(0 0 0)
(0 0 0)
(0 0 0)
(0 0 0)
(0 0 0)
(0 0 0)
(0 0 0)
(0 0 0)
(0 0 0)
(0 0 0)
(0 0 0)
(0 0 0)
(0 0 0)
(0 0 0)
(0 0 0)
(0 0 0)
(0 0 0)
(0 0 0)
(0 0 0)
(0 0 0)
(0 0 0)
(0 0 0)
(0 0 0)
(0 0 0)
(0 0 0)
(0 0 0)
(0 0 0)
(0 0 0)
(0 0 0)
(0 0 0)
(0 0 0)
(0 0 0)
(0 0 0)
(0 0 0)
(0 0 0)
(0 0 0)
(0 0 0)
(0 0 0)
(0 0 0)
(0 0 0)
(0 0 0)
(0 0 0)
(0 0 0)
(0 0 0)
(0 0 0)
(0 0 0)
(0 0 0)
(0 0 0)
(0 0 0)
(0 0 0)
(0 0 0)
(0 0 0)
(0 0 0)
(0 0 0)
(0 0 0)
(0 0 0)
(0 0 0)
(0 0 0)
(0 0 0)
(0 0 0)
(0 0 0)
(0 0 0)
(0 0 0)
(0 0 0)
(0 0 0)
(0 0 0)
(0 0 0)
(0 0 0)
(0 0 0)
(0 0 0)
(0 0 0)
(0 0 0)
(0 0 0)
(0 0 0)
(0 0 0)
(0 0 0)
(0 0 0)
(0 0 0)
(0 0 0)
(0 0 0)
(0 0 0)
(0 0 0)
(0 0 0)
(0 0 0)
(0 0 0)
(0 0 0)
(0 0 0)
(0 0 0)
(0 0 0)
(0 0 0)
(0 0 0)
(0 0 0)
(0 0 0)
(0 0 0)
(0 0 0)
(0 0 0)
(0 0 0)
(0 0 0)
(0 0 0)
(0 0 0)
(0 0 0)
(0 0 0)
(0 0 0)
(0 0 0)
(0 0 0)
(0 0 0)
(0 0 0)
(0 0 0)
(0 0 0)
(0 0 0)
(0 0 0)
(0 0 0)
(0 0 0)
(0 0 0)
(0 0 0)
(0 0 0)
(0 0 0)
(0 0 0)
(0 0 0)
(0 0 0)
(0 0 0)
(0 0 0)
(0 0 0)
(0 0 0)
(0 0 0)
(0 0 0)
(0 0 0)
(0 0 0)
(0 0 0)
(0 0 0)
(0 0 0)
(0 0 0)
(0 0 0)
(0 0 0)
(0 0 0)
(0 0 0)
(0 0 0)
(0 0 0)
(0 0 0)
(0 0 0)
(0 0 0)
(0 0 0)
(0 0 0)
(0 0 0)
(0 0 0)
(0 0 0)
(0 0 0)
(0 0 0)
(0 0 0)
(0 0 0)
(0 0 0)
(0 0 0)
(0 0 0)
(0 0 0)
(0 0 0)
(0 0 0)
(0 0 0)
(0 0 0)
(0 0 0)
(0 0 0)
(0 0 0)
(0 0 0)
(0 0 0)
(0 0 0)
(0 0 0)
(0 0 0)
(0 0 0)
(0 0 0)
(0 0 0)
(0 0 0)
(0 0 0)
(0 0 0)
(0 0 0)
(0 0 0)
(0 0 0)
(0 0 0)
(0 0 0)
(0 0 0)
(0 0 0)
(0 0 0)
(0 0 0)
(0 0 0)
(0 0 0)
(0 0 0)
(0 0 0)
(0 0 0)
(0 0 0)
(0 0 0)
(0 0 0)
(0 0 0)
(0 0 0)
(0 0 0)
(0 0 0)
(0 0 0)
(0 0 0)
(0 0 0)
(0 0 0)
(0 0 0)
(0 0 0)
(0 0 0)
(0 0 0)
(0 0 0)
(0 0 0)
(0 0 0)
(0 0 0)
(0 0 0)
(0 0 0)
(0 0 0)
(0 0 0)
(0 0 0)
(0 0 0)
(0 0 0)
(0 0 0)
(0 0 0)
(0 0 0)
(0 0 0)
(0 0 0)
(0 0 0)
(0 0 0)
(0 0 0)
(0 0 0)
(0 0 0)
(0 0 0)
(0 0 0)
(0 0 0)
(0 0 0)
(0 0 0)
(0 0 0)
(0 0 0)
(0 0 0)
(0 0 0)
(0 0 0)
(0 0 0)
(0 0 0)
(0 0 0)
(0 0 0)
(0 0 0)
(0 0 0)
(0 0 0)
(0 0 0)
(0 0 0)
(0 0 0)
(0 0 0)
(0 0 0)
(0 0 0)
(0 0 0)
(0 0 0)
(0 0 0)
(0 0 0)
(0 0 0)
(0 0 0)
(0 0 0)
(0 0 0)
(0 0 0)
(0 0 0)
(0 0 0)
(0 0 0)
(0 0 0)
(0 0 0)
(0 0 0)
(0 0 0)
(0 0 0)
(0 0 0)
(0 0 0)
(0 0 0)
(0 0 0)
(0 0 0)
(0 0 0)
(0 0 0)
(0 0 0)
(0 0 0)
(0 0 0)
(0 0 0)
(0 0 0)
(0 0 0)
(0 0 0)
(0 0 0)
(0 0 0)
(0 0 0)
(0 0 0)
(0 0 0)
(0 0 0)
(0 0 0)
(0 0 0)
(0 0 0)
(0 0 0)
(0 0 0)
(0 0 0)
(0 0 0)
(0 0 0)
(0 0 0)
(0 0 0)
(0 0 0)
(0 0 0)
(0 0 0)
(0 0 0)
(0 0 0)
(0 0 0)
(0 0 0)
(0 0 0)
(0 0 0)
(0 0 0)
(0 0 0)
(0 0 0)
(0 0 0)
(0 0 0)
(0 0 0)
(0 0 0)
(0 0 0)
(0 0 0)
(0 0 0)
(0 0 0)
(0 0 0)
(0 0 0)
(0 0 0)
(0 0 0)
(0 0 0)
(0 0 0)
(0 0 0)
(0 0 0)
(0 0 0)
(0 0 0)
(0 0 0)
(0 0 0)
(0 0 0)
(0 0 0)
(0 0 0)
(0 0 0)
(0 0 0)
(0 0 0)
(0 0 0)
(0 0 0)
(0 0 0)
(0 0 0)
(0 0 0)
(0 0 0)
(0 0 0)
(0 0 0)
(0 0 0)
(0 0 0)
(0 0 0)
(0 0 0)
(0 0 0)
(0 0 0)
(0 0 0)
(0 0 0)
(0 0 0)
(0 0 0)
(0 0 0)
(0 0 0)
(0 0 0)
(0 0 0)
(0 0 0)
(0 0 0)
(0 0 0)
(0 0 0)
(0 0 0)
(0 0 0)
(0 0 0)
(0 0 0)
(0 0 0)
(0 0 0)
(0 0 0)
(0 0 0)
(0 0 0)
(0 0 0)
(0 0 0)
(0 0 0)
(0 0 0)
(0 0 0)
(0 0 0)
(0 0 0)
(0 0 0)
(0 0 0)
(0 0 0)
(0 0 0)
(0 0 0)
(0 0 0)
(0 0 0)
(0 0 0)
(0 0 0)
(0 0 0)
(0 0 0)
(0 0 0)
(0 0 0)
(0 0 0)
(0 0 0)
(0 0 0)
(0 0 0)
(0 0 0)
(0 0 0)
(0 0 0)
(0 0 0)
(0 0 0)
(0 0 0)
(0 0 0)
(0 0 0)
(0 0 0)
(0 0 0)
(0 0 0)
(0 0 0)
(0 0 0)
(0 0 0)
(0 0 0)
(0 0 0)
(0 0 0)
(0 0 0)
(0 0 0)
(0 0 0)
(0 0 0)
(0 0 0)
(0 0 0)
(0 0 0)
(0 0 0)
(0 0 0)
(0 0 0)
(0 0 0)
(0 0 0)
(0 0 0)
(0 0 0)
(0 0 0)
(0 0 0)
(0 0 0)
(0 0 0)
(0 0 0)
(0 0 0)
(0 0 0)
(0 0 0)
(0 0 0)
(0 0 0)
(0 0 0)
(0 0 0)
(0 0 0)
(0 0 0)
(0 0 0)
(0 0 0)
(0 0 0)
(0 0 0)
(0 0 0)
(0 0 0)
(0 0 0)
(0 0 0)
(0 0 0)
(0 0 0)
(0 0 0)
(0 0 0)
(0 0 0)
(0 0 0)
(0 0 0)
(0 0 0)
(0 0 0)
(0 0 0)
(0 0 0)
(0 0 0)
(0 0 0)
(0 0 0)
(0 0 0)
(0 0 0)
(0 0 0)
(0 0 0)
(0 0 0)
(0 0 0)
(0 0 0)
(0 0 0)
(0 0 0)
(0 0 0)
(0 0 0)
(0 0 0)
(0 0 0)
(0 0 0)
(0 0 0)
(0 0 0)
(0 0 0)
(0 0 0)
(0 0 0)
(0 0 0)
(0 0 0)
(0 0 0)
(0 0 0)
(0 0 0)
(0 0 0)
(0 0 0)
(0 0 0)
(0 0 0)
(0 0 0)
(0 0 0)
(0 0 0)
(0 0 0)
(0 0 0)
(0 0 0)
(0 0 0)
(0 0 0)
(0 0 0)
(0 0 0)
(0 0 0)
(0 0 0)
(0 0 0)
(0 0 0)
(0 0 0)
(0 0 0)
(0 0 0)
(0 0 0)
(0 0 0)
(0 0 0)
(0 0 0)
(0 0 0)
(0 0 0)
(0 0 0)
(0 0 0)
(0 0 0)
(0 0 0)
(0 0 0)
(0 0 0)
(0 0 0)
(0 0 0)
(0 0 0)
(0 0 0)
(0 0 0)
(0 0 0)
(0 0 0)
(0 0 0)
(0 0 0)
(0 0 0)
(0 0 0)
(0 0 0)
(0 0 0)
(0 0 0)
(0 0 0)
(0 0 0)
(0 0 0)
(0 0 0)
(0 0 0)
(0 0 0)
(0 0 0)
(0 0 0)
(0 0 0)
(0 0 0)
(0 0 0)
(0 0 0)
(0 0 0)
(0 0 0)
(0 0 0)
(0 0 0)
(0 0 0)
(0 0 0)
(0 0 0)
(0 0 0)
(0 0 0)
(0 0 0)
(0 0 0)
(0 0 0)
(0 0 0)
(0 0 0)
(0 0 0)
(0 0 0)
(0 0 0)
(0 0 0)
(0 0 0)
(0 0 0)
(0 0 0)
(0 0 0)
(0 0 0)
(0 0 0)
(0 0 0)
(0 0 0)
(0 0 0)
(0 0 0)
(0 0 0)
(0 0 0)
(0 0 0)
(0 0 0)
(0 0 0)
(0 0 0)
(0 0 0)
(0 0 0)
(0 0 0)
(0 0 0)
(0 0 0)
(0 0 0)
(0 0 0)
(0 0 0)
(0 0 0)
(0 0 0)
(0 0 0)
(0 0 0)
(0 0 0)
(0 0 0)
(0 0 0)
(0 0 0)
(0 0 0)
(0 0 0)
(0 0 0)
(0 0 0)
(0 0 0)
(0 0 0)
(0 0 0)
(0 0 0)
(0 0 0)
(0 0 0)
(0 0 0)
(0 0 0)
(0 0 0)
(0 0 0)
(0 0 0)
(0 0 0)
(0 0 0)
(0 0 0)
(0 0 0)
(0 0 0)
(0 0 0)
(0 0 0)
(0 0 0)
(0 0 0)
(0 0 0)
(0 0 0)
(0 0 0)
(0 0 0)
(0 0 0)
(0 0 0)
(0 0 0)
(0 0 0)
(0 0 0)
(0 0 0)
(0 0 0)
(0 0 0)
(0 0 0)
(0 0 0)
(0 0 0)
(0 0 0)
(0 0 0)
(0 0 0)
(0 0 0)
(0 0 0)
(0 0 0)
(0 0 0)
(0 0 0)
(0 0 0)
(0 0 0)
(0 0 0)
(0 0 0)
(0 0 0)
(0 0 0)
(0 0 0)
(0 0 0)
(0 0 0)
(0 0 0)
(0 0 0)
(0 0 0)
(0 0 0)
(0 0 0)
(0 0 0)
(0 0 0)
(0 0 0)
(0 0 0)
(0 0 0)
(0 0 0)
(0 0 0)
(0 0 0)
(0 0 0)
(0 0 0)
(0 0 0)
(0 0 0)
(0 0 0)
(0 0 0)
(0 0 0)
(0 0 0)
(0 0 0)
(0 0 0)
(0 0 0)
(0 0 0)
(0 0 0)
(0 0 0)
(0 0 0)
(0 0 0)
(0 0 0)
(0 0 0)
(0 0 0)
(0 0 0)
(0 0 0)
(0 0 0)
(0 0 0)
(0 0 0)
(0 0 0)
(0 0 0)
(0 0 0)
(0 0 0)
(0 0 0)
(0 0 0)
(0 0 0)
(0 0 0)
(0 0 0)
(0 0 0)
(0 0 0)
(0 0 0)
(0 0 0)
(0 0 0)
(0 0 0)
(0 0 0)
(0 0 0)
(0 0 0)
(0 0 0)
(0 0 0)
(0 0 0)
(0 0 0)
(0 0 0)
(0 0 0)
(0 0 0)
(0 0 0)
(0 0 0)
(0 0 0)
(0 0 0)
(0 0 0)
(0 0 0)
(0 0 0)
(0 0 0)
(0 0 0)
(0 0 0)
(0 0 0)
(0 0 0)
(0 0 0)
(0 0 0)
(0 0 0)
(0 0 0)
(0 0 0)
(0 0 0)
(0 0 0)
(0 0 0)
(0 0 0)
(0 0 0)
(0 0 0)
(0 0 0)
(0 0 0)
(0 0 0)
(0 0 0)
(0 0 0)
(0 0 0)
(0 0 0)
(0 0 0)
(0 0 0)
(0 0 0)
(0 0 0)
(0 0 0)
(0 0 0)
(0 0 0)
(0 0 0)
(0 0 0)
(0 0 0)
(0 0 0)
(0 0 0)
(0 0 0)
(0 0 0)
(0 0 0)
(0 0 0)
(0 0 0)
(0 0 0)
(0 0 0)
(0 0 0)
(0 0 0)
(0 0 0)
(0 0 0)
(0 0 0)
(0 0 0)
(0 0 0)
(0 0 0)
(0 0 0)
(0 0 0)
(0 0 0)
(0 0 0)
(0 0 0)
(0 0 0)
(0 0 0)
(0 0 0)
(0 0 0)
(0 0 0)
(0 0 0)
(0 0 0)
(0 0 0)
(0 0 0)
(0 0 0)
(0 0 0)
(0 0 0)
(0 0 0)
(0 0 0)
(0 0 0)
(0 0 0)
(0 0 0)
(0 0 0)
(0 0 0)
(0 0 0)
(0 0 0)
(0 0 0)
(0 0 0)
(0 0 0)
(0 0 0)
(0 0 0)
(0 0 0)
(0 0 0)
(0 0 0)
(0 0 0)
(0 0 0)
(0 0 0)
(0 0 0)
(0 0 0)
(0 0 0)
(0 0 0)
(0 0 0)
(0 0 0)
(0 0 0)
(0 0 0)
(0 0 0)
(0 0 0)
(0 0 0)
(0 0 0)
(0 0 0)
(0 0 0)
(0 0 0)
(0 0 0)
(0 0 0)
(0 0 0)
(0 0 0)
(0 0 0)
(0 0 0)
(0 0 0)
(0 0 0)
(0 0 0)
(0 0 0)
(0 0 0)
(0 0 0)
(0 0 0)
(0 0 0)
(0 0 0)
(0 0 0)
(0 0 0)
(0 0 0)
(0 0 0)
(0 0 0)
(0 0 0)
(0 0 0)
(0 0 0)
(0 0 0)
(0 0 0)
(0 0 0)
(0 0 0)
(0 0 0)
(0 0 0)
(0 0 0)
(0 0 0)
(0 0 0)
(0 0 0)
(0 0 0)
(0 0 0)
(0 0 0)
(0 0 0)
(0 0 0)
(0 0 0)
(0 0 0)
(0 0 0)
(0 0 0)
(0 0 0)
(0 0 0)
(0 0 0)
(0 0 0)
(0 0 0)
(0 0 0)
(0 0 0)
(0 0 0)
(0 0 0)
(0 0 0)
(0 0 0)
(0 0 0)
(0 0 0)
(0 0 0)
(0 0 0)
(0 0 0)
(0 0 0)
(0 0 0)
(0 0 0)
(0 0 0)
(0 0 0)
(0 0 0)
(0 0 0)
(0 0 0)
(0 0 0)
(0 0 0)
(0 0 0)
(0 0 0)
(0 0 0)
(0 0 0)
(0 0 0)
(0 0 0)
(0 0 0)
(0 0 0)
(0 0 0)
(0 0 0)
(0 0 0)
(0 0 0)
(0 0 0)
(0 0 0)
(0 0 0)
(0 0 0)
(0 0 0)
(0 0 0)
(0 0 0)
(0 0 0)
(0 0 0)
(0 0 0)
(0 0 0)
(0 0 0)
(0 0 0)
(0 0 0)
(0 0 0)
(0 0 0)
(0 0 0)
(0 0 0)
(0 0 0)
(0 0 0)
(0 0 0)
(0 0 0)
(0 0 0)
(0 0 0)
(0 0 0)
(0 0 0)
(0 0 0)
(0 0 0)
(0 0 0)
(0 0 0)
(0 0 0)
(0 0 0)
(0 0 0)
(0 0 0)
(0 0 0)
(0 0 0)
(0 0 0)
(0 0 0)
(0 0 0)
(0 0 0)
(0 0 0)
(0 0 0)
(0 0 0)
(0 0 0)
(0 0 0)
(0 0 0)
(0 0 0)
(0 0 0)
(0 0 0)
(0 0 0)
(0 0 0)
(0 0 0)
(0 0 0)
(0 0 0)
(0 0 0)
(0 0 0)
(0 0 0)
(0 0 0)
(0 0 0)
(0 0 0)
(0 0 0)
(0 0 0)
(0 0 0)
(0 0 0)
(0 0 0)
(0 0 0)
(0 0 0)
(0 0 0)
(0 0 0)
(0 0 0)
(0 0 0)
(0 0 0)
(0 0 0)
(0 0 0)
(0 0 0)
(0 0 0)
(0 0 0)
(0 0 0)
(0 0 0)
(0 0 0)
(0 0 0)
(0 0 0)
(0 0 0)
(0 0 0)
(0 0 0)
(0 0 0)
(0 0 0)
(0 0 0)
(0 0 0)
(0 0 0)
(0 0 0)
(0 0 0)
(0 0 0)
(0 0 0)
(0 0 0)
(0 0 0)
(0 0 0)
(0 0 0)
(0 0 0)
(0 0 0)
(0 0 0)
(0 0 0)
(0 0 0)
(0 0 0)
(0 0 0)
(0 0 0)
(0 0 0)
(0 0 0)
(0 0 0)
(0 0 0)
(0 0 0)
(0 0 0)
(0 0 0)
(0 0 0)
(0 0 0)
(0 0 0)
(0 0 0)
(0 0 0)
(0 0 0)
(0 0 0)
(0.0238448 0.00311815 -0.00333468)
(-0.00470376 0.00814448 -0.00101885)
(0.0147527 0.0222197 0.00361727)
(0.00109491 0.0279062 0.000835446)
(0.00365129 0.0102986 -0.00205536)
(0.00244665 0.0289359 -0.000464075)
(0.011611 0.0201726 -0.0027692)
(0.0108259 0.01488 -0.0023323)
(0.0359327 -0.0187757 -0.0151099)
(0.0410015 -0.0137631 -0.00846296)
(0.0727386 -0.0102484 0.00422337)
(0.0705811 -0.0273677 -0.00914041)
(0.122911 -0.0402219 0.00642797)
(0.0707376 0.0164472 0.0385698)
(0.0308986 0.03351 0.025864)
(0.110831 -0.0272805 0.0495506)
(0.0563189 -0.0113892 0.0412944)
(-0.00812861 0.0400469 0.00879104)
(-0.0108188 0.0395289 -0.000780997)
(0.0149586 -0.00511775 0.0223597)
(-0.0133003 0.0122413 0.0209662)
(0.00808196 0.0258768 -0.00622244)
(0.0211126 0.0217684 -0.00293507)
(-0.0103795 0.0177661 0.00711561)
(0.0215936 0.0215879 0.00286385)
(0.0162768 0.0110635 0.00663429)
(0.0352118 -0.0110916 -0.0160429)
(-0.00405891 0.00635712 0.00405615)
(-0.00583019 0.00538603 -0.00218106)
(0.0961804 -0.0332624 -0.0145071)
(0.120489 -0.0585525 -0.0113648)
(0.0319865 -0.0163615 -0.0108554)
(0.0411495 -0.0887308 -0.00327657)
(0.119116 -0.100381 0.0301298)
(0.0786399 -0.11092 0.0551846)
(0.059129 -0.156245 0.0134077)
(0.0389977 -0.175866 0.0250398)
(0.0296122 -0.0918022 0.0364108)
(-0.00515558 -0.0661516 0.0179038)
(0.00239507 -0.1227 0.00275968)
(-0.00573815 -0.059899 -0.0116449)
(-0.00295128 -0.028993 -0.00704684)
(0.0273589 -0.0122321 -0.00275212)
(0.0194983 -0.0105035 -0.0080174)
(0.0359951 -0.000898416 -0.0021892)
(0.0153591 -0.00814171 0.00303951)
(0.0206286 -0.00436301 0.00184873)
(0.00585875 -6.10827e-05 0.00233958)
(-0.00346161 0.0010384 0.00790408)
(-0.011612 0.0120324 0.0035562)
(0.00909926 0.0209628 0.00130259)
(-0.0216803 0.0151085 0.0136123)
(-0.0296319 -0.0451631 -0.00590155)
(-0.0169594 0.0228155 0.0189201)
(-0.0433809 0.00774229 -0.00156134)
(-0.00153805 -0.10052 -0.0171421)
(0.0111987 -0.111988 -0.0242416)
(-0.0206153 0.00323522 -0.0199473)
(0.0156066 0.0132456 -0.0283436)
(0.0157131 -0.0562086 -0.0191912)
(0.0301919 -0.0005222 -0.0113112)
(0.0444717 0.0308727 -0.0168401)
(0.0606674 0.035217 0.00162324)
(0.0429381 0.0128742 -0.000759006)
(0.0389212 0.000663399 -0.00117928)
(0.0515168 0.0182927 0.0114142)
(0.0424658 -0.000345356 0.00329311)
(0.0191842 -0.005201 0.00449896)
(0.0061753 -0.00116809 0.00508378)
(0.0237625 -0.00670585 0.00524611)
(0.00229917 0.0141828 0.00107747)
(-0.00417523 0.0194067 0.00467421)
(-0.00899082 0.0340105 -0.00379902)
(0.00136593 0.00857224 -0.000212084)
(0.0175975 0.0273372 -0.00365384)
(0.00306275 0.070513 -0.0110929)
(0.0281727 0.0876772 -0.00732373)
(0.0363604 0.0638841 0.00484744)
(0.0342622 0.0828034 0.0148212)
(0.0510527 0.0833112 -0.000877828)
(0.067303 0.0431165 0.0169568)
(0.0263194 0.0688951 0.0151082)
(0.0356006 0.00668516 0.012156)
(0.0559692 0.00531052 0.0185415)
(0.0296798 -0.004165 0.00611879)
(0.0269857 -0.0251279 0.00262797)
(0.0138843 -0.00977795 0.000450236)
(0.0142983 -0.00420014 0.00429639)
(0.0241292 0.0203875 -0.000558661)
(0.028725 0.0280384 0.0134801)
(0.0197749 0.0398967 0.0183382)
(0.00770071 0.0121953 0.0163298)
(-0.000594321 0.0278377 0.014887)
(0.00553816 -0.0231895 -0.0154867)
(-0.00181099 0.00949903 0.0125529)
(0.00883986 -0.0246176 -0.0173597)
(0.0429564 -0.00861544 -0.0159325)
(0.0525222 -0.0182613 -0.045426)
(0.0094471 0.00595888 -0.0170375)
(0.037507 0.0126149 0.00382629)
(0.0253687 0.0406356 -0.0138646)
(0.0385855 0.000311602 -0.060551)
(0.058056 -0.000451323 -0.00944903)
(0.0537918 0.0349477 -0.0702234)
(0.0129982 0.0492976 -0.0386147)
(0.0142885 0.031473 -0.0248323)
(0.0340319 0.00892631 -0.060702)
(0.0358059 0.0463098 -0.101841)
(0.0163707 0.0277505 -0.0607773)
(0.01154 0.0181424 -0.0129042)
(0.00772618 0.0162006 -0.0314261)
(0.0332453 -0.0114693 -0.0780321)
(0.0308241 -0.01483 -0.13005)
(0.104088 -0.00290115 0.0145853)
(0.0972781 -0.0147293 -0.0245925)
(0.173901 -0.0286804 0.0763753)
(0.0344986 -0.0027744 -0.0871391)
(0.0807333 -0.0105429 -0.0113554)
(0.0790203 -0.00586814 -0.0582901)
(0.147522 -0.0535878 0.0870807)
(0.0198919 0.0288622 -0.0300534)
(-0.0259656 0.0660311 -0.0517524)
(0.0303141 0.0581928 -0.00187825)
(-0.00254148 0.0427664 -0.0676141)
(0.00306788 0.0242648 -0.0802303)
(-0.0164422 0.0580445 -0.179712)
(0.0152627 0.0448558 -0.177179)
(0.0188608 0.027817 0.0226886)
(-0.000722998 0.0289518 -0.238361)
(0.0305085 0.0128769 -0.0667416)
(-0.0246008 0.0453578 0.0485118)
(-0.0197416 0.0422519 -0.0273529)
(0.0414541 -0.00610837 -0.126582)
(-0.0301102 0.0447701 0.0884068)
(0.0510362 0.00947624 -0.112117)
(0.0127367 0.0159025 -0.00784697)
(0.0083444 0.0113732 -0.00296762)
(0.0126033 0.0509725 -0.231183)
(0.017371 0.0414035 -0.1661)
(0.0279729 0.0191131 -0.171215)
(-0.00503324 0.0312495 -0.0067782)
(0.0261684 0.0363879 -0.00654408)
(-0.00282481 0.0320829 0.0121851)
(0.0341767 0.0261409 -0.0726965)
(0.0276259 0.0399667 -0.0507202)
(0.00310875 -0.00116215 -0.0024017)
(0.0196793 -0.0120147 0.0142887)
(0.0318146 0.0281413 -0.18063)
(0.0153487 -0.0231649 -0.185384)
(0.0127697 0.00899392 -0.0925543)
(0.01679 0.0245613 0.00255678)
(0.0185207 0.0495105 -0.0311768)
(-0.0110426 0.0404785 -0.0208616)
(0.0059552 0.0102809 -0.0032783)
(0.0424966 0.0281793 -0.0296149)
(0.0372146 0.021488 -0.0671316)
(-0.0180314 0.0274878 -0.117932)
(0.0254375 0.0163277 -0.110348)
(0.0672176 0.00574235 -0.141056)
(0.0333656 -0.0143072 0.0173439)
(0.0255506 -0.0456618 0.00563495)
(0.0113682 -0.0240637 -0.0130751)
(0.0536994 -0.00982204 0.0498869)
(0.0421946 0.0135473 -0.00360316)
(0.0242061 -0.0123119 -0.0139921)
(-0.00998863 -0.00330662 -0.0835917)
(-0.0085222 -0.0088528 -0.0732331)
(0.0683476 0.0326026 -0.0281417)
(0.0883881 0.032908 -0.11996)
(0.0169127 0.0441637 0.0720816)
(-0.025725 0.0121651 0.0611815)
(0.144039 0.0399969 -0.165037)
(0.0568463 0.0226076 -0.0324186)
(0.0363514 0.0237784 -0.0519614)
(-0.00717595 -0.0351694 -0.0711507)
(-0.0296587 0.00706113 0.0209706)
(-0.00743119 -0.023315 -0.0659486)
(0.0172226 -0.0262277 -0.131382)
(-0.0137585 0.00391349 -0.0859471)
(-0.00280437 -0.0103784 -0.135249)
(0.0807366 -0.0322425 -0.143379)
(0.0491575 -0.05757 -0.302842)
(0.068279 0.00632857 -0.135414)
(0.0577099 -0.0412526 -0.241981)
(0.0667629 -0.0302564 -0.240608)
(0.043316 -0.053536 -0.278542)
(0.0233724 -0.0854341 -0.347533)
(0.0667656 -0.0914472 -0.341982)
(0.0827518 -0.0406574 -0.236109)
(0.0645111 -0.000325907 -0.133333)
(0.0543953 -0.186076 -0.386804)
(0.100145 -0.121214 -0.329567)
(0.158789 -0.0633556 -0.313871)
(0.0150399 0.0229214 -0.0650052)
(0.111817 0.150133 -0.224484)
(0.0241694 -0.00960118 -0.159821)
(0.0219658 -0.00722072 -0.213339)
(0.0509242 -0.0152897 -0.11199)
(0.0528876 0.000887158 -0.0847532)
(0.089136 -0.0871258 0.099629)
(0.0308202 -0.0136506 -0.244279)
(0.00654444 -0.0502093 -0.295172)
(0.0166957 0.00503869 -0.207516)
(-0.00420006 -0.0845678 0.0654253)
(-0.017751 -0.00523189 -0.121002)
(0.0443145 -0.0142959 -0.240494)
(-0.046304 -0.0265243 -0.228001)
(0.169872 -0.0841888 -0.317576)
(-0.0316877 -0.0917039 -0.218281)
(0.141607 -0.0283249 -0.260285)
(-0.0649907 -0.103871 -0.25743)
(-0.0420244 -0.0508695 -0.262467)
(-0.0529371 -0.102795 -0.255163)
(0.0430136 -0.0150247 -0.172448)
(0.0585488 -0.00421949 -0.16786)
(0.09503 -0.0222374 -0.176995)
(0.0347009 -0.000660262 -0.210201)
(0.0372977 -0.00726289 -0.229767)
(0.0804546 -0.0251797 -0.208659)
(-0.00266275 0.0105702 -0.229504)
(-0.0029807 -0.0307515 -0.19965)
(-0.058099 -0.0972899 -0.220338)
(-0.0533509 -0.0671931 -0.180551)
(-0.0125349 -0.0839002 -0.164397)
(0.0570234 0.00304902 -0.194769)
(0.00658504 0.0109617 -0.230674)
(0.015296 0.00202385 -0.228142)
(0.0477763 -0.0186778 -0.223638)
(0.00192108 -0.00863924 -0.243144)
(0.0105821 -0.0429872 -0.245049)
(6.9354e-05 0.00726448 -0.259857)
(0.0287597 -0.0441022 -0.224131)
(0.0171049 -0.0743276 -0.211472)
(-0.018667 0.0014817 -0.240252)
(0.0276659 0.0177725 -0.249748)
(0.0360482 0.0200302 -0.24367)
(0.00756698 -0.0119591 -0.230648)
(0.058532 0.0336388 -0.286392)
(0.0531463 0.0135875 -0.273252)
(0.0633166 0.0437608 -0.238465)
(0.02223 -0.0204087 -0.247089)
(0.0601188 0.0457403 -0.267862)
(0.0490267 0.0154887 -0.291253)
(0.00579638 0.0301324 -0.267647)
(0.00555945 0.0596507 -0.224058)
(-0.0159142 0.0341056 -0.274403)
(-0.0366043 0.0321046 -0.194456)
(-0.00326369 0.0132226 -0.24236)
(-0.0211047 0.0527905 -0.223676)
(-0.0225292 0.0358087 -0.272665)
(-0.00172284 0.00222141 -0.264682)
(0.0548274 0.0204185 -0.237544)
(0.0229451 0.0136902 -0.308286)
(0.0936864 0.0150424 -0.172936)
(0.117946 0.0156293 -0.16407)
(0.00379142 -0.0236699 -0.298332)
(0.0670689 -0.0454323 -0.159452)
(0.107473 -0.00812409 -0.133963)
(0.0261142 -0.0212412 -0.235767)
(0.0769815 -0.0106243 -0.209595)
(0.0663937 -0.0614288 -0.226178)
(0.02129 -0.0078652 -0.23544)
(0.0724578 -0.0154291 -0.174726)
(-0.0317027 0.0272542 -0.245011)
(0.0366724 -0.0900909 -0.343907)
(0.0531668 -0.0366637 -0.286582)
(0 0 0)
(0.0559011 -0.10476 -0.362841)
(0.0615491 -0.166091 -0.336866)
(0 0 0)
(0.0319543 -0.159005 -0.354593)
(0 0 0)
(0.192292 -0.23793 -0.480191)
(0.122511 -0.137455 -0.416141)
(0 0 0)
(0 0 0)
(0 0 0)
(0 0 0)
(0 0 0)
(-0.00239863 0.00436904 -0.29692)
(-0.0144732 0.00535815 -0.300427)
(-0.00703723 -0.079074 -0.302739)
(-0.029485 0.00163525 -0.276899)
(-0.165323 0.0548469 -0.0923515)
(0.000393304 -0.0550308 -0.277433)
(-0.0410009 -0.0909786 -0.23314)
(-0.0388319 -0.00993651 -0.255425)
(-0.119021 -0.00123295 -0.0502191)
(0 0 0)
(0.191226 -0.0244547 -0.258996)
(-0.0996646 -0.172094 -0.274364)
(0 0 0)
(0 0 0)
(0.234602 -0.075335 -0.36026)
(0.00808253 -0.121585 -0.287904)
(-0.0577811 -0.153189 -0.252021)
(-0.0980249 -0.195779 -0.211054)
(0.00546686 0.0229802 -0.274298)
(0.0100809 0.00722605 -0.268675)
(0.036122 0.0019498 -0.250095)
(-0.0204805 0.0315735 -0.307956)
(-0.000215607 0.0265438 -0.304398)
(0.00204905 0.0321437 -0.301232)
(-0.0344595 -0.101081 -0.170638)
(-0.016636 -0.0903489 -0.102434)
(-0.0857585 -0.161024 -0.176119)
(-0.0717643 -0.111487 -0.191413)
(-0.0102193 -0.0785828 -0.145878)
(0.0375679 -0.00968859 -0.241812)
(0.0134626 0.0040512 -0.249163)
(0.00526939 0.0298755 -0.284765)
(0.0265356 0.0186254 -0.269524)
(0.0261996 0.0270268 -0.266603)
(0.0167912 -0.0649339 -0.169441)
(-0.0285254 -0.00791141 -0.203003)
(-0.0209829 -0.0485364 -0.206499)
(0.00262403 -0.0383784 -0.188365)
(-0.0548526 -0.0388054 -0.161398)
(0.0362955 0.0274212 -0.245391)
(0.0328398 0.0403193 -0.261411)
(0.0279651 -0.0194094 -0.237858)
(0.0527521 0.0451649 -0.255245)
(0.0458421 0.0128081 -0.281639)
(0.0456453 0.034295 -0.243605)
(0.0265751 -0.00530639 -0.232266)
(0.0487916 0.0406562 -0.254675)
(0.0441611 0.0180624 -0.272373)
(-0.0184096 0.0115214 -0.216975)
(-0.0341973 0.0470997 -0.203647)
(-0.0284336 0.0336212 -0.247918)
(-0.0726601 -0.035462 -0.174614)
(-0.0351237 -0.0313848 -0.189914)
(-0.0434006 0.0381379 -0.182917)
(-0.0279078 0.0207682 -0.220565)
(0.00168037 -0.0205655 -0.165574)
(0.0200518 0.00789134 -0.290238)
(0.0279483 0.0146313 -0.271106)
(0.0229613 -0.0760212 -0.156138)
(0.0808753 -0.00518929 -0.132622)
(-0.00577021 -0.02086 -0.258803)
(-0.0156703 -0.0683837 -0.183264)
(0.0262384 -0.00384428 -0.140516)
(0.0040456 0.00425025 -0.201755)
(0.0411334 -0.0168712 -0.149355)
(0.0198832 -0.0498265 -0.144695)
(-0.0258704 0.00881511 -0.176055)
(0.0289184 -0.023805 -0.116968)
(-0.0517637 0.030086 -0.192589)
(0.00314652 -0.178558 -0.246715)
(0 0 0)
(0 0 0)
(0 0 0)
(0 0 0)