/*--------------------------------*- C++ -*----------------------------------*\
| =========                 |                                                 |
| \\      /  F ield         | OpenFOAM: The Open Source CFD Toolbox           |
|  \\    /   O peration     | Version:  5.x                                   |
|   \\  /    A nd           | Web:      www.OpenFOAM.org                      |
|    \\/     M anipulation  |                                                 |
\*---------------------------------------------------------------------------*/
FoamFile
{
    version     2.0;
    format      ascii;
    class       volScalarField;
    location    "2.1";
    object      Ksl;
}
// * * * * * * * * * * * * * * * * * * * * * * * * * * * * * * * * * * * * * //

dimensions      [1 -3 -1 0 0 0 0];

internalField   nonuniform List<scalar> 
10571
(
201.944
1612.29
3021.97
5167.8
8634.41
6131.96
4224.4
5940.93
1768.58
4052.31
1958.8
7540.33
8623.48
10604
5029.64
2720.29
955.588
2108.76
7890.55
4982.02
7604.35
33.4183
2092.75
10759.5
10387
12586.3
12385.9
12404.9
11740.6
6442.99
5430.68
11210.9
4059.33
7163.35
0
19.1667
1415.56
10389.2
5676.42
5433.45
11.4396
573.563
2249.73
5998.82
3994.22
80.2631
0
1153.78
12933.5
12735.3
12084
12134.6
11350.5
71.9121
1524.3
2175.9
5893.21
7517.32
21.2326
238.042
632.936
903.63
5954.3
8774.23
42.4933
1538.72
1112.85
4000.95
6771.58
208.192
329.778
1878.46
12946.8
11844.2
10774.1
10796.7
11294.1
424.425
487.034
166.102
4902.63
9993.54
1356.89
29.8767
570.464
119.412
2074.29
10856
502.388
630.123
47.4518
19.7996
7057.41
867.351
489.291
31.5056
11993
1525.85
112.249
2785.99
4583.12
154.579
211.523
81.2814
715.458
9461.2
103.825
1118.73
232.629
117.119
180.397
10859.5
168.515
14.4382
6.11727
4.39978
1517.8
67.0528
11.7711
0
7101.01
173.298
33.3574
170.161
828.273
69.2231
11.1189
338.924
304.282
9312.59
14620.1
6.79628
19.4532
4.09864
23.2186
21.177
2623.97
7753.49
13.4199
3.91151
4.44832
0
24.3862
18.554
7.20279
0.358865
1750.09
89.2395
12.7891
75.4215
555.039
44.5682
3.70027
7.54602
76.1895
10683.2
9.91042
5.81383e-14
27.9958
1.17331
1.32786
0.936041
5.90504
0
13.1995
3.69762
3.40369
1.59922e-13
2.66763
0
12.9197
21.0368
0
578.454
7.82896
24.1081
18.0262
520.306
9.56224
0.138868
1.99135
1.7364
2.86201
0.122461
0
18.5159
0.540916
1.74103
0
0
0
0.227116
5.1018
4.16564
0.221764
4.01794e-13
0
15.6324
7.1644
10.9122
786.436
5.7622
11.0677
12.9264
475.225
5.31228
3.15429
0
1.18488
5.51405
0
0
0
0
2.49043e-14
0
0
0
8.79415
2.14734
2.87544
0
0
8.79406
20.0101
0.464944
843.84
9.63909
14.8879
8.1055
191.09
0
0.61053
1.5289e-15
0.288681
22.6748
25.4614
2.41506e-13
1.34731
0.631833
0
0
13.0713
1.3918
0.759082
0
0
7.99937
6.28857
0
333.566
0
12.5835
1.00364
128.036
5.49096
0.552144
0.437289
0.193945
18.356
13.5703
0
0.765415
0
0.490446
0
0
2.80124
1.86804
0
0
0
0.117144
0
87.2623
0
6.87783
5.64416
60.5226
0
0.342844
0
0.678303
11.3258
22.981
5.07372
0
0.630065
0
0
2.2598
0.67609
2.18064
0
0
2.71052e-14
4.65294
0
27.9414
4.96341
2.87773
2.59158
45.5468
0
0
0
0
0
0
0
0
0.632052
0
0
15.7982
2.0433
0.885054
0
0
13.3865
4.63492e-13
10.0073
7.1045
1.06533e-13
2.46157
2.41922
11.8239
0
0
0
0
0
1.54502
5.48872
0
0
0.531613
0
18.125
0.652448
1.09494
5.10552
0
0
5.81427
0
0
0
0.119442
0
0
0
0
0
0.424288
0
17.8841
0
0.63746
0
0.549942
0
2.34189
0
0.650413
0
19.9891
0
0
0
0
3.1745
0
0
0
0
0.494486
0.569987
0
0
0
1.44728
0.17185
0.0246085
0.580086
0
0
0.579406
2.55213
5.1204
9.98735
4.76096
14.4869
0
0
0
0
0
0
0
0
0
0
0
0
0
0.507141
1.24271
0
4.03698
0
1.12464
0
0
0
9.00814
6.54423
0
0
0
0
0
0
0
0
0
0
0
0
4.62683
0.612001
1.87399
0
0
10.4032
1.03977
0.605475
0
9.86986
0
0
8.05883
0
0
0
0
0
0
0
0
0
0
15.5577
0
0
0.61079
0
0
0
0
0.576022
0
0
4.17471
0
0
0
0
0
0
0
0
0
0
0
0
0
0
0
0
1.24208
0
4.45471
0
0
4.56825
4.54706
10.5585
3.17009
0
0
0
0
0
0
0
0
0
0
0
0
0
0
0
0
0
2.82726
0
0.487855
0
9.71519
0
0
0
0
0
0
0
0
0
0
0
0
0
0
4.66337
0
0
0.999726
0
5.64385
0
0
0
0
0.526149
0
0
0
0
0
0
0
0
0
0
0
0
0
0
0
0
0.217413
0
2.03896
0.848534
0
0
0
0
0
0
0
0
0
0
0
0
0
0
0
0
0
0
0
0
0
0
2.71274
0
0.105544
4.08471
0
0
0
0
0
0
0
0
0
0
0
0
0
0
0
0
0
0
0
0
4.56708
0
0.320506
0
0
0
0
0
0
0
0
0
0
0
0
0
0
0
0
0
0
0
0
0
6.35948
0.758044
0
0
0
3.217
0
0
0
0
0
0
0
0
0
0
0
0
0
0
0
0
0
0
1.51168
1.39291e-14
0
0
0
12.7839
0
0
0
0
0
0
0
0
0
0
0
0
0
0
0
0
0
0
0
0
0.402227
0
0
3.18366
0
5.7078
0
0
0
0
0
0
0
0
0
0
0
0
0
0
0
0
0
0
0
0
0
0
0
0
0
0
0
0
0
0
0
0
0
0
0
0
0
0
0
0
2.7741
0.366233
0
0
0
0
0
0
0
0
0
0
0
0
0
0
0
0
0
0
0
0
0
0
0
0
0
0
0
1.51105
0
0
0
0
0
0
0
0
0
0
0
0
0
0
0
0
0
0
0
0
0
0
0
0
0
0
0
0
0
0
0
0
0
0
0
0
0
0
0
0
0
0
0
0
0
0
0
3.31262
0
0
0
0
0
0
0
0
0
0
0
0
0
0
0
0
0
0
0
0
0
0
0
3.34871
0
0
0
0
0
0
0
0
0
0
0
0
0
0
0
0
0
0
0
0
0
0
0
0
0
0
0
0
0
0
0
0
0
0
0
0
0
0
0
0
0
0
0
0
0
0
0
0
0
0
0
0
0
0
0
0
0
0
0
0
0
0
0
0
0
0
0
0
0
0
0
0
0
0
0
0
0
0
0
0
0
0
0
0
0
0
0
0
0
0
0
0
0
0
0
0
0
0
0
0
0
0
0
0
0
0
0
0
0
0
0
0
0
0
0
0
0
0
0
0
0
0
0
0
0
0
0
0
0
0
0
0
0
0
0
0
0
0
0
0
0
0
0
0
0
0
0
0
0
0
0
0
0
0
0
0
0
0
0
0
0
0
0
0
0
0
0
0
0
0
0
0
0
0
0
0
0
0
0
0
0
0
0
0
0
0
0
0
0
0
0
0
0
0
0
0
0
0
0
0
0
0
0
0
0
0
0
0
0
0
0
0
0
0
0
0
0
0
0
0
0
0
0
0
0
0
0
0
0
0
0
0
0
0
0
0
0
0
0
0
0
0
0
0
0
0
0
0
0
0
0
0
0
0
0
0
0
0
0
0
0
0
0
0
0
0
0
0
0
0
0
0
0
0
0
0
0
0
0
0
0
0
0
0
0
0
0
0
0
0
0
0
0
0
0
0
0
0
0
0
0
0
0
0
0
0
0
0
0
0
0
0
0
0
0
0
0
0
0
0
0
0
0
0
0
0
0
0
0
0
0
0
0
0
0
0
0
0
0
0
0
0
0
0
0
0
0
0
0
0
0
0
0
0
0
0
0
0
0
0
0
0
0
0
0
0
0
0
0
0
0
0
0
0
0
0
0
0
0
0
0
0
0
0
0
0
0
0
0
0
0
0
0
0
0
0
0
0
0
0
0
0
0
0
0
0
0
0
0
0
0
0
0
0
0
0
0
0
0
0
0
0
0
0
0
0
0
0
0
0
0
0
0
0
0
0
0
0
0
0
0
0
0
0
0
0
0
0
0
0
0
0
0
0
0
0
0
0
0
0
0
0
0
0
0
0
0
0
0
0
0
0
0
0
0
0
0
0
0
0
0
0
0
0
0
0
0
0
0
0
0
0
0
0
0
0
0
0
0
0
0
0
0
0
0
0
0
0
0
0
0
0
0
0
0
0
0
0
0
0
0
0
0
0
0
0
0
0
0
0
0
0
0
0
0
0
0
0
0
0
0
0
0
0
0
0
0
0
0
0
0
0
0
0
0
0
0
0
0
0
0
0
0
0
0
0
0
0
0
0
0
0
0
0
0
0
0
0
0
0
0
0
0
0
0
0
0
0
0
0
0
0
0
0
0
0
0
0
0
0
0
0
0
0
0
0
0
0
0
0
0
0
0
0
0
0
0
0
0
0
0
0
0
0
0
0
0
0
0
0
0
0
0
0
0
0
0
0
0
0
0
0
0
0
0
0
0
0
0
0
0
0
0
0
0
0
0
0
0
0
0
0
0
0
0
0
0
0
0
0
0
0
0
0
0
0
0
0
0
0
0
0
0
0
0
0
0
0
0
0
0
0
0
0
0
0
0
0
0
0
0
0
0
0
0
0
0
0
0
0
0
0
0
0
0
0
0
0
0
0
0
0
0
0
0
0
0
0
0
0
0
0
0
0
0
0
0
0
0
0
0
0
0
0
0
0
0
0
0
0
0
0
0
0
0
0
0
0
0
0
0
0
0
0
0
0
0
0
0
0
0
0
0
0
0
0
0
0
0
0
0
0
0
0
0
0
0
0
0
0
0
0
0
0
0
0
0
0
0
0
0
0
0
0
0
0
0
0
0
0
0
0
0
0
0
0
0
0
0
0
0
0
0
0
0
0
0
0
0
0
0
0
0
0
0
0
0
0
0
0
0
0
0
0
0
0
0
0
0
0
0
0
0
0
0
0
0
0
0
0
0
0
0
0
0
0
0
0
0
0
0
0
0
0
0
0
0
0
0
0
0
0
0
0
0
0
0
0
0
0
0
0
0
0
0
0
0
0
0
0
0
0
0
0
0
0
0
0
0
0
0
0
0
0
0
0
0
0
0
0
0
0
0
0
0
0
0
0
0
0
0
0
0
0
0
0
0
0
0
0
0
0
0
0
0
0
0
0
0
0
0
0
0
0
0
0
0
0
0
0
0
0
0
0
0
0
0
0
0
0
0
0
0
0
0
0
0
0
0
0
0
0
0
0
0
0
0
0
0
0
0
0
0
0
0
2778.83
950.164
527.128
899.458
1204.43
1286.04
845.825
4351.33
5009.78
3044.52
1641.71
1467.1
2668.84
1446.71
1929.41
4560.38
2373.67
2972.98
3422.87
2522.74
2775.36
5554.07
7696.66
6014.72
7795.65
7058.35
4258.57
9636.66
8717.47
3379.76
4369.39
7113.79
3723.95
3178.99
1296.54
3561.26
3003.39
2209.97
1435.47
2913.48
2408.27
2285.62
5688.18
1313.56
3521.37
4474.17
2343.71
1952.22
11522.8
11293.3
10939.4
10124.3
6670.55
10624
9292.24
4861.02
5761.77
6336.86
6447.12
5064.88
3976.16
5997.37
4267.34
2466.41
3971.22
2980.57
3751.39
1224.07
732.427
2663.78
10679.7
9989.37
10259.6
9174.78
10083.3
9145.49
7096.39
10029.4
9531.64
5881.07
5677.47
9086.18
8695.82
5525.89
3268.23
8100.23
7769.32
4274.25
6221.19
4480.45
5970.61
3225.32
10445.8
10106.2
5986.05
8824.88
3293.17
8412.2
150.976
1192.06
1118.43
4652.78
7111.33
7761.49
1321.06
1954.64
4803.01
7864.74
8090.93
5194.5
12042.5
7015.1
12726.2
2852.27
3340.91
3569.94
7826.26
7599.22
10095.6
9810.1
10858.2
3677.47
8551.24
12070
11974
1918.85
6345.24
9700.07
10833.4
8497.03
4027.54
8194.86
7910.5
299.943
1617.73
2465.56
2537.03
6939.46
6001.7
5876.59
4435.29
1507.08
8.32154
190.608
0
912.766
5644.6
6969.73
4567.77
7867.18
1000.06
0
1265.87
419.546
628.947
5.29853
0.256366
6.14013
26.8142
7657.18
7401.91
13248.6
5047.88
4752.05
1697.55
4220.76
8114.69
5.21629
4.11328e-13
288.454
169.218
15.9168
49.6591
142.522
6334.73
421.871
36.5496
280.712
75.6172
1411.48
11873.3
14738.9
10012.9
10903.9
11727.6
12789.3
12136.1
11992.6
11615.8
11397.2
12904.8
12097.3
11817.2
13369.8
12970.7
13055.8
11156.2
11838.1
12172.7
12238.3
14071.9
12507.2
9598.3
11560.6
7712.78
4473.8
6053.5
11277
5325.88
8987.01
5313.66
5501.47
1721.72
1348.02
91.7956
27.4867
662.035
307.596
125.999
8480.16
6215.37
7601.35
8983.82
5747.22
0.32656
7.84577
0
16.1095
117.457
5006.07
5046.93
4816.7
5477.23
4138.61
0
24.0489
40.6848
0
0.672126
73.6732
195.333
0
39.2641
2871.43
3600.09
2734.7
11231.5
5702.61
9035.99
7485.84
2534.13
22.1094
144.582
7.2245
2.51129e-14
393.534
21.2526
0
0
13.908
48.1559
1044
0
5442.59
14797
13655.6
13196.1
12464.7
11707.7
13428
12320.4
12195.8
12196.7
11571.8
13034
11870
11691.7
13264.2
12557.1
12152.7
11291.2
12369.7
6276.65
6413.11
12194.5
11146
5556.79
2408.28
8775.73
10920.2
9229.3
11288.9
11780.4
11245.1
10441.6
5080.06
9883.05
2224.61
1163.67
338.36
5415.38
3753.08
879.582
9964.89
6907.65
9149
10217.7
7859.86
56.8929
62.0287
557.722
21.952
27.1889
4418.47
7583.89
9895.71
5669.65
8871.18
39.0604
106.724
78.7072
0
30.1785
157.421
202.632
123.731
350.322
9282.39
1862.3
6292.82
282.074
6130.8
13.0051
453.528
6634.77
66.0468
139.108
55.764
0
1341.93
23.6154
0
2148.11
29.5758
1170.26
454.85
567.084
29.4362
11314.3
10416.1
12506.9
11875.9
12077.4
13466
6905.22
11011
11640
11225.6
13343.7
10761.1
10941.1
13051.6
12443
3144.55
404.512
10105.6
3444.31
984.525
8977.3
8631.65
745.554
825.805
11977.4
10723.2
11085
10263.8
11555.2
7496.27
8556.73
10252.3
10954.5
1205.88
1142.45
1683.46
74.7555
164.099
558.151
10637.3
7739.57
10398.8
11390
8202.39
208.301
92.5637
517.84
1214.58
410.198
5960.93
9514.83
11183.3
5387.54
9803.38
150.11
274.866
940.431
1448.89
2095.55
292.207
1054.31
209.285
529.265
1900.07
13.6301
124.217
15.3133
431.183
18.4365
101.513
6802.21
1267.93
567.882
366.437
489.504
418.329
569.693
393.331
40.6755
1144.86
66.7823
33.4994
111.534
22.7582
8052.9
2193.37
11788.3
787.117
4485.94
10714.7
239.063
754.271
10721.2
10428.2
11324.1
4055.84
9249.74
11927.8
10187.3
244.416
127.064
2410.85
112.047
61.1497
234.95
466.206
80.1126
10.36
9733.35
527.237
3269.08
1520.55
5089.15
34.7587
963.351
10213.5
7338.28
46.889
80.5552
42.207
28.4101
0
29.6111
10540
6099.77
8341.77
10277.4
1413.28
308.173
343.062
21.4276
57.9573
61.1171
4611.86
7016.41
7811.21
1270.3
1742.95
205.204
169.014
383.277
83.32
43.1294
90.6222
19.8274
46.04
3.43102
52.436
16.7863
57.1777
0.407157
14.8005
9.39896
13.2566
175.186
62.1634
18.2209
232.26
610.562
28.6517
30.4211
104.677
7.73059
44.013
9.20185
0.573436
40.7761
11.6614
330.692
133.912
11939.7
133.9
314.578
4507.58
41.3971
141.128
1004.74
3616.03
5662.73
445.849
1642.18
7445.91
5810.6
153.883
63.2426
95.0292
66.4386
26.7947
97.3017
67.9665
51.5967
38.0574
3711.14
12.8743
407.643
660.097
3437.65
55.8739
351.618
7445.71
14601.4
53.553
18.4118
42.5
74.8037
49.0095
27.9183
3788.22
11996.3
8876.57
15675.2
7933.83
3157.21
1384.9
39085.3
9356.19
12923.5
446.675
2148.14
314.842
3031.19
16.325
9.47857
32.412
30.8781
43.4599
5962.71
340.017
1405.65
55.0132
82.6245
10.4058
44.3364
19889.8
45841.8
16220.4
200.925
3311.29
112.295
3067.72
0
21.0119
5.33377
23.557
10.2366
6.46388
5.34484
15.3665
8.56506
3.15908
5.19996
7.939
4.53294
3.43013
0
0
4.64359
39.8193
26.4405
6.78364
23.0248
30.6326
4.42047
46.0244
19.7389
37.4715
15.7275
0
0
11.8262
61.9728
53.7022
1542.97
48.5089
95.469
495.904
20.8183
68.5845
293.17
771.793
1328.29
324.724
504.07
7251.6
8726.07
49.83
29.5198
41.4242
42.4947
16.8
41.259
50.3508
20.9877
37.319
4177.69
160.188
484.218
427.756
5348.93
203.785
494.499
43335.5
9157.83
13020
561.952
27.537
2.77237e-14
0
0
16.5511
49.5934
19.888
24.6487
35.1122
22.068
1191.74
158.767
6.57212
139.133
13.1557
0
0
1.84489
0
0
0
0
0
0
6.75458
8.62954
17.6541
24.249
17.2043
8.142
7.21056
9.50248
0
2.80116
0
0
0
2.18751
5.51252
0
0
0
0
75.7864
30.8498
1.30195
4.06736
5.76196e-13
6.90341
1.32334
23.1314
16.3428
3.46663
0
8.14313
0
0.0626041
6.48887
4.63666
2.43017
4.67102
4.11186
0
0
0
18.6504
25.6913
2.3296
0
7.71745
19.5018
45.3408
19.5361
34.8279
10.5173
19.4185
44.8817
0
10.7282
18.5872
258.115
45.6991
84.6265
221.856
35.6576
48.213
298.534
517.356
520.722
283.615
536.952
9909.27
5976.81
24.4198
5.08411
12.2662
13.5606
5.48859
4.29328
20.116
8.18003
24.691
3229.65
142.588
424.8
575.134
7326.1
69.8649
255.007
1851.72
26.4516
324.96
0
0
0
0
0
15.4816
9.41476
2.7309
2.56957
21.9179
1.62844
2.22088
0
0
8.70049
7.65254
2.51398
2.04107
0
0
0
1.74077
0
0
0
4.23283
8.56247
18.9728
4.43961
6.68777
0
0
0
0
0
0
0
0
0
0
0
0
0
0
15.6617
31.1541
0
2.62955e-13
5.3038
0
0
22.9338
3.58344
2.7274e-14
4.69909
0
0
0
4.87942
0
0
0
0
0
0
0
0
0
25.5545
2.42454e-12
8.15504e-13
6.24085
21.2342
0
17.2192
0
0
5.16166e-13
0
7.34715
2.77585e-14
197.834
27.9551
51.3888
311.401
15.8004
59.7772
197.987
513.799
942.424
180.986
381.512
1102.36
1268.97
7.08422
0
11.6054
4.9685
1.10278
4.31569
7.94324
8.86404
20.2718
5356.35
8.94051
149.883
209.324
11307.8
7.85682
100.504
287.531
198.883
3.56189
0
0
0.961032
0
4.38493
7.72911
2.76745
0
14.395
0
5.26296
0
0
0
0
0
0
0
0
4.43021
25.2742
0
4.50597
8.18167
0
0
0
0
0
0
0
0
0
0
0
0
0
0
16.1924
30.9187
0
30.7337
1.17177
2.63087e-14
5.80765
12.1992
1.26612e-13
0
0
0
0
0
4.84728
0
0
0
0.630501
5.23225e-13
16.4966
15.1252
5.94376
0
0
23.1062
0
4.78563
21.2519
10.0341
22.7528
12.1184
250.74
10.755
55.7279
231.439
13.5616
37.1173
181.308
240.873
724.044
126.203
214.085
286.741
278.793
0
5.28063
13.0741
0
4.98393
10.0321
10.724
3.80489
0
500.429
0
86.1961
133.719
264.431
0
90.1358
244.055
187.868
0
0
2.47847
6.70332
0
0
0
0
18.2292
6.5188
0
8.90031
24.9536
0.521367
4.05885e-14
22.4214
0
0
0
0
0
29.8552
44.7681
0
23.4523
12.0013
2.43684e-14
0
23.5068
5.22929e-13
0
0
0
0
0
4.75138
0
0
0
12.6917
5.44415
0
7.64216
11.1114
18.1086
12.2529
19.406
4.8061
6.0631
0
10.2994
24.0461
14.8791
142.108
14.3336
32.8905
40.5815
6.40956e-14
26.8629
83.8845
145.251
226.555
68.3415
118.525
164.348
205.938
0
3.16482
5.87398
0
1.61429
11.4005
12.0308
3.80926
26.7343
197.143
9.20987
79.3655
75.2589
125.973
3.41053
69.1362
137.864
89.7241
3.32025
4.85855
0
7.48094
10.0047
0
1.54104
0
25.2183
0
0
0
0
13.2214
10.0388
0.370294
0
0
0
0
0
14.8317
0
0
4.53543e-13
11.0575
10.639
0
23.1815
0
0
1.81152e-14
0
4.97574
0
7.80282
0
0
12.5184
0
5.21104
16.1779
0.322678
12.035
0
6.00645
15.0862
0
0
6.77486e-13
4.31503
0
4.65141
30.8804
7.89903
20.7249
16.1367
1.01222
9.93333
46.9984
105.956
30.0775
22.0323
63.4346
146.513
109.862
0
0
3.15046
0
0
14.6965
1.19528
0
0
138.692
2.36894
34.1593
44.7825
125.302
0.470318
33.7924
82.6537
18.2863
0
12.7634
0
0
0
0
0
0
7.67009
0
0
2.6556
1.52359e-13
0
3.74413
7.47275
0
0
0
0
0
16.5782
0.995885
0
23.078
0
8.18557
12.2611
11.2489
6.9894
0
1.79713e-13
0
0
4.35762
0
8.26922
0
0
0
3.27609
0
0
9.69298
0
5.89908
14.4031
8.83245
0
1.01756e-12
0
2.6802
6.57707
18.6129
7.60761
5.57862
8.10417
7.85831
6.2883
27.0747
58.6267
18.8519
7.69631
25.9176
81.7354
44.5319
0
0
6.32989
0
4.40927
0
2.7978
2.84852
0
50.8237
0
10.6745
18.1484
44.0524
0
1.84312
20.9185
7.03586
0
0
0
0
0
4.25983
0
12.1534
7.82693
0
0
4.86361
24.8529
0
0
23.6748
0
0
0
0
0
15.8805
17.9443
6.72685e-13
21.8914
9.68143
0
0
0
1.18872
0
0
1.89125e-13
0
0
0
0
0
0
0
8.71431
0
6.13202
4.59045
0
0
0
7.23238
0
0
0
4.54378
1.39575e-13
0
0.513423
0
0
7.02409e-14
0
4.12834
18.6488
0
7.34823
0
28.6638
5.2125
0
0
0
0
0
5.15911
6.68311e-14
0
0
11.507
3.47129
1.31834
2.33869
10.3605
0.916525
0
0
0
0
0
0
0
0
0
0
0
0
0
0
9.66083
7.22408
17.4808
0
27.2786
0
0
0
0
0
40.9998
13.2711
5.99013
9.35925
0
11.2702
0
10.125
0
0
0
0
0
0
0
0
0
34.7242
10.6937
4.56855
21.0198
0
4.25551
0
5.63664
0
0
5.65033
15.3769
0
0.527242
0
0
6.83831
0
3.83989e-14
2.97721
0
2.42181
1.96568
0
4.76962
0
0
0
0
0
6.78757e-15
0
0
0.210978
0
3.15167
8.33741e-14
0
0
0
0
0
0
0
0
0
0
0
0
0
0
0
0
0
0
0
0
10.1704
9.75415
0
10.2529
0.240699
0
0
0
0
5.20201
12.7467
12.3513
0
18.9163
5.23959
6.36184
0
18.7622
0
8.94925
0
3.08398e-14
0
0
7.72115
0
0
9.85436
2.76645
0
0
2.82351
11.7267
0
0
0
15.8052
0
0
0
0
0
8.39701
0.330849
0
0
3.70768
0
0
0
0
0
0
0
0
7.50966
0
1.14756e-13
0
0.157111
0
2.65356
0
0
0
0
0
0
0
0
0
0
0
0
0
4.45358
1.39217
15.7523
0
0
0
0
0
0
2.28725
0
0
7.00806
10.3408
0
0
0
0
10.4398
22.8132
31.2168
5.19988
8.5019
13.9712
0.300871
4.81899
27.8645
5.29475
0
1.65926
0
3.68905e-13
8.89592
0
0
0
0
9.20269
4.47202
27.4536
0
2.94715
9.69033e-13
0
0
0
0
0
0
0
0
0
0
0
0
0
7.23117e-14
0
0
0
0
0
0
0
0
0
0
0
0
0
0
0
0
0
0
0
0
0
0
0
0
0
2.2538
0
0
0
0
4.33688
0
0
0
0
0
11.4724
6.58708
0
4.09509
0
0
1.94853e-14
0
0
5.27993
27.7689
18.1143
0
5.88969
3.83504
0
4.42073
28.497
11.6531
0
4.37484
0
0
4.42689
0
0
0
17.8049
0
0
0
1.8256e-13
1.71783
0
0
0
1.5633
0
0
0
0
2.1955e-14
0
0
2.8481
0
0
0
0
0
0
0
0
0
0
0
0
2.88654
0
0
0
2.86864e-13
0
0
0
0
0
0
0
0
0
0
0
0
0
0
0
0
0
0
0
0
0
0
0.148293
19.473
0
0
9.88254
0
1.17539e-13
0
0
0
14.3766
7.83407
8.43585
16.9755
1.07366
6.58541
0
12.2051
3.4439
4.28587
0
0
4.99392
0
0
0
9.7493
0
7.43974
2.33754
38.8295
0
0
5.35192e-14
1.95993
9.82369e-14
0
2.88998
0
0
1.06113
0
0
0
0
0
0
0
0
0
0
0
0
0
0
0
0
0.910968
0
0
0
0
0
0
0
0
0
0
0
0
0
0
0
0
0
0
0
0
0
0
0
0
0
0
0
10.0198
1.15676e-12
0
13.9202
0
0
0
0
0.518916
10.9108
30.3251
1.25497
11.2047
4.51995
1.34941e-13
0
5.57042
3.09423
4.14275
2.43294
9.25883
0
0
0
0
2.27434
7.50955
3.24858e-14
0
0
5.62716
6.81974
0
0
13.3613
0
0
4.56727
0
0
0
0
0
0
0
0
0
0
0
0
0
0
0
0
0
0
0
0
0
0
0
0
0
0
0
0
0
0
0
0
0
0
0
0
0
0
0
0
0
0
0
0
0
0
5.96151
0
0
5.39924
0
0.752442
0
0
0
9.77552
23.8521
0
0.844133
0
2.63509
0
10.6401
6.35384
4.0256
0
0
4.44811
0
0
0
0
7.00437
18.7467
3.35935
0
0.191888
3.25923
11.7567
0
0
0
0
9.09314e-14
0
0
0
0
0
0
0
0
0
0
0
0
0
0
0
0
0
0
0
0
0
0
0
0
0
0
0
0
0
0
0
0
0
0
0
0
0
0
0
0
0
0
0
0
0
0
5.49255
0
0
0.508366
0
0
0
0
0
0.324471
18.1524
3.59514
0
2.97465
4.13948
0
15.5207
3.36271
2.66544
2.48549
4.6089
4.16671
0
2.32501
3.36963
0
6.58536
5.71621
0
11.4536
7.73587
0
20.5231
0
0
0
0
0
0
0
0
0
0
0
0
0
0
0
0
0
0
0
0
0
0
0
0
0
0
0
0
0
0
0
0
0
0
0
0
0
0
0
0
0
0
0
0
0
0
0
0
0
0
0
5.16904
0
0
4.5468
0
5.99552
0
0
0
4.12005
2.95569
0
5.04108e-13
2.98846
5.7257
0.283165
11.9753
2.72754
0
0
0
0
0
0
0
0
3.59048
9.27087
0
0
4.0922
0
12.6442
0
0
0
0
0
0
0
0
0
0
0
0
0
0
0
0
0
0
0
0
0
0
0
0
0
0
0
0
0
0
0
0
0
0
0
0
0
0
0
0
0
0
0
0
0
0
0
0
0
0
0
8.93526e-14
0
0
0
0
0
0
0
0
7.23311
17.4253
0
8.46718
8.51333
6.00756
6.69651
4.51513
0.361419
0
0
0
0
0
0
0
0
0
0
2.91162
3.82706
3.51529
5.58814
9.16803
0
0
2.69072
0
0
0
0
0
0
0
0
0
0
0
0
0
0
0
0
0
0
0
0
0
0
0
0
0
0
0
0
0
0
0
0
0
0
0
0
0
0
0
0
0
0
0
0
0
0
0
0
0
0
0
0
0
0
0
0
0
6.49017
0
5.61037
15.0464
2.73675
0
4.52473
6.94881
1.81705
0
0
0
0
0
0.213425
6.5727
0
0
6.02356
0
0
3.12469
2.70233
0
0
0
0
0
0
0
0
0
0
0
0
0
0
0
0
0
0
0
0
0
0
0
0
0
0
0
0
0
0
0
0
0
0
0
0
0
0
0
0
0
0
0
0
0
0
0
0
0
0
0
0
0
0
0
0
0
0
0
0
0
0
0
0
26.9844
5.29171
4.61151
0
21.372
5.85035
0
0
0
0
0
3.24627
0
0
6.11509
0
0
9.03246
4.32581
1.92033
6.88256
0
0
0
0
5.52988
0
0
0
0
0
0
0
0
0
0
0
0
0
0
0
0
0
0
0
0
0
0
0
0
0
0
0
0
0
0
0
0
0
0
0
0
0
0
0
0
0
0
0
0
0
0
0
0
0
0
0
0
0
0
0
0
0
0
5.32455
3.65899
2.95314
0
4.92372
2.69106
0
0
0
0
0
0
0
0
5.61966
0
0
8.68573
0
0
0
0
0.344229
0
0
0
0
0
0
0
0
0
0
0
0
0
0
0
0
0
0
0
0
0
0
0
0
0
0
0
0
0
0
0
0
0
0
0
0
0
0
0
0
0
0
0
0
0
0
0
0
0
0
0
0
0
0
0
0
0
0
0
0
0
3.00188
0
2.27801
0
9.0331
13.0009
0
4.96966
4.44124
0
0
0
0
0
11.759
13.5037
0
0
1.11848e-13
2.40929
0
0
0
0
0
0
0
0
0
0
0
0
0
0
0
0
0
0
0
0
0
0
0
0
0
0
0
0
0
0
0
0
0
0
0
0
0
0
0
0
0
0
0
0
0
0
0
0
0
0
0
0
0
0
0
0
0
0
0
0
0
0
0
0
0.171497
8.58327
0.121342
0
10.1833
0.0723881
0
0
0
0
0
0
0
0
9.56447
5.67093
0.0817221
0
0
0
0
0
0
0
0
0
0
0
0
0
0
0
0
0
0
0
0
0
0
0
0
0
0
0
0
0
0
0
0
0
0
0
0
0
0
0
0
0
0
0
0
0
0
0
0
0
0
0
0
0
0
0
0
0
0
0
0
0
0
0
0
0
0
0
10.3718
0
0.112858
0
0
0.73734
0
0
0
0
0
0
0
0
0
16.6311
0
0
6.68555
0
0
0
0
0
3.20037
0
0
0
0
0
0
0
0
0
0
0
0
0
0
0
0
0
0
0
0
0
0
0
0
0
0
0
0
0
0
0
0
0
0
0
0
0
0
0
0
0
0
0
0
0
0
0
0
0
0
0
0
0
0
0
0
0
0
0
5.2083
2.19644
0
0
0
2.61685
0
0
0
0
0
0
0
0
6.99889
17.9651
0
0
6.62287
0
0
0
0
0
0
0
0
0
0
0
0
0
0
0
0
0
0
0
0
0
0
0
0
0
0
0
0
0
0
0
0
0
0
0
0
0
0
0
0
0
0
0
0
0
0
0
0
0
0
0
0
0
0
0
0
0
0
0
0
0
0
0
0
0
5.27579
1.66726
0
0
0
2.77157
0
0
0
0
0
0
0
0
5.82692
12.3333
0
0
0
2.51071
0
0
0
0
0
0
0
0
0
0
0
0
0
0
0
0
0
0
0
0
0
0
0
0
0
0
0
0
0
0
0
0
0
0
0
0
0
0
0
0
0
0
0
0
0
0
0
0
0
0
0
0
0
0
0
0
0
0
0
0
0
0
0
0
0
2.12074
0
0
0
2.72528
0
0
0
0
0
0
0
0
7.49731
0
0
0
6.63939
0
0
0
0
0
0
0
0
0
0
0
0
0
0
0
0
0
0
0
0
0
0
0
0
0
0
0
0
0
0
0
0
0
0
0
0
0
0
0
0
0
0
0
0
0
0
0
0
0
0
0
0
0
0
0
0
0
0
0
0
0
0
0
0
0
0
0
0
0
0
0
0
0
0
0
0
0
0
0
0
0
0
0
3.35333
0
0
0
0
0
0
0
0
0
0
0
0
0
0
0
0
0
0
0
0
0
0
0
0
0
0
0
0
0
0
0
0
0
0
0
0
0
0
0
0
0
0
0
0
0
0
0
0
0
0
0
0
0
0
0
0
0
0
0
0
0
0
0
0
0
0
0
0
0
0
0
0
0
0
0
0
0
0
0
0
0
0
0
0
0
0
0
0
0
0
0
0
0
0
0
0
0
0
0
0
0
0
0
0
0
0
0
0
0
0
0
0
0
0
0
0
0
0
0
0
0
0
0
0
0
0
0
0
0
0
0
0
0
0
0
0
0
0
0
0
0
0
0
0
0
0
0
0
0
0
0
0
0
0
0
0
0
0
0
0
0
0
0
0
0
0
0
0
2.47651
0
0
0
0
0
0
0
0
0
0
0
0
0
0
0
0
0
0
0
0
0
0
0
0
0
0
0
0
0
0
0
0
0
0
0
0
0
0
0
0
0
0
0
0
0
0
0
0
0
0
0
0
0
0
0
0
0
0
0
0
0
0
0
0
0
0
0
0
0
0
0
0
0
0
0
0
0
0
0
0
0
0
0
0
0
0
0
2.1262
0
0
0
0
0
0
0
0
0
0
0
0
0
0
0
0
0
0
0
0
0
0
0
0
0
0
0
0
0
0
0
0
0
0
0
0
0
0
0
0
0
0
0
0
0
0
0
0
0
0
0
0
0
0
0
0
0
0
0
0
0
0
0
0
0
0
0
0
0
0
0
0
0
0
0
0
0
0
0
0
0
0
0
0
0
0
0
0
0
0
0
0
0
0
0
0
0
0
0
0
0
0
0
0
0
0
0
0
0
0
0
0
0
0
0
0
0
0
0
0
0
0
0
0
0
0
0
0
0
0
0
0
0
0
0
0
0
0
0
0
0
0
0
0
0
0
0
0
0
0
0
0
0
0
0
0
0
0
0
0
0
0
0
0
0
0
0
0
0
0
0
0
0
0
0
0
0
0
0
0
0
0
0
0
0
0
0
0
0
0
0
0
0
0
0
0
0
0
0
0
0
0
0
0
0
0
0
0
0
0
0
0
0
0
0
0
0
0
0
0
0
0
0
0
0
0
0
0
0
0
0
0
0
0
0
0
0
0
0
0
0
0
0
0
0
0
0
0
0
0
0
0
0
0
0
0
0
0
0
0
0
0
0
0
0
0
0
0
0
0
0
0
0
0
0
0
0
0
0
0
0
0
0
0
0
0
0
0
0
0
0
0
0
0
0
0
0
0
0
0
0
0
0
0
0
0
0
0
0
0
0
0
0
0
0
0
0
0
0
0
0
0
0
0
0
0
0
0
0
0
0
0
0
0
0
0
0
0
0
0
0
0
0
0
0
0
0
0
0
0
0
0
0
0
0
0
0
0
0
0
0
0
0
0
0
0
0
0
0
0
0
0
0
0
0
0
0
0
0
0
0
0
0
0
0
0
0
0
0
0
0
0
0
0
0
0
0
0
0
0
0
0
0
0
0
0
0
0
0
0
0
0
0
0
0
0
0
0
0
0
0
0
0
0
0
0
0
0
0
0
0
0
0
0
0
0
0
0
0
0
0
0
0
0
0
0
0
0
0
0
0
0
0
0
0
0
0
0
0
0
0
0
0
0
0
0
0
0
0
0
0
0
0
0
0
0
0
0
0
0
0
0
0
0
0
0
0
0
0
0
0
0
0
0
0
0
0
0
0
0
0
0
0
0
0
0
0
0
0
0
0
0
0
0
0
0
0
0
0
0
0
0
0
0
0
0
0
0
0
0
0
0
0
0
0
0
0
0
0
0
0
0
0
0
0
0
0
0
0
0
0
0
0
0
0
0
0
0
0
0
0
0
0
0
0
0
0
0
0
0
0
0
0
0
0
0
0
0
0
0
0
0
0
0
0
0
0
0
0
0
0
0
0
0
0
0
0
0
0
0
0
0
0
0
0
0
0
0
0
0
0
0
0
0
0
0
0
0
0
0
0
0
0
0
0
0
0
0
0
0
0
0
0
0
0
0
0
0
0
0
0
0
0
0
0
0
0
0
0
0
0
0
0
0
0
0
0
0
0
0
0
0
0
0
0
0
0
0
0
0
0
0
0
0
0
0
0
0
0
0
0
0
0
0
0
0
0
0
0
0
0
0
0
0
0
0
0
0
0
0
0
0
0
0
0
0
0
0
0
0
0
0
0
0
0
0
0
0
0
0
0
0
0
0
0
0
0
0
0
0
0
0
0
0
0
0
0
0
0
0
0
0
0
0
0
0
0
0
0
0
0
0
0
0
0
0
0
0
0
0
0
0
0
0
0
0
0
0
0
0
0
0
0
0
0
0
0
0
0
0
0
0
0
0
0
0
0
0
0
0
0
0
0
0
0
0
0
0
0
0
0
0
0
0
0
0
0
0
0
0
0
0
0
0
0
0
0
0
0
0
0
0
0
0
0
0
0
0
0
0
0
0
0
0
0
0
0
0
0
0
0
0
0
0
0
0
0
0
0
0
0
0
0
0
0
0
0
0
0
0
0
0
0
0
0
0
0
0
0
0
0
0
0
0
0
0
0
0
0
0
0
0
0
0
0
0
0
0
0
0
0
0
0
0
0
0
0
0
0
0
0
0
0
0
0
0
0
0
0
0
0
0
0
0
0
0
0
0
0
0
0
0
0
0
0
0
0
0
0
0
0
0
0
0
0
0
0
0
0
0
0
0
0
0
0
0
0
0
0
0
0
0
0
0
0
0
0
0
0
0
0
0
0
0
0
0
0
0
0
0
0
0
0
0
0
0
0
0
0
0
0
0
0
0
0
0
0
0
0
0
0
0
0
0
0
0
0
0
0
0
0
0
0
0
0
0
0
0
0
0
0
0
0
0
0
0
0
0
0
0
0
0
0
0
0
0
0
0
0
0
0
0
0
0
0
0
0
0
0
0
0
0
0
0
0
0
0
0
0
0
0
0
0
0
0
0
0
0
0
0
0
0
0
0
0
0
0
0
0
0
0
0
0
0
0
0
0
0
0
0
0
0
0
0
0
0
0
0
0
0
0
0
0
0
0
0
0
0
0
0
0
0
0
0
0
0
0
0
0
0
0
0
0
0
0
0
0
0
0
0
0
0
0
0
0
0
0
0
0
0
0
0
0
0
0
0
0
0
0
0
0
0
0
0
0
0
0
0
0
0
0
0
0
0
0
0
0
0
0
0
0
0
0
0
0
0
0
0
0
0
0
0
0
0
0
0
0
0
0
0
0
0
0
0
0
0
0
0
0
0
0
0
0
0
0
0
0
0
0
0
0
0
0
0
0
0
0
0
0
0
0
0
0
0
0
0
0
0
0
0
0
0
0
0
0
0
0
0
0
0
0
0
0
0
0
0
0
0
0
0
0
0
0
0
0
0
0
0
0
0
0
0
0
0
0
0
0
0
0
0
0
0
0
0
0
0
0
0
0
0
0
0
0
0
0
0
0
0
0
0
0
0
0
0
0
0
0
0
0
0
0
0
0
0
0
0
0
0
0
0
0
0
0
0
0
0
0
0
0
0
0
0
0
0
0
0
0
0
0
0
0
0
0
0
0
0
0
0
0
0
0
0
0
0
0
0
0
0
0
0
0
0
0
0
0
0
0
0
0
0
0
0
0
0
0
0
0
0
0
0
0
0
0
0
0
0
0
0
0
0
0
0
0
0
0
0
0
0
0
0
0
0
0
0
0
0
0
0
0
0
0
0
0
0
0
0
0
0
0
0
0
0
0
0
0
0
0
0
0
0
0
0
0
0
0
0
0
0
0
0
0
0
0
0
0
0
0
0
0
0
0
0
0
0
0
0
0
0
0
0
0
0
0
0
0
0
0
0
0
0
0
0
0
0
0
0
0
0
0
0
0
0
0
0
0
0
0
0
0
0
0
0
0
0
0
0
0
0
0
0
0
0
0
0
0
0
0
0
0
0
0
0
0
0
0
0
0
0
0
0
0
0
0
0
0
0
0
0
0
0
0
0
0
0
0
0
0
0
0
0
0
0
0
0
0
0
0
0
0
0
0
0
0
0
0
0
0
0
0
0
0
0
0
0
0
0
0
0
0
0
0
0
0
0
0
0
0
0
0
0
0
0
0
0
0
0
0
0
0
0
0
0
0
0
0
0
0
0
0
0
0
0
0
0
0
0
0
0
0
0
0
0
0
0
0
0
0
0
0
0
0
0
0
0
0
0
0
0
0
0
0
0
0
0
0
0
0
0
0
0
0
0
0
0
0
0
0
0
0
0
0
0
0
0
0
0
0
0
0
0
0
0
0
0
0
0
0
0
0
0
0
0
0
0
0
0
0
0
0
0
0
0
0
0
0
0
0
0
0
0
0
0
0
0
0
0
0
0
0
0
0
0
0
0
0
0
0
0
0
0
0
0
0
0
0
0
0
0
0
0
0
0
0
0
0
0
0
0
0
0
0
0
0
0
0
0
0
0
0
0
0
0
0
0
0
0
0
0
0
0
0
0
0
0
0
0
0
0
0
0
0
0
0
0
0
0
0
0
0
0
0
0
0
0
0
0
0
0
0
0
0
0
0
0
0
0
0
0
0
0
0
0
0
0
0
0
0
0
0
0
0
0
0
0
0
0
0
0
0
0
0
0
0
0
0
0
0
0
0
0
0
0
0
0
0
0
0
0
0
0
0
0
0
0
0
0
0
0
0
0
0
0
0
0
0
0
0
0
0
0
0
0
0
0
0
0
0
0
0
0
0
0
0
0
0
0
0
0
0
0
0
0
0
0
0
0
0
0
0
0
0
0
0
0
0
0
0
0
0
0
0
0
0
0
0
0
0
0
0
0
0
0
0
0
0
0
0
0
0
0
0
0
0
0
0
0
0
0
0
0
0
0
0
0
0
0
0
0
0
0
0
0
0
0
0
0
0
0
0
0
0
0
0
0
0
0
0
0
0
0
0
0
0
0
0
0
0
0
0
0
0
0
0
0
0
0
0
0
0
0
0
0
0
0
0
0
0
0
0
0
0
0
0
0
0
0
0
0
0
0
0
0
0
0
0
0
0
0
0
0
0
0
0
0
0
0
0
0
0
0
0
0
0
0
0
0
0
0
0
0
0
0
0
0
0
0
0
0
0
0
0
0
0
0
0
0
0
0
0
0
0
0
0
0
0
0
0
0
0
0
0
0
0
0
0
0
0
0
0
0
0
0
0
0
0
0
0
0
0
0
0
0
0
0
0
0
0
0
0
0
0
0
0
0
0
0
0
0
0
0
0
0
0
0
0
0
0
0
0
0
0
0
0
0
0
0
0
0
0
0
0
0
0
0
0
0
0
0
0
0
0
0
0
0
0
0
0
0
0
0
0
0
0
0
0
0
0
0
0
0
0
0
0
0
0
0
0
0
0
0
0
0
0
0
0
0
0
0
0
0
0
0
0
0
0
0
0
0
0
0
0
0
0
0
0
0
0
0
0
0
0
0
0
0
0
0
0
0
0
0
0
0
0
0
0
0
0
0
0
0
0
0
0
0
0
0
0
0
0
0
0
0
0
0
0
0
0
0
0
0
0
0
0
0
0
0
0
0
0
0
0
0
0
0
0
0
0
0
0
0
0
0
0
0
0
0
0
0
0
0
0
0
0
0
0
0
0
0
0
0
0
0
0
0
0
0
0
0
0
0
0
0
0
0
0
0
0
0
0
0
0
0
0
0
0
0
0
0
0
0
0
0
0
0
0
0
0
0
0
0
0
0
0
0
0
0
0
0
0
0
0
0
0
0
0
0
0
0
0
0
0
0
0
0
0
0
0
0
0
0
0
0
0
0
0
0
0
0
0
0
0
0
0
0
0
0
0
0
0
0
0
0
0
0
0
0
0
0
0
0
0
0
0
0
0
0
0
0
0
0
0
0
0
0
0
0
0
0
0
0
0
0
0
0
0
0
0
0
0
0
0
0
0
0
0
0
0
0
0
0
0
0
0
0
0
0
0
0
0
0
0
0
0
0
0
0
0
0
0
0
0
0
0
0
0
0
0
0
0
0
0
0
0
0
0
0
0
0
0
0
0
0
0
0
0
0
0
0
0
0
0
0
0
0
0
0
0
0
0
0
0
0
0
0
0
0
0
0
0
0
0
0
0
0
0
0
0
0
0
0
0
0
0
0
0
0
0
0
0
0
0
0
0
0
0
0
0
0
0
0
0
0
0
0
0
0
0
0
0
0
0
0
0
0
0
0
0
0
0
0
0
0
0
0
0
0
0
0
0
0
0
0
0
0
0
0
0
0
0
0
0
0
0
0
0
0
0
0
0
0
0
0
0
0
0
0
0
0
0
0
0
0
0
0
0
0
0
0
0
0
0
0
0
0
0
0
0
0
0
0
0
0
0
0
0
0
0
0
0
0
0
0
0
0
0
0
0
0
0
0
0
0
0
0
0
0
0
0
0
0
0
0
0
0
0
0
0
0
0
0
0
0
0
0
0
0
0
0
0
0
0
0
0
0
0
0
0
0
0
0
0
0
0
0
0
0
0
0
0
0
0
0
0
0
0
0
0
0
0
0
0
0
0
0
0
0
0
0
0
0
0
0
0
0
0
0
0
0
0
0
0
0
0
0
0
0
0
0
0
0
0
0
0
0
0
0
0
0
0
0
0
0
0
0
0
0
0
0
0
0
0
0
0
0
0
0
0
0
0
0
0
0
0
0
0
0
0
0
0
0
0
0
0
0
0
0
0
0
0
0
0
0
0
0
0
0
0
0
0
0
0
0
0
0
0
0
0
0
0
0
0
0
0
0
0
0
0
0
0
0
0
0
0
0
0
0
0
0
0
0
0
0
0
0
0
0
0
0
0
0
0
0
0
0
0
0
0
0
0
0
0
0
0
0
0
0
0
0
0
0
0
0
0
0
0
0
0
0
0
0
0
0
0
0
0
0
0
0
0
0
0
0
0
0
0
0
0
0
0
0
0
0
0
0
0
0
0
0
0
0
0
0
0
0
0
0
0
0
0
0
0
0
0
0
0
0
0
0
0
0
0
0
0
0
0
0
0
0
0
0
0
0
0
0
0
0
0
0
0
0
0
0
0
0
0
0
0
0
0
0
0
0
0
0
0
0
0
0
0
0
0
0
0
0
0
0
0
0
0
0
0
0
0
0
0
0
0
0
0
0
0
0
0
0
0
0
0
0
0
0
0
0
0
0
0
0
0
0
0
0
0
0
0
0
0
0
0
0
0
0
0
0
0
0
0
0
0
0
0
0
0
0
0
0
0
0
0
0
0
0
0
0
0
0
0
0
0
0
0
0
0
0
0
0
0
0
0
0
0
0
0
0
0
0
0
0
0
0
0
0
0
0
0
0
0
0
0
0
0
0
0
0
0
0
0
0
0
0
0
0
0
0
0
0
0
0
0
0
0
0
0
0
0
0
0
0
0
0
0
0
0
0
0
0
0
0
0
0
0
0
0
0
0
0
0
0
0
0
0
0
0
0
0
0
0
0
0
0
0
0
0
0
0
0
0
0
0
0
0
0
0
0
0
0
0
0
0
0
0
0
0
0
0
0
0
0
0
0
0
0
0
0
0
0
0
0
0
0
0
0
0
0
0
0
0
0
0
0
0
0
0
0
0
0
0
0
0
0
0
0
0
0
0
0
0
0
0
0
0
0
0
0
0
0
0
0
0
0
0
0
0
0
0
0
0
0
0
0
0
0
0
0
0
0
0
0
0
0
0
0
0
0
0
0
0
0
0
0
0
0
0
0
0
0
0
0
0
0
0
0
0
0
0
0
0
0
0
0
0
0
0
0
0
0
0
0
0
0
0
0
0
0
0
0
0
0
0
0
0
0
0
0
0
0
0
0
0
0
0
0
0
0
0
0
0
0
0
0
0
0
0
0
0
0
0
0
0
0
0
0
0
0
0
0
0
0
0
0
0
0
0
0
0
0
0
0
0
0
0
0
0
0
0
0
0
0
0
0
0
0
0
0
0
0
0
0
0
0
0
0
0
0
0
0
0
0
0
0
0
0
0
0
0
0
0
0
0
0
0
0
0
0
0
0
0
0
0
0
0
0
0
0
0
0
0
0
0
0
0
0
0
0
0
0
0
0
0
0
0
0
0
0
0
0
0
0
0
0
0
0
0
0
0
0
0
0
0
0
0
0
0
0
0
0
0
0
0
4258.45
5629.04
3085.44
9832.82
10877.3
11760.4
10149.2
5819.25
3653.33
1962.11
10842.7
10918.8
7469.14
2929.15
5876.66
10080.4
7745.29
11397.9
11366.9
9263.39
6270.59
5921.21
6229.55
9643.34
6612.43
12173.2
5556.33
12773.4
3736.23
8597.66
5838.86
11387.7
8513.59
12507.1
11949
3485.65
4008
2989.88
2206.29
1565.49
5131.68
1207.93
7628.54
2230.92
4954.94
579.701
514.187
9.05574
281.897
11398.6
7193.12
11556.5
4819.22
12744.3
3080.56
10607.4
8627.82
11523.6
9517.4
13379.2
13053.4
12654.4
12826.5
3453.71
6248.79
3510.12
7827.58
1480.38
5492.48
3880.66
6756.48
1460.01
2003.82
525.301
2695.09
91.3321
75.3444
6869.54
3776.03
5382.74
4547.24
6208.9
143.557
540.589
12591.7
12865.6
12934.5
12704.2
12394.4
12242.5
12676.2
11673
11982.9
10023.3
12506
11696.8
12757.2
11492.3
11268.3
1784.29
2053.45
405.088
5560.36
54.1654
1399.15
296.141
255.94
500.708
217.938
125.675
332.214
68.4489
11943.5
11171
11989.3
12101.3
11698.5
6383.03
10915.8
11680.2
12288.5
11521
11780.7
11396.3
10189.5
10552
118.525
91.0987
57.718
229.279
4.56324
87.9279
50.8382
63.4457
71.6595
19.994
75.6069
13.8773
26.7476
0
11451.4
1820.44
3876.94
1858.56
4648.36
458.486
217.364
11199.3
5078.45
6761.26
8211.74
9050.08
740.877
2125.08
30.0926
128.038
13.2205
685.923
530.032
831.864
182.31
21.874
97.5076
54.317
342.616
104.345
91.3881
243.927
238.87
37.5402
35.0898
49.4374
17.0195
6.56201
20.0425
2980.86
272.547
154.243
715.583
1168.25
268.434
167.069
586.137
517.11
1221.21
38.5317
27.5133
31.6691
45.8243
1053.55
1183.27
1239.79
64.2605
113.012
259.275
71.3869
20.457
16.6044
11.3001
40.3238
43.8802
12.9275
11.942
668.418
51.7028
206.416
88.0552
317.839
13.2564
271.784
21.1397
44.3899
17.3345
61.959
34.2024
45.3937
30.0914
17.4977
2.32862
0.209655
8.334
8.47601
10.514
6.57046
28.4331
29.1215
7.98424
35.0814
20.8359
18.2864
8.09128
200.156
18.1482
180.857
32.313
114.482
6.19806
96.5582
26.3813
34.9566
25.1829
16.664
15.7288
3.81936
8.92358
9.84122
5.62109e-13
0
6.3617
6.59198
13.6545
0
14.7346
7.79965
11.8611
10.7416
16.383
10.7441
8.5058
116.169
0.12409
49.8187
13.7248
74.9531
2.96514
11.856
1.05986
10.8344
3.32459
0.643283
15.2078
12.5506
3.10077
0.19698
6.86307e-13
0
0
0