/*--------------------------------*- C++ -*----------------------------------*\
| =========                 |                                                 |
| \\      /  F ield         | OpenFOAM: The Open Source CFD Toolbox           |
|  \\    /   O peration     | Version:  5.x                                   |
|   \\  /    A nd           | Web:      www.OpenFOAM.org                      |
|    \\/     M anipulation  |                                                 |
\*---------------------------------------------------------------------------*/
FoamFile
{
    version     2.0;
    format      ascii;
    class       surfaceScalarField;
    location    "2.1";
    object      phi;
}
// * * * * * * * * * * * * * * * * * * * * * * * * * * * * * * * * * * * * * //

dimensions      [0 3 -1 0 0 0 0];

internalField   nonuniform List<scalar> 
29271
(
-9.19012e-06
6.44537e-06
-5.29671e-06
8.05137e-06
-1.36322e-05
-2.45774e-05
2.53333e-05
1.2937e-05
-2.60154e-05
-1.38868e-05
1.59409e-05
-6.44917e-06
1.41467e-05
1.62637e-05
-1.81088e-05
-3.32421e-06
2.08627e-06
2.01828e-07
7.91467e-06
1.12303e-05
-2.25615e-05
-3.94961e-06
6.91382e-07
1.36492e-05
1.26905e-05
-5.19959e-07
-3.45693e-05
-2.46716e-05
9.46687e-06
-3.91252e-06
1.71804e-05
3.65062e-05
-4.21522e-05
-1.91587e-05
5.08684e-06
-1.44029e-05
1.84219e-05
5.2205e-05
-1.89175e-05
-4.63653e-06
3.87654e-06
3.03948e-06
1.59636e-06
1.50416e-05
-4.50733e-05
-1.27488e-05
-1.65841e-05
1.28052e-05
4.63942e-06
5.69616e-05
-2.14869e-05
-2.53253e-06
5.30752e-06
1.36283e-05
5.09461e-06
-1.28972e-05
-6.77517e-06
6.07398e-06
1.35743e-05
-3.25341e-05
7.84966e-07
-1.30322e-05
-3.66904e-06
5.45853e-06
4.29918e-05
-3.78552e-05
-1.12619e-05
1.07651e-05
-8.28941e-06
8.46247e-06
3.81789e-05
-1.63097e-05
-1.92989e-06
3.79082e-06
-9.31341e-07
3.97009e-06
1.141e-05
-2.74994e-05
-4.89805e-06
-2.84153e-06
7.94816e-06
8.53214e-06
1.87587e-05
-3.82164e-05
-7.32924e-06
-4.12687e-06
8.79899e-06
3.17824e-05
9.09118e-06
-3.2243e-05
-2.04804e-06
-1.53756e-06
-1.22067e-06
3.89106e-05
-1.8614e-06
-4.12399e-05
9.68499e-06
-1.37557e-05
-1.20627e-05
8.58287e-06
4.87905e-05
-3.45756e-05
-9.776e-06
7.60607e-06
-8.24596e-06
1.68196e-05
2.81719e-05
-3.95815e-05
-1.14185e-05
1.82767e-05
3.87498e-05
-1.64214e-05
1.03948e-05
-8.90494e-06
-4.38292e-06
5.68228e-06
7.74406e-06
-3.08237e-05
8.86668e-06
-1.07354e-05
3.42299e-05
-1.5406e-06
-3.40786e-05
6.64374e-06
-8.09858e-06
-1.93917e-06
4.54919e-05
-8.01922e-06
-1.01411e-05
-5.45756e-06
4.69896e-06
1.07197e-05
-5.47323e-06
2.6331e-07
1.86426e-06
3.47116e-06
-9.51876e-06
-1.85459e-06
5.68523e-06
5.90841e-06
-2.94834e-06
8.21888e-07
-1.26018e-05
-6.91286e-07
5.01514e-06
1.04044e-05
-2.3492e-06
-1.01816e-05
6.18056e-07
-2.05999e-07
2.19754e-06
9.92117e-06
-7.23107e-06
-1.16785e-06
1.23167e-06
8.54013e-07
6.65971e-06
-3.46478e-07
-1.15251e-05
3.87835e-06
-3.23655e-05
-2.7437e-06
7.75175e-06
3.50043e-05
-1.01829e-05
3.34e-05
0.000114678
-4.55007e-05
-2.11956e-05
-4.96405e-05
-1.62584e-05
-8.35373e-06
-8.42595e-06
-7.06622e-06
-6.84759e-06
2.69589e-06
8.3568e-06
3.59618e-06
1.07444e-05
-4.54496e-05
5.02252e-06
0.000118232
-1.5486e-05
-2.45335e-05
-1.31564e-05
-1.35862e-05
-5.4532e-06
-6.93137e-06
-4.29436e-06
-4.547e-06
-2.19698e-06
2.95344e-05
0.000167512
-1.04756e-05
-2.97759e-06
-4.11854e-06
-2.44565e-06
-2.15352e-06
-1.39033e-06
-1.44688e-06
-6.27848e-05
-5.90461e-05
-2.97833e-05
-6.36767e-05
-1.15417e-05
1.80359e-06
-4.60815e-07
7.99874e-06
-1.076e-05
-1.32132e-06
-2.32192e-07
1.23135e-05
5.74475e-06
-6.27793e-05
-8.27389e-06
-1.71331e-05
7.0237e-06
7.54178e-05
-8.0253e-06
-4.52165e-06
9.66645e-05
-2.99873e-05
-1.13778e-05
-2.87194e-05
-1.08926e-05
1.47017e-05
2.40048e-06
1.01977e-05
2.95978e-06
-3.4827e-05
4.31086e-06
6.02867e-05
-8.61195e-06
-9.26634e-06
-6.93588e-06
-7.95925e-06
-4.22172e-06
7.54529e-06
0.00010507
-2.28588e-06
-3.04645e-06
-1.76955e-06
1.63283e-05
3.87908e-06
6.09488e-06
-1.44201e-05
-6.34894e-05
-2.18919e-05
-3.30854e-05
-2.47356e-05
-2.79277e-06
-5.19128e-06
8.25422e-06
2.02437e-05
-4.7031e-05
6.17171e-06
-1.09641e-05
-6.22257e-06
5.78925e-05
1.53425e-07
-2.69319e-05
2.01527e-07
0.000116725
1.00615e-05
1.2677e-05
1.26681e-05
1.52326e-05
1.26011e-06
1.58986e-06
7.00705e-06
-4.33886e-05
-1.8272e-05
-4.14785e-05
-5.18736e-05
-1.12878e-05
1.86959e-05
9.3201e-05
-1.75733e-05
-4.83319e-06
-4.23099e-06
1.93033e-05
1.45962e-05
8.55659e-06
-1.51713e-05
-1.36046e-05
-5.69847e-05
-5.32883e-05
-1.62537e-05
-1.02618e-05
1.37062e-05
9.06688e-06
-6.73826e-06
-7.35357e-06
5.55345e-06
8.50938e-06
-4.20969e-05
1.76182e-05
-1.87243e-05
4.34024e-05
-8.50186e-05
2.6691e-05
-4.97654e-05
2.57441e-05
0.000101045
-1.63393e-05
-2.77347e-05
3.11257e-05
1.29313e-05
-2.441e-06
1.93412e-07
4.58032e-07
1.84062e-06
-3.19576e-06
-1.14924e-06
2.92429e-06
1.47791e-06
-2.10233e-06
1.23472e-06
-8.40949e-06
-1.00751e-06
3.66397e-06
6.62064e-06
-1.938e-06
-9.24531e-06
7.07438e-07
-9.11939e-07
3.37401e-06
8.0138e-06
-7.35854e-06
-1.04737e-07
-1.64103e-06
3.2879e-07
7.57848e-06
1.19705e-06
-8.13841e-06
-8.31871e-06
-4.80565e-05
1.02398e-05
6.22859e-06
4.80452e-05
-2.46779e-05
1.49309e-05
0.000126271
-3.74358e-06
-4.43902e-06
-3.3896e-06
-3.2096e-06
-1.83479e-07
8.0903e-06
-6.42445e-07
5.67143e-06
-7.09015e-05
2.43581e-05
0.00016551
-6.936e-06
-7.07638e-06
-5.76238e-06
-5.63765e-06
-3.05324e-06
1.92818e-05
9.67961e-05
-2.48188e-06
-2.57951e-06
-1.68507e-06
-1.81454e-06
-2.60403e-06
-2.6501e-06
-2.59906e-06
-8.04433e-06
-3.78231e-06
1.15715e-06
7.7946e-06
-1.71492e-05
-5.04983e-07
-1.33344e-07
1.7788e-05
4.35372e-06
-7.81262e-05
-1.53757e-06
-7.35548e-06
4.08814e-06
7.85774e-05
-1.17924e-05
-6.05921e-06
0.000119808
4.73024e-06
-1.79577e-06
5.95934e-06
7.45383e-07
-4.7548e-05
-3.31643e-06
0.000123717
-5.07588e-06
5.04299e-06
6.16546e-05
-5.23126e-06
-4.15223e-06
-3.96096e-06
2.00491e-06
2.34499e-05
3.07193e-06
-1.33628e-05
-2.6256e-07
-9.13873e-07
2.36878e-06
7.09458e-06
-6.64111e-05
8.31087e-06
-1.16794e-05
-1.06671e-05
7.82241e-05
2.22258e-06
1.2257e-05
-3.9756e-06
9.43527e-05
4.51564e-06
6.89349e-06
8.73543e-07
1.27387e-06
-2.93641e-07
-3.93993e-06
-1.29093e-06
-3.17035e-06
3.45373e-06
0.000112688
-1.52177e-06
-5.45215e-06
-5.96117e-07
-8.45476e-07
-2.13314e-06
-2.80996e-07
-1.31698e-05
-7.80765e-06
2.50556e-06
2.03445e-05
-1.04568e-05
-1.56284e-06
5.58058e-06
6.54587e-06
-4.69368e-05
1.44964e-05
-1.58072e-05
4.42815e-05
-0.000101916
2.01704e-05
-9.59086e-06
1.58557e-05
7.89343e-05
-6.59847e-06
3.5906e-07
-1.40637e-06
7.68614e-06
-1.35126e-06
1.97638e-07
2.88416e-07
8.83804e-07
-7.49342e-07
3.5598e-07
-4.90049e-08
4.66587e-07
-1.1694e-06
-1.74074e-07
-5.00174e-06
-5.37681e-07
1.39387e-06
5.48901e-06
-1.78635e-06
-6.66162e-06
5.74665e-07
-6.64195e-07
3.78248e-06
4.75503e-06
-6.93328e-06
-3.76432e-07
-7.45473e-07
1.0788e-06
5.92449e-06
1.05189e-06
4.62708e-06
3.4631e-07
-4.63273e-05
4.08261e-06
-9.62274e-06
4.6894e-05
-3.52776e-05
-1.6809e-06
0.000156007
2.84761e-07
-8.20688e-07
6.80769e-06
3.453e-06
-4.66557e-06
2.33295e-06
-2.00929e-06
1.84029e-06
-5.21481e-05
2.34026e-05
0.000179583
-4.55984e-06
-3.75897e-06
-7.32345e-06
-4.96268e-06
-2.77323e-06
9.0411e-06
4.91958e-05
-1.08255e-06
-1.14052e-06
-3.52264e-07
-9.45529e-07
-2.73053e-06
-2.33123e-06
-2.23294e-06
-5.63345e-06
-5.14925e-07
3.57222e-07
3.1647e-06
-1.31486e-05
3.87066e-06
-2.81951e-06
1.21109e-05
-9.96247e-07
-8.25638e-05
4.53792e-06
-4.51394e-06
3.31972e-07
8.32041e-05
-4.42025e-07
-2.34116e-06
0.000140349
4.38273e-07
-8.02761e-06
-2.89781e-06
-8.95147e-06
-2.67712e-05
1.14307e-05
0.000162018
-3.75123e-06
1.2738e-05
3.29196e-05
-3.28971e-06
-3.16307e-06
-2.63414e-06
2.23674e-06
7.48612e-06
1.38225e-06
-3.74769e-06
-4.02104e-07
-2.02288e-06
1.47344e-06
9.48001e-07
-8.59652e-05
6.69276e-06
-3.18686e-06
-6.71503e-06
8.59919e-05
3.18245e-06
9.7488e-06
-4.06106e-06
0.000117585
-5.03043e-06
-3.01036e-06
-4.63338e-06
-3.13075e-06
-5.17238e-06
-5.16107e-06
-5.12314e-06
-8.31889e-06
-2.59471e-06
0.000155849
-2.74482e-06
-4.96177e-06
-2.32296e-06
1.37073e-07
-1.24953e-06
7.37091e-08
-2.87274e-05
-6.45709e-06
1.27911e-05
2.68125e-05
-2.50974e-06
-1.22628e-06
4.28007e-06
-4.15282e-07
-4.33254e-05
1.06026e-06
-1.04217e-05
4.86637e-05
-6.10148e-05
2.00371e-06
4.32063e-06
-2.21367e-06
5.43094e-05
-1.40864e-05
-4.69896e-06
-1.82648e-09
1.87835e-05
-4.83758e-07
1.34373e-07
2.75062e-07
9.93362e-08
-6.57639e-07
6.65487e-07
-8.88932e-07
8.97926e-07
-2.3759e-07
-2.35856e-06
-9.63653e-06
7.66041e-07
-2.4597e-06
1.39263e-05
-1.12971e-06
-1.92256e-06
1.06768e-06
1.57742e-07
1.18014e-06
6.46698e-07
-5.65246e-06
-8.52119e-07
-4.81999e-07
2.92969e-06
4.04294e-06
1.39535e-08
5.67087e-06
3.21605e-06
-4.56937e-05
-1.31917e-06
-8.58008e-06
4.6706e-05
-5.03092e-05
2.15202e-06
0.00017579
6.15677e-06
2.76415e-06
6.59472e-06
3.59398e-06
9.66182e-07
1.2265e-06
2.31078e-06
4.76054e-06
-3.80693e-05
2.16265e-05
0.000150282
-1.69824e-06
-4.23909e-06
1.79128e-06
-4.19338e-07
-1.35263e-06
1.6239e-06
2.39688e-05
-2.88143e-06
-5.77256e-07
-4.92475e-06
-1.19076e-06
-1.30165e-06
-1.11845e-06
-1.11932e-06
-8.95837e-07
7.08873e-08
1.35741e-07
-6.20099e-07
-1.53508e-05
4.75494e-06
-6.68441e-06
1.72797e-05
4.54438e-06
-7.45756e-05
5.59153e-06
-1.17427e-06
-2.15524e-07
6.58295e-05
-5.29221e-06
4.46594e-06
0.000158037
-3.97499e-06
-6.603e-06
-5.90811e-07
-3.54065e-06
-2.02796e-05
2.20292e-05
0.000176603
-1.20098e-06
4.71592e-06
1.32739e-05
-1.24623e-06
-1.31373e-06
-1.49525e-06
-1.02341e-06
3.85751e-06
-1.30387e-06
1.25843e-06
-2.05183e-07
-3.97513e-07
6.85796e-07
-2.54251e-06
-8.82846e-05
-1.63184e-06
3.59187e-06
2.90468e-06
8.83965e-05
-4.97668e-06
5.14551e-07
-3.45825e-06
0.000147439
-3.56915e-06
-2.20306e-06
-3.68939e-06
-2.92162e-06
-3.41309e-06
-3.75421e-06
-2.89349e-06
-2.37917e-06
1.36921e-06
0.000175018
-1.39493e-06
5.43044e-07
4.24937e-07
9.1043e-07
2.36639e-06
1.53519e-06
-2.4808e-05
-1.23776e-06
5.45241e-06
2.29301e-05
1.93813e-06
-7.48096e-07
1.10938e-06
-2.29925e-06
-5.25644e-05
2.98081e-06
-9.48794e-06
5.56139e-05
-5.30094e-05
1.66481e-06
4.6194e-07
-1.42794e-06
5.36798e-05
-2.09956e-05
-1.72353e-06
1.27122e-06
2.14479e-05
1.99332e-07
-2.00769e-08
2.63783e-07
-4.19089e-07
-1.48801e-06
1.64783e-06
-3.06333e-06
2.90464e-06
1.07502e-06
-6.01935e-07
-1.80482e-05
2.56187e-07
-3.00855e-06
2.03275e-05
-7.02796e-07
-9.73871e-07
-1.74349e-07
4.55645e-07
-4.72231e-07
1.8676e-06
-2.40272e-06
-1.35046e-07
-1.72138e-07
2.45095e-06
1.07724e-06
-8.18283e-07
5.91666e-06
-1.03626e-06
-4.77314e-05
4.56947e-07
-5.2512e-06
4.76452e-05
-3.00946e-05
-1.72849e-07
0.000185558
3.90379e-06
6.77556e-07
2.67915e-06
1.24325e-06
2.34096e-06
4.11392e-06
1.50278e-06
4.03785e-06
-1.11686e-05
1.59329e-05
0.000108435
1.83297e-06
5.63933e-07
3.24318e-06
1.34821e-06
5.96399e-07
1.03426e-05
3.72403e-06
-2.88758e-06
-5.52629e-07
-6.15998e-07
-1.71274e-07
5.55274e-07
9.19661e-07
8.89753e-07
1.88859e-06
1.64747e-07
5.7844e-08
4.895e-07
-2.00428e-06
-1.20628e-07
1.24852e-08
2.58992e-08
9.7927e-08
-1.75062e-05
2.39532e-06
-2.02867e-06
1.71397e-05
3.70561e-07
-6.22874e-05
2.15305e-06
-8.85043e-07
4.4242e-07
6.02064e-05
-3.549e-06
-4.89198e-06
0.000177565
-1.84354e-06
-5.30331e-06
-6.46911e-07
-3.46667e-06
-8.45479e-06
2.19927e-05
0.000175449
4.74251e-07
2.68086e-06
1.05259e-05
8.19996e-08
3.13021e-07
-3.22454e-07
-4.45122e-07
3.20836e-06
-1.35505e-06
4.00057e-06
-4.83936e-07
-5.84426e-07
1.4044e-07
-2.5984e-06
-1.30058e-08
-7.57387e-10
4.14525e-10
1.36689e-09
1.05799e-08
-8.63529e-05
-1.07887e-06
2.65292e-06
4.92955e-07
8.52146e-05
-9.28729e-07
5.30087e-07
-3.92427e-06
0.00016415
-3.64283e-06
-2.42001e-06
-1.3835e-06
-1.7265e-06
-2.95639e-06
-3.66211e-06
-2.41773e-06
1.95391e-06
1.90547e-06
0.000180137
1.23814e-06
3.81848e-06
2.21543e-06
1.69963e-06
2.29456e-06
2.27776e-06
-2.32159e-05
2.66905e-06
9.12401e-07
2.42692e-05
2.37947e-06
-8.7735e-07
-5.52688e-07
-9.4908e-07
-5.65996e-05
2.43146e-06
-6.37153e-06
5.66155e-05
-5.3279e-05
3.72298e-06
-3.76805e-07
-5.78897e-08
5.18961e-05
-2.11313e-05
2.54931e-06
-1.54034e-06
2.01224e-05
4.84606e-07
-9.37783e-08
5.78634e-09
-4.09894e-07
-4.75556e-06
2.40033e-06
-4.41586e-06
6.77278e-06
1.77956e-06
-5.01941e-07
-2.13959e-05
7.99953e-07
-2.81575e-06
2.21341e-05
-4.35896e-07
-3.80179e-06
-1.08822e-06
7.13166e-07
-4.94103e-07
5.10684e-06
-1.31417e-06
2.93936e-07
1.01879e-08
3.65098e-07
1.39543e-06
-7.50472e-07
5.77621e-06
-1.64951e-06
-4.67233e-05
6.52231e-07
-4.45412e-06
4.63985e-05
-1.51281e-05
-2.38407e-06
0.000187275
2.1687e-06
1.36964e-06
1.94571e-06
2.3271e-06
1.04829e-06
2.45787e-06
9.93331e-07
3.48503e-06
-8.18355e-06
1.04937e-05
9.49372e-05
6.59401e-07
-8.3379e-07
-1.8992e-06
-1.86692e-06
6.88709e-07
4.03735e-06
-1.77781e-06
-1.59101e-06
-6.68503e-07
-1.23798e-06
-6.76611e-07
-8.05805e-08
-3.03324e-07
-2.84977e-06
2.14881e-06
-5.60321e-07
1.20719e-06
4.58787e-07
-2.56576e-06
2.07058e-07
-5.42285e-08
-1.06364e-06
-1.65208e-07
2.10624e-06
-1.03023e-06
-1.64179e-05
1.79849e-06
-8.6638e-07
1.54858e-05
-8.37554e-07
-5.85756e-05
1.5602e-06
2.52106e-07
1.32988e-06
5.6271e-05
2.80079e-06
-6.13218e-06
0.000192689
-3.19241e-06
-5.47746e-06
-1.82665e-06
-3.67979e-06
-7.48296e-06
1.89653e-05
0.000177261
-2.48779e-06
9.11471e-07
2.10791e-05
-2.13149e-06
-3.20205e-06
-2.58792e-06
-2.68951e-06
1.55529e-06
-3.36685e-06
2.01097e-06
-5.71588e-08
-2.82466e-06
-9.4266e-07
-6.7428e-07
-5.35703e-07
-2.78678e-06
2.58128e-06
-2.40738e-06
2.23084e-06
9.17743e-07
-8.53285e-05
-2.03736e-06
2.56175e-06
1.04516e-06
8.50863e-05
-1.32733e-06
3.39866e-06
-3.45275e-06
0.000173302
-2.38221e-06
-1.86452e-06
-1.43842e-06
-1.60218e-06
-2.80837e-06
-3.15136e-06
-1.98297e-06
3.56751e-06
1.70431e-06
0.000182091
2.354e-06
4.19563e-06
2.71273e-06
1.80455e-06
1.93914e-06
2.13225e-06
-2.70038e-05
4.55569e-06
-5.3722e-07
2.74643e-05
-1.30589e-06
2.61829e-06
-4.0279e-06
-8.78764e-07
3.59431e-06
-4.0053e-07
1.66431e-06
-1.43703e-06
1.73248e-07
-5.66504e-05
2.80774e-06
-6.52139e-06
5.69112e-05
-5.11282e-05
2.76659e-06
-1.00748e-07
2.52429e-07
4.99142e-05
-1.90843e-05
3.58484e-06
-2.40037e-06
1.78998e-05
2.8048e-07
-2.47256e-07
7.30071e-08
-1.10653e-07
-8.79944e-06
2.72389e-06
-4.50788e-06
1.05842e-05
1.48766e-06
-8.21639e-07
-2.25039e-05
1.21105e-06
-2.55142e-06
2.31782e-05
-5.10174e-07
-5.04537e-06
-1.91154e-06
9.76107e-07
1.40258e-06
5.0884e-06
-1.36571e-06
2.79126e-07
1.56425e-07
5.02895e-08
1.43157e-06
-5.51708e-07
5.31446e-06
-2.61925e-06
-4.64603e-05
1.36492e-06
-4.28477e-06
4.66849e-05
-1.22802e-05
-3.65076e-06
0.00018992
2.12829e-06
1.99814e-06
2.34393e-06
2.86095e-06
4.34374e-07
1.3011e-06
5.29943e-07
1.68953e-06
-2.58139e-06
1.13691e-05
7.77611e-05
-1.6765e-06
-7.12625e-07
-1.31935e-06
-1.83339e-07
-1.59854e-06
6.71826e-06
-2.88262e-06
-1.04699e-06
-7.71937e-07
-1.0797e-06
-6.81719e-07
-1.36791e-06
-1.32598e-06
-3.22056e-07
3.76254e-06
-5.52192e-07
-1.63971e-06
2.10845e-06
-5.27763e-06
3.65335e-06
-1.06206e-06
4.1756e-07
3.83183e-07
3.03579e-06
-6.42783e-06
-1.50104e-05
6.0903e-07
3.80739e-07
1.40206e-05
-1.46962e-06
-5.44404e-05
1.10652e-06
1.40846e-06
1.41895e-06
5.19761e-05
1.15909e-05
-7.37307e-06
0.000200714
-3.97502e-06
-5.28017e-06
-2.92408e-06
-3.71419e-06
1.50295e-06
1.61107e-05
0.000182607
-2.04893e-06
5.10962e-07
3.86074e-05
-1.52962e-06
-1.61922e-06
1.72782e-06
-3.7826e-06
1.32592e-06
-3.89144e-06
-1.48715e-06
-1.75616e-06
-2.13537e-06
-9.61445e-07
4.29119e-06
-3.30598e-07
-3.5749e-06
1.39383e-06
-1.07688e-06
2.89149e-06
6.97057e-07
-8.46914e-05
-2.33923e-06
2.94687e-06
1.53577e-06
8.40351e-05
-1.48701e-06
4.72323e-06
-3.30442e-06
0.000179796
-2.4539e-06
-1.93481e-06
-1.20671e-06
-1.92491e-06
-2.17519e-06
-3.36893e-06
-2.22146e-06
3.20553e-06
1.4258e-06
0.000182313
3.01371e-06
3.80478e-06
3.13007e-06
2.06724e-06
1.8517e-06
2.11304e-06
-2.92081e-05
4.97084e-06
-1.0442e-06
2.89979e-05
-6.55302e-06
3.5884e-06
-6.87196e-06
1.18792e-06
8.64866e-06
-9.09185e-07
-1.21304e-06
1.21953e-06
-9.59579e-07
1.86228e-06
-5.69671e-05
3.04625e-06
-5.85955e-06
5.64767e-05
-4.88295e-05
2.77774e-06
-2.05485e-07
4.8884e-07
4.71942e-05
-1.66852e-05
3.90966e-06
-2.69253e-06
1.54676e-05
-5.83653e-08
-2.38126e-07
1.29921e-07
1.63272e-07
-1.17765e-05
2.92438e-06
-3.70216e-06
1.25544e-05
1.57862e-06
-1.567e-06
-2.40697e-05
1.94795e-06
-2.65071e-06
2.47609e-05
-8.73231e-07
-5.27701e-06
-2.84244e-06
1.71158e-06
1.48256e-06
5.79855e-06
-1.47785e-06
1.5842e-07
4.08063e-07
2.36857e-07
1.4913e-06
-8.16791e-07
4.35222e-06
-2.82676e-06
-4.71743e-05
1.55679e-06
-3.9132e-06
4.80053e-05
-4.26924e-06
-5.25539e-06
0.000187874
2.45034e-06
2.12607e-06
2.54164e-06
2.62893e-06
2.16335e-07
-3.23051e-08
5.82096e-07
1.05733e-06
5.6249e-06
7.54458e-06
5.95122e-05
-5.52833e-07
9.76041e-07
-2.98092e-07
6.85073e-07
-7.74672e-07
1.04276e-05
-1.90545e-06
-1.65467e-06
-1.40031e-06
-2.38672e-06
-1.57548e-06
4.80011e-07
-4.07627e-07
1.93956e-06
8.37195e-06
-5.43981e-07
-9.98403e-07
-2.90178e-07
-7.31406e-06
8.19914e-06
-1.45784e-06
2.33935e-06
-4.42102e-06
-4.65964e-06
-1.15158e-05
1.22965e-06
2.47526e-06
7.81093e-06
-5.34524e-06
-5.01154e-05
1.3716e-06
3.13509e-06
1.42903e-06
4.9525e-05
1.84331e-05
-1.04757e-05
0.000204696
-5.4857e-06
-4.9941e-06
-3.89784e-06
-2.81785e-06
1.28674e-05
1.56289e-05
0.000180088
1.50334e-06
1.14007e-06
5.25006e-05
3.68278e-06
2.78326e-06
4.26346e-06
-2.66858e-06
1.91812e-06
-3.22062e-06
-7.15197e-06
1.96705e-06
1.91842e-06
-4.41191e-06
9.18176e-06
-2.06872e-06
4.39799e-06
-3.05786e-06
2.61687e-06
-3.39859e-06
1.5103e-06
-8.385e-05
-2.32506e-06
2.59432e-06
1.38984e-06
8.37176e-05
-1.52677e-06
4.17799e-06
-3.79174e-06
0.000185234
-2.093e-06
-1.93418e-06
-1.00754e-06
-1.88776e-06
-3.04257e-06
-3.72212e-06
-2.61286e-06
2.59525e-06
1.67544e-06
0.000181475
3.23033e-06
3.369e-06
3.30519e-06
2.25809e-06
1.83951e-06
2.37243e-06
-3.00049e-05
4.68128e-06
-5.4951e-07
2.96084e-05
-7.02698e-06
5.03975e-06
-8.03181e-06
1.0019e-05
-5.55893e-05
2.88203e-06
-5.18765e-06
5.41029e-05
-4.57672e-05
2.63204e-06
-1.63251e-07
7.90172e-07
4.41837e-05
-1.46141e-05
3.4794e-06
-2.97828e-06
1.4113e-05
-2.8961e-07
-1.91643e-07
-1.18058e-08
4.86937e-07
-1.27018e-05
3.01019e-06
-2.85936e-06
1.25521e-05
1.81124e-06
-2.29325e-06
-2.50169e-05
2.80979e-06
-2.46589e-06
2.5155e-05
-1.6363e-06
-6.0624e-06
-3.28266e-06
2.32435e-06
2.50517e-06
6.15184e-06
-1.54576e-06
-9.56766e-08
4.95302e-07
9.45657e-07
1.68389e-06
-1.48341e-06
2.76857e-06
-7.67603e-07
-4.88055e-05
6.24674e-07
-3.07121e-06
4.92511e-05
-3.38491e-06
-6.88399e-06
0.000184426
2.48209e-06
1.92422e-06
2.63089e-06
2.51952e-06
8.75049e-07
2.24353e-07
1.26115e-06
1.79944e-06
-2.02664e-06
7.23233e-06
5.32696e-05
-7.90845e-07
-3.14001e-07
-5.51844e-07
-6.9126e-07
-8.29124e-07
1.00673e-05
-3.30436e-06
-2.40294e-06
-1.69439e-06
-3.11911e-06
-1.89187e-06
7.58207e-07
-1.68787e-06
1.72059e-07
5.82843e-06
1.37416e-06
-4.85759e-06
-3.17397e-06
-5.09495e-06
-9.94942e-07
2.34229e-06
3.75015e-06
-3.53105e-06
-4.95213e-05
1.56035e-06
1.96594e-06
2.82902e-07
4.92431e-05
2.10999e-05
-1.41143e-05
0.000203542
-4.60718e-06
-3.5342e-06
-2.55222e-06
-2.0221e-06
1.45161e-05
1.42906e-05
0.000179614
3.32546e-06
1.36166e-06
6.38886e-05
3.8483e-06
3.63942e-06
4.19168e-06
-2.9246e-06
2.38917e-06
-2.63575e-06
-1.39996e-05
5.83063e-06
5.12752e-06
-8.70294e-06
1.50699e-05
-8.37899e-05
-2.48613e-06
2.62684e-06
1.00043e-06
8.35685e-05
-9.19713e-07
3.53908e-06
-4.01672e-06
0.000188309
-2.01361e-06
-1.71094e-06
-4.43503e-07
-1.22451e-06
-3.27475e-06
-4.30214e-06
-3.74181e-06
2.38881e-06
1.51333e-06
0.000178694
3.34303e-06
3.48232e-06
3.40996e-06
2.31517e-06
1.73493e-06
2.4233e-06
-3.0699e-05
4.22086e-06
-1.44969e-07
3.03735e-05
-1.07131e-05
7.79154e-06
-7.06988e-06
9.99146e-06
-5.24405e-05
3.02103e-06
-5.42976e-06
5.08328e-05
-4.33194e-05
2.14478e-06
-1.3353e-08
5.36358e-07
4.21649e-05
-1.38802e-05
2.89035e-06
-2.85121e-06
1.38411e-05
-6.33364e-07
-2.69845e-07
2.29508e-07
6.74907e-07
-1.23731e-05
3.14282e-06
-2.83593e-06
1.20662e-05
2.1852e-06
-3.22474e-06
-2.51352e-05
3.70282e-06
-2.56511e-06
2.5037e-05
-2.20854e-06
-6.18977e-06
-3.80784e-06
2.47263e-06
3.24468e-06
6.48885e-06
-1.28228e-06
-1.24673e-07
5.16145e-07
1.42662e-06
6.66492e-07
-1.20231e-06
2.1061e-06
5.53788e-07
-4.90929e-05
9.67391e-08
-2.19119e-06
4.85274e-05
-3.81828e-06
-7.03452e-06
0.000179713
2.56115e-06
2.02082e-06
2.56933e-06
2.63458e-06
1.26964e-06
9.06963e-07
1.43827e-06
2.16499e-06
-6.43922e-06
5.90649e-06
5.64441e-05
-1.35708e-06
-1.78033e-06
-1.12259e-06
-2.20005e-06
-2.35721e-06
6.73486e-06
9.80284e-10
-2.94399e-06
-1.51294e-06
-3.39889e-06
-1.14636e-06
-8.15239e-07
-3.22024e-06
-1.08455e-06
-7.80082e-08
2.63417e-06
-7.26044e-06
2.34708e-06
-3.15522e-06
-1.56883e-06
1.63175e-06
3.09101e-06
-8.84425e-08
-4.88537e-05
1.43679e-06
2.89865e-07
-7.79155e-07
4.79946e-05
2.32081e-05
-1.62693e-05
0.00020026
-3.37075e-06
-3.34797e-06
-1.8177e-06
-2.15445e-06
1.74575e-05
1.21038e-05
0.000179167
4.02775e-06
1.27922e-06
7.23041e-05
4.47795e-06
4.07513e-06
4.57748e-06
-2.55351e-06
2.26653e-06
-2.37367e-06
-1.59046e-05
6.95014e-06
5.22608e-06
-9.1652e-06
1.69213e-05
-8.34626e-05
-1.52765e-06
1.9114e-06
7.1358e-07
8.2506e-05
-1.40726e-07
4.56271e-06
-4.51364e-06
0.000187835
-1.35144e-06
-8.83461e-07
1.10835e-07
-6.41502e-07
-4.44206e-06
-4.60801e-06
-4.02856e-06
2.72666e-06
1.26843e-06
0.000175421
3.38515e-06
3.81626e-06
3.44774e-06
2.26316e-06
1.03256e-06
1.99944e-06
-3.18925e-05
4.28593e-06
-1.07208e-07
3.17197e-05
-1.07469e-05
6.07795e-06
-6.91091e-06
1.15798e-05
-4.90809e-05
2.77046e-06
-4.86067e-06
4.66575e-05
-4.16501e-05
1.56156e-06
2.00772e-07
1.01565e-08
4.11461e-05
-1.38736e-05
2.64912e-06
-2.71128e-06
1.39357e-05
-7.61087e-07
-1.6239e-06
1.52935e-06
8.55859e-07
-1.17295e-05
3.6892e-06
-3.04419e-06
1.10845e-05
2.40858e-06
-4.10546e-06
-2.46681e-05
4.72789e-06
-2.46181e-06
2.40989e-05
-2.9318e-06
-7.07705e-06
-4.54191e-06
2.65233e-06
3.72334e-06
8.17509e-06
1.98688e-07
-6.62189e-08
-7.59215e-07
1.41461e-06
-4.7493e-07
-3.12937e-07
1.5382e-06
1.45592e-06
-4.79237e-05
-4.955e-07
-1.75067e-06
4.71757e-05
-2.23406e-06
-8.66619e-06
0.000177598
2.26643e-06
1.87059e-06
2.04939e-06
2.39815e-06
1.04e-06
6.87992e-07
1.02448e-06
1.67782e-06
-7.92916e-06
4.84429e-06
6.77956e-05
-1.9364e-06
-3.54447e-06
-1.50672e-06
-3.51315e-06
-3.13594e-06
4.31021e-06
4.26169e-06
-3.14162e-06
-9.30105e-08
-3.70929e-06
3.66841e-07
-1.4e-06
-3.52323e-06
-1.86383e-06
-3.7651e-06
4.16877e-06
-8.37266e-06
4.83337e-06
-3.27918e-06
-6.71311e-07
1.34302e-07
3.81713e-06
1.971e-06
-4.67061e-05
1.57493e-06
-5.08578e-07
-1.50588e-06
4.51746e-05
2.32228e-05
-1.85743e-05
0.00019595
-2.5956e-06
-3.3252e-06
-1.09173e-06
-1.99232e-06
1.77256e-05
9.79726e-06
0.000179712
3.83163e-06
7.71277e-07
8.11286e-05
4.21219e-06
3.54119e-06
3.98157e-06
-2.50761e-06
1.76269e-06
-2.38161e-06
-1.82513e-05
6.99532e-06
4.77682e-06
-8.79015e-06
1.91009e-05
-8.17162e-05
-5.50776e-07
1.42874e-06
-6.55348e-08
8.01652e-05
7.38605e-07
5.59906e-06
-4.89098e-06
0.000183331
-1.28611e-06
-7.99942e-07
-3.53628e-08
-6.98232e-07
-4.29711e-06
-4.26598e-06
-3.39601e-06
3.0207e-06
1.24028e-07
0.000173538
3.34757e-06
4.23712e-06
3.43526e-06
1.59624e-06
2.08526e-07
1.31008e-06
-3.36637e-05
4.05246e-06
-2.20224e-07
3.36235e-05
-1.22535e-05
5.8704e-06
-6.44134e-06
1.28245e-05
-4.38442e-05
3.2508e-06
-5.06742e-06
4.07699e-05
-4.03475e-05
2.48528e-06
4.79261e-08
1.62064e-07
3.77763e-05
-1.38588e-05
2.83541e-06
-2.45847e-06
1.34818e-05
-1.1795e-06
-1.82952e-06
1.47037e-06
1.53932e-06
-1.02075e-05
4.25196e-06
-3.63299e-06
9.58869e-06
2.49644e-06
-5.27381e-06
-2.3483e-05
5.69282e-06
-2.31283e-06
2.28804e-05
-2.8529e-06
-9.44443e-06
-5.52874e-06
3.09105e-06
3.60208e-06
1.11329e-05
4.38221e-08
2.77187e-07
-3.40375e-06
1.49948e-06
9.02621e-07
6.80643e-07
1.2387e-06
1.94863e-06
-4.59302e-05
-1.08535e-06
-5.29393e-07
4.43576e-05
4.63685e-06
-1.13382e-05
0.000176196
1.68352e-06
1.51608e-06
1.46652e-06
2.185e-06
4.41961e-07
-2.89118e-07
4.47543e-07
6.51713e-07
-4.51809e-06
2.87481e-06
8.59743e-05
-2.17123e-06
-4.45226e-06
-1.27129e-06
-4.00376e-06
-3.09736e-06
2.35415e-06
1.34623e-05
-3.57857e-06
1.10597e-06
-4.09624e-06
9.67154e-07
-1.91087e-06
-3.31271e-06
-2.15024e-06
-5.02983e-06
5.65889e-06
-9.06588e-06
5.33946e-06
-4.6828e-06
8.17478e-07
-1.95546e-06
5.82078e-06
3.8661e-06
-4.4254e-05
5.52657e-07
-1.97542e-06
-1.64253e-06
4.34532e-05
2.12584e-05
-2.03702e-05
0.000191562
-1.92852e-06
-2.98003e-06
-1.05583e-06
-1.87363e-06
1.72423e-05
5.71605e-06
0.000180887
3.35224e-06
5.44397e-08
9.11072e-05
3.83636e-06
3.17176e-06
3.65113e-06
-2.66283e-06
8.6946e-07
-2.65471e-06
-2.01952e-05
7.26522e-06
4.13189e-06
-8.85596e-06
2.10063e-05
-7.82439e-05
-3.56684e-07
1.62511e-06
-5.85517e-07
7.61891e-05
1.3719e-06
6.55573e-06
-4.07268e-06
0.000173322
-1.60871e-06
-1.11611e-06
-5.24253e-07
-1.41984e-06
-2.25129e-06
-4.22674e-06
-1.69683e-06
3.1615e-06
3.04862e-07
0.000169641
3.28717e-06
4.4955e-06
3.4171e-06
8.69253e-07
3.25186e-07
3.07857e-07
-3.55241e-05
4.0645e-06
-2.99419e-07
3.4975e-05
-1.3284e-05
5.75747e-06
-6.05127e-06
1.35778e-05
-3.80803e-05
2.17608e-06
-2.96782e-06
3.47997e-05
-3.47865e-05
2.33363e-06
5.85872e-08
7.77684e-07
3.19215e-05
-1.29891e-05
2.52304e-06
-2.17822e-06
1.26443e-05
-2.02747e-06
-1.78435e-06
1.35085e-06
2.46186e-06
-9.12236e-06
5.10594e-06
-4.88886e-06
8.90528e-06
2.66124e-06
-5.59014e-06
-2.23239e-05
5.83586e-06
-2.64836e-06
2.20653e-05
-2.42477e-06
-1.27681e-05
-5.80335e-06
3.72605e-06
2.40672e-06
1.48634e-05
-1.77133e-06
1.08775e-06
-4.11411e-06
1.27699e-06
2.93928e-06
5.81422e-07
2.80934e-06
1.3722e-06
-4.25787e-05
-6.77765e-07
-1.69898e-06
4.07739e-05
1.74175e-05
-1.45856e-05
0.000174096
1.73765e-06
1.72031e-06
1.85268e-06
2.56306e-06
-1.29455e-06
-2.40052e-06
-2.37734e-06
-2.53309e-06
4.84418e-06
-3.20677e-06
0.000109344
-9.30347e-07
-3.97581e-06
2.22935e-07
-2.9067e-06
-2.27007e-06
1.60518e-07
3.09427e-05
-3.85799e-06
1.55332e-06
-4.01826e-06
9.73755e-07
-1.31247e-06
-2.51203e-06
-1.35293e-06
-5.47137e-06
6.44858e-06
-9.5685e-06
6.32121e-06
-7.33548e-06
2.07592e-06
-4.13179e-06
9.39152e-06
4.22066e-06
-4.27446e-05
2.28775e-06
-1.28815e-06
-4.13324e-06
4.16576e-05
2.36049e-05
-2.2543e-05
0.000187988
-3.0108e-06
-3.95993e-06
-2.15551e-06
-2.94742e-06
2.04508e-05
-1.36333e-06
0.000182197
3.46919e-06
-9.42176e-07
0.000104071
3.93503e-06
3.43846e-06
3.83023e-06
-2.99263e-06
-1.11102e-07
-2.97974e-06
-2.17764e-05
7.54098e-06
4.07184e-06
-9.09117e-06
2.27239e-05
-7.39812e-05
-3.77406e-07
2.34527e-06
-1.44118e-06
6.9923e-05
3.53154e-06
1.16417e-05
-3.88442e-06
0.000159001
-2.72237e-06
-2.00208e-06
-1.63316e-06
-2.04315e-06
-2.3206e-06
-3.08485e-06
-2.17316e-06
3.54414e-06
-7.66459e-07
0.00016647
3.62506e-06
5.06762e-06
3.80646e-06
-4.27715e-07
-9.75813e-07
-4.23764e-07
-3.63757e-05
4.17752e-06
-6.951e-07
3.54953e-05
-1.37745e-05
5.70393e-06
-5.82248e-06
1.3893e-05
-2.97544e-05
8.43813e-07
2.00119e-06
2.3025e-05
-3.03519e-05
-1.73513e-06
2.46478e-06
-7.54154e-07
2.96099e-05
-1.26025e-05
2.34047e-06
-2.43849e-06
1.27005e-05
-2.90227e-06
-1.45519e-06
1.05802e-06
3.29944e-06
-9.11393e-06
6.30747e-06
-6.88776e-06
9.69422e-06
2.61165e-06
-5.66062e-06
-2.19543e-05
5.70809e-06
-2.89672e-06
2.21919e-05
-1.87823e-06
-1.68073e-05
-5.83761e-06
4.53646e-06
1.11588e-06
1.88708e-05
-4.29254e-06
1.41201e-06
-3.59378e-06
1.03175e-06
6.10802e-06
-6.65457e-07
4.80734e-06
-3.74094e-07
-3.84794e-05
1.08308e-06
-3.03739e-06
3.60004e-05
2.53548e-05
-2.19873e-05
0.0001761
2.55488e-06
2.49013e-06
2.92564e-06
3.41917e-06
-3.96119e-06
-4.67915e-06
-4.20474e-06
-3.9162e-06
1.3619e-05
-9.85321e-06
0.000131711
5.27157e-07
-2.26863e-06
1.60677e-06
-6.43058e-07
-1.38952e-06
-1.91816e-06
5.44054e-05
-3.80718e-06
1.47599e-06
-3.21465e-06
8.5094e-07
-2.14768e-07
-1.42913e-06
-1.9721e-07
-7.12251e-06
6.44696e-06
-9.35138e-06
8.63741e-06
-1.11928e-05
3.08221e-06
-3.85856e-06
1.19701e-05
2.93844e-06
-4.06285e-05
3.9624e-06
-1.09896e-07
-6.10456e-06
3.99421e-05
2.64412e-05
-2.86564e-05
0.000183869
-3.68017e-06
-4.53415e-06
-3.45527e-06
-3.98367e-06
2.32132e-05
-7.89008e-06
0.000183462
3.74005e-06
-1.91541e-06
0.000118571
4.19173e-06
4.03138e-06
4.08267e-06
-3.16259e-06
-1.1107e-06
-3.06171e-06
-2.35189e-05
7.4488e-06
4.12108e-06
-9.07714e-06
2.47663e-05
-6.3669e-05
1.64162e-06
2.62231e-06
-2.46923e-07
5.4621e-05
5.03099e-06
1.91427e-05
-2.60229e-06
0.000134047
-3.40579e-06
-3.34486e-06
-2.96732e-06
-3.75043e-06
-2.47283e-06
-2.19896e-06
-2.10272e-06
4.2905e-06
-1.44998e-06
0.000162748
4.01888e-06
5.76534e-06
4.07057e-06
-7.07105e-07
-8.92676e-07
-1.21301e-07
-3.67846e-05
4.40292e-06
-1.27963e-06
3.60364e-05
-1.3998e-05
5.41505e-06
-5.52592e-06
1.4109e-05
-1.73366e-05
-1.69476e-06
2.19705e-06
1.4232e-05
-2.97928e-05
-2.43864e-06
3.41258e-06
-2.50266e-06
2.98715e-05
-1.29601e-05
1.95456e-06
-2.09495e-06
1.31005e-05
-3.71073e-06
-1.15385e-06
7.15517e-07
4.14907e-06
-1.06994e-05
7.15371e-06
-8.5088e-06
1.20547e-05
2.28073e-06
-5.61794e-06
-2.26732e-05
5.57131e-06
-3.03027e-06
2.34694e-05
-1.2733e-06
-2.07661e-05
-5.85148e-06
5.07803e-06
3.45078e-07
2.24678e-05
-8.42879e-06
1.60371e-06
-2.83609e-06
6.11003e-07
1.08632e-05
-1.81299e-06
8.65432e-06
-3.10945e-06
-3.41221e-05
3.48615e-06
-8.22497e-06
3.33161e-05
2.82999e-05
-2.87979e-05
0.000182044
3.75565e-06
3.12796e-06
4.19123e-06
4.1095e-06
-4.91228e-06
-5.79091e-06
-4.97418e-06
-4.95278e-06
1.86893e-05
-1.24831e-05
0.000149981
1.19302e-06
-6.39245e-07
2.36818e-06
9.01649e-07
-9.56869e-07
-2.8022e-06
7.94583e-05
-3.14928e-06
1.09572e-06
-2.14934e-06
9.21536e-07
5.16021e-07
-5.75074e-07
7.35886e-07
-1.02378e-05
5.70154e-06
-8.33747e-06
1.19169e-05
-1.15489e-05
4.6106e-06
-3.68039e-06
1.06187e-05
-1.32166e-06
-3.94521e-05
8.09699e-06
4.214e-06
-9.08972e-06
3.75525e-05
2.61725e-05
-3.19725e-05
0.000184813
-6.05363e-06
-6.74152e-06
-5.20883e-06
-5.93832e-06
2.3219e-05
-1.13115e-05
0.000185244
3.86699e-06
-2.54313e-06
0.0001329
4.13458e-06
4.18153e-06
4.07543e-06
-3.05997e-06
-1.66078e-06
-2.90739e-06
-2.59384e-05
6.73319e-06
3.98901e-06
-8.3276e-06
2.74108e-05
-4.41328e-05
3.44212e-07
4.52179e-06
-9.80848e-07
3.41109e-05
6.1368e-06
1.60547e-05
-2.163e-06
0.000111778
-5.03901e-06
-4.39505e-06
-3.24648e-06
-3.77316e-06
-2.44575e-06