/*--------------------------------*- C++ -*----------------------------------*\
| =========                 |                                                 |
| \\      /  F ield         | OpenFOAM: The Open Source CFD Toolbox           |
|  \\    /   O peration     | Version:  5.x                                   |
|   \\  /    A nd           | Web:      www.OpenFOAM.org                      |
|    \\/     M anipulation  |                                                 |
\*---------------------------------------------------------------------------*/
FoamFile
{
    version     2.0;
    format      ascii;
    class       volScalarField;
    location    "0.4";
    object      voidfraction;
}
// * * * * * * * * * * * * * * * * * * * * * * * * * * * * * * * * * * * * * //

dimensions      [0 0 0 0 0 0 0];

internalField   nonuniform List<scalar> 
10571
(
0.957197
0.905124
0.896429
0.93052
0.936244
0.908118
0.896845
0.954528
0.940837
0.89061
0.965499
0.935874
0.93727
0.95668
0.899751
0.885808
0.924165
0.905949
0.936526
0.861729
0.899061
0.938406
0.901986
0.826785
0.996677
0.994443
0.989868
0.99283
0.997509
0.996704
0.993964
0.985531
0.99091
0.991286
1
0.998191
0.995321
0.991056
0.992172
0.984949
0.995269
0.99373
0.989956
0.989256
0.992238
0.993345
0.99401
0.994232
1
1
0.997356
0.998976
0.999378
0.991957
0.996561
0.997934
0.996581
0.994505
0.994858
0.997092
0.997972
0.997747
0.992594
0.979646
0.996386
0.996461
0.995558
0.996967
0.99632
0.996236
0.996531
0.994168
0.985825
0.998378
0.997078
0.997074
0.997421
0.995055
0.998078
0.997669
0.996849
0.991619
1
0.996569
0.997862
0.997497
0.994273
0.986086
0.99757
0.997738
0.996129
0.997039
0.994331
0.996634
0.997648
0.994681
1
1
0.999022
0.998783
0.992172
0.997671
0.998176
0.998886
0.996946
0.996013
0.996152
0.996385
0.998403
0.997846
0.994894
0.986969
0.995912
0.997462
0.996475
0.998659
0.99507
0.995509
0.994958
0.996075
0.988126
0.998264
0.998414
0.998036
0.991181
0.99804
0.999026
0.998135
0.998069
0.990173
0.720084
1
0.998918
0.99903
0.998213
0.9942
0.982924
0.510557
0.99164
0.997256
0.996778
0.997059
0.995875
0.999109
0.997493
0.997686
1
0.998936
0.999797
0.996444
0.990754
0.998074
0.997217
0.997887
0.996744
0.993882
1
1
0.998512
0.998372
0.997633
0.994516
0.989255
0.999232
0.999128
0.997815
0.996816
0.997687
0.993922
1
0.997754
0.998158
1
0.998131
0.994343
0.999662
0.996073
0.996244
0.99564
0.997712
0.997866
0.997565
0.996988
1
1
0.996211
0.998201
0.998423
0.994022
0.991936
1
0.996842
0.996305
0.997587
1
0.994595
1
0.999226
0.999879
0.995392
0.996812
0.998376
0.997435
0.993363
0.998553
1
0.997352
0.997343
0.997711
0.992716
1
1
0.997733
0.998468
0.997847
0.993133
0.978048
1
0.996662
0.996532
0.997883
0.995685
0.995423
0.996709
0.998248
1
0.99978
0.996079
0.998009
0.997801
0.997652
0.995101
0.997051
0.995604
0.996185
0.996532
0.996811
0.999662
0.998702
0.997414
0.992364
0.986339
0.995609
0.996825
0.997441
0.999025
0.991136
0.989933
0.998037
1
1
0.993056
0.999022
0.99902
0.997206
0.997399
0.997004
0.997502
0.996654
0.995134
1
0.999222
0.998439
0.996994
0.993179
0.989994
0.997294
0.996525
0.998123
0.997027
0.996024
0.998335
0.999124
0.99867
1
0.993504
0.991436
0.99902
0.997687
0.999021
0.99871
0.997846
0.996532
0.994964
0.99989
0.997093
0.997648
0.996932
0.992468
0.989001
0.997384
0.996341
0.997845
0.99713
0.992728
0.995238
0.999124
0.99314
0.99912
0.99972
0.997067
1
0.997176
0.999966
0.998817
0.998776
0.996204
0.991279
0.99923
0.995572
0.998823
0.997561
0.991113
0.984401
0.999068
0.996459
0.998124
1
0.99727
0.991483
0.997615
0.99993
0.996811
0.996136
0.993156
0.999358
0.999129
0.999223
0.995761
0.99731
0.993062
0.998256
1
0.998073
0.99855
0.998258
0.991347
0.990356
1
0.997315
0.998007
0.999032
0.989708
0.994348
0.998792
1
0.997691
0.993448
0.997202
1
0.998918
0.998987
0.998417
0.99645
0.994766
0.993255
0.996811
0.998749
0.998596
0.99684
0.988432
0.991081
0.997685
0.997246
0.998913
0.99813
0.981797
0.99547
0.998883
1
0.996702
0.98908
0.998112
0.99902
0.998047
0.998548
0.998581
0.995161
0.995235
0.994185
0.99923
0.99618
0.998573
0.996275
0.986183
0.987363
0.993927
0.997194
0.997724
0.997296
0.994469
0.994425
1
0.99797
0.99989
0.99664
0.999022
0.99902
0.999099
0.995948
0.998871
0.995022
0.99582
0.995774
1
1
0.998415
0.996484
0.982555
0.988692
0.998256
0.996786
0.999078
0.99813
0.988726
0.992528
0.996104
0.995939
0.996702
0.997704
0.996663
0.997804
0.998227
0.998042
0.998214
0.997375
0.9958
0.997984
1
0.998682
0.998146
0.997611
0.984537
0.984791
0.997956
0.996729
0.998419
0.999032
0.98586
0.996052
0.995864
0.99797
0.994723
0.994064
0.997101
0.998041
0.998498
0.998244
0.99934
0.997943
0.996305
0.99438
1
0.999662
0.998427
0.997642
0.986847
0.979929
0.997956
0.996826
0.997271
0.995961
0.99265
0.995161
0.997373
1
1
0.994624
0.989854
0.99902
0.997657
0.999021
0.998344
0.99759
0.994851
0.993682
0.998021
0.998919
0.998335
0.996535
0.988473
0.987365
0.999339
0.997561
0.997231
0.995493
0.99188
0.993264
0.994747
1
1
0.992889
0.992753
0.996217
0.998558
0.998379
0.998756
0.997256
0.99536
0.99779
0.997032
0.999223
0.999019
0.997162
0.984841
0.987062
0.997415
0.99721
0.99637
0.998064
0.9986
0.996399
0.998219
0.99524
1
0.995128
0.998045
1
0.996005
0.999223
0.999039
0.998131
0.994806
0.993022
1
0.99902
0.998061
0.997154
0.984476
0.981712
0.999188
0.997937
0.996362
0.996862
0.9909
0.993806
0.996498
0.99734
0.998791
0.995184
0.992113
0.996893
0.996065
0.997062
0.999115
0.997268
0.992965
0.991355
1
0.999392
0.999192
0.996995
0.985648
0.986186
0.998828
0.996164
0.998282
0.998064
0.98761
0.992102
0.998249
0.99993
0.996811
0.996752
0.998955
0.997129
0.998949
0.998379
0.99942
0.997663
0.993034
0.995193
1
0.998682
0.998446
0.997015
0.985129
0.991657
0.998256
0.996532
0.998747
0.994425
0.99573
0.994851
0.998219
1
0.991752
0.992329
0.999966
1
0.997597
0.999021
0.998764
0.997555
0.991798
0.995736
0.997911
0.99902
0.998681
0.997294
0.984233
0.981198
0.999068
0.99696
0.998383
0.997296
0.99594
0.994812
1
0.99531
1
0.996977
0.998921
0.99902
0.995974
0.999358
0.998966
0.997241
0.991418
0.993061
1
0.99902
0.998488
0.997092
0.983641
0.981138
0.997385
0.996253
0.998476
0.996662
0.99594
0.993728
1
0.99608
1
0.995353
0.998045
0.998041
0.999129
0.99686
0.998745
0.997667
0.992016
0.995852
0.996812
0.999358
0.998423
0.996844
0.98172
0.976725
0.998256
0.997545
0.998836
0.996295
0.98572
0.9964
0.997373
1
1
0.994681
0.998011
1
0.995675
0.999358
0.998321
0.995425
0.991967
0.995969
0.996812
1
0.998277
0.996628
0.98185
0.976452
0.997564
0.997614
0.99755
0.998698
0.99811
0.991522
0.992995
0.99958
0.996812
0.994848
0.996663
1
0.998558
0.998751
0.998749
0.994458
0.991349
0.995814
0.993623
0.997296
0.997669
0.995207
0.97731
0.97742
1
0.997686
0.998359
0.994492
0.99538
0.991367
0.997433
0.99461
1
0.995017
0.998045
0.997669
0.995074
1
0.998993
0.995759
0.990344
0.998488
1
0.998243
0.998185
0.996109
0.978794
0.985007
0.999158
0.998724
0.998452
0.994158
0.99342
0.997871
0.994414
0.99972
0.996811
0.997536
0.993966
0.997737
1
0.999021
0.994975
0.995913
0.988595
0.99527
0.996702
1
0.999165
0.995307
0.977189
0.991656
0.999128
0.997065
0.998472
0.997396
0.99461
0.995509
0.995984
0.99594
1
0.998152
0.997
0.99902
0.999129
0.999662
0.996353
0.994228
0.989419
0.997751
0.996811
1
0.998573
0.996349
0.976796
0.987607
0.998797
0.997989
0.997898
0.993991
0.99181
0.994387
0.9968
0.99461
1
0.993449
0.990157
1
0.999069
1
0.995735
0.993787
0.991697
0.996549
0.997471
0.999358
0.999219
0.996651
0.977509
0.989027
0.998918
0.997218
0.997655
0.994358
0.98404
0.991793
0.99852
0.99797
1
0.995631
0.995786
1
0.997386
1
0.995273
0.996297
0.989577
0.996239
1
1
0.999242
0.996562
0.971652
0.993561
0.999128
0.997061
0.997801
0.989885
0.98096
0.997367
0.998128
0.99384
0.996811
0.991825
0.997843
0.993784
0.996334
1
0.991538
0.99437
0.989249
0.994998
1
1
0.999085
0.996647
0.973067
0.991536
0.999278
0.997646
0.998383
0.992723
0.97788
0.994773
0.995108
0.99797
0.996922
0.996696
0.997034
0.99902
0.998077
0.999662
0.99116
0.993315
0.991313
0.997751
0.996812
0.998006
0.999777
0.995203
0.971154
0.990266
0.997866
0.996717
0.997231
0.993057
0.99055
0.996206
0.997373
0.99594
1
0.99944
0.998045
0.997061
0.998257
1
0.99385
0.993061
0.989144
0.996239
1
0.99804
0.998992
0.995017
0.96813
0.989085
0.999128
0.995143
0.997405
0.987048
0.971856
0.996941
0.998158
0.9979
0.99912
0.996752
0.996865
0.997838
0.996545
0.998041
0.998993
0.992159
0.990788
0.997751
1
0.99902
0.999
0.995845
0.964142
0.989478
0.998256
0.996055
0.997829
0.994325
0.973117
0.994735
0.997765
1
0.996811
0.997368
0.998045
0.994089
0.997417
0.989599
0.999119
0.991772
0.991204
0.997363
1
0.996722
0.998969
0.996124
0.95871
0.990175
0.998377
0.996915
0.998541
0.992155
0.97102
0.995547
0.998249
0.99349
1
0.996415
0.995752
0.998041
0.997567
0.9974
0.998665
0.989799
0.988175
0.996473
1
1
0.999108
0.996027
0.951297
0.992594
0.999128
0.997008
0.996725
0.99339
0.96927
0.997755
0.999094
0.99993
0.998901
0.998376
0.996157
0.99902
0.998168
0.993145
0.99844
0.987489
0.983915
0.998876
0.994941
0.999865
0.9988
0.995694
0.943665
0.993622
0.999699
0.996176
0.998302
0.99516
0.956739
0.998103
0.9984
0.99797
1
1
0.997067
0.998446
0.997086
0.998244
0.998459
0.987458
0.982352
0.998876
1
1
0.998781
0.995253
0.935344
0.988544
0.998918
0.996608
0.998225
0.99516
0.96129
0.995393
0.998007
0.99594
0.99989
1
0.998685
0.996724
0.994743
0.999629
0.998901
0.991695
0.977388
0.997829
1
1
0.996873
0.995458
0.923886
0.988483
0.998256
0.996669
0.99791
0.995594
0.97795
0.995006
0.997675
0.99594
1
0.999608
0.996865
0.997061
0.996576
0.999021
0.998245
0.990774
0.981439
0.998876
1
0.99902
0.998561
0.9948
0.901241
0.990569
0.99979
0.995659
0.995654
0.989552
0.96801
0.997367
0.997252
0.99797
1
0.9972
0.996764
0.997838
0.998078
0.997062
0.998562
0.991165
0.977643
1
1
1
0.997754
0.994041
0.879958
0.988088
0.999248
0.99589
0.99263
0.992623
0.951694
0.99423
0.996768
0.99727
1
1
0.994944
1
0.997777
0.999021
0.997692
0.992248
0.980445
0.99748
0.99989
0.99902
0.997708
0.989987
0.868698
0.991836
0.999519
0.994254
0.990621
0.99062
0.948124
0.984008
0.998218
0.9965
1
0.996752
0.998045
0.998379
0.998017
0.999021
0.998604
0.989243
0.933259
0.994727
1
1
0.997992
0.987176
0.808913
0.981496
0.99997
0.991456
0.993649
0.989184
0.963806
0.994889
0.994595
0.9972
0.994502
0.997312
0.999022
0.99598
0.994381
0.996759
0.997726
0.984158
0.948262
0.953434
1
0.999662
0.992853
0.976973
0.777359
0.862155
0.999369
0.99398
0.991664
0.98875
0.954769
0.991791
0.993356
1
0.997251
0.997648
0.995954
0.997297
0.991857
0.998075
0.996131
0.98448
0.977602
0.74317
1
0.99973
0.990038
0.975378
0.812909
0.644064
0.995912
0.993697
0.989926
0.983509
0.951834
0.993804
0.978527
0.995239
0.99989
0.996472
0.982943
0.998007
0.99339
0.996927
0.996456
0.990091
0.987816
0.880386
0.990432
0.998986
0.992077
0.97616
0.832409
0.774317
0.996543
0.992571
0.978469
0.962813
0.794759
0.982152
0.987527
0.982848
0.99934
0.99944
0.996124
0.999595
0.994832
0.998818
0.995708
0.992958
0.993264
0.923269
0.992412
0.99902
0.995311
0.968904
0.923302
0.901124
0.994198
0.972354
0.969817
0.970691
0.682758
0.756965
0.896164
0.97592
0.990215
0.996528
0.966023
0.994427
0.980202
0.998075
0.996723
0.995429
0.9937
0.942965
1
0.998175
0.995815
0.969737
0.951966
0.894746
0.993446
0.98527
0.979123
0.978202
0.703058
0.988114
0.969386
0.96836
0.925458
0.990313
0.959585
0.969398
0.98495
0.996151
0.992999
0.99107
0.992727
0.960963
1
0.998074
0.995896
0.960057
0.967956
0.847107
0.990801
0.988916
0.974284
0.975698
0.792939
0.994154
0.982578
0.984458
0.977459
0.927717
0.958709
0.989225
0.987233
0.989026
0.938808
0.971773
0.985171
0.959264
1
0.990368
0.987146
0.946513
0.970639
0.79194
0.994228
0.985767
0.984609
0.987348
0.858459
0.98916
0.990338
0.99657
0.916013
0.919487
0.982911
0.973451
0.95149
0.971536
0.925409
0.971601
0.972498
0.946938
0.995712
0.99439
0.952328
0.957908
0.991286
0.793814
0.986924
0.973299
0.99396
0.994359
0.904099
0.950023
0.996256
0.99489
0.979773
0.867779
0.991034
0.971121
0.95966
0.954923
0.958006
0.96645
0.970313
0.931551
0.992084
0.991247
0.963702
0.994482
0.996381
0.850794
0.996483
0.970182
0.996196
0.997396
0.93434
0.961485
0.997796
0.98649
0.975046
0.909164
0.989079
0.976592
0.945632
0.945637
0.989291
0.983478
0.990364
0.916685
0.965033
0.976377
0.972545
0.998018
0.996766
0.923124
0.982413
0.973076
0.9977
0.999165
0.938449
0.948401
0.996498
0.9993
0.988567
0.880323
0.990191
0.970141
0.941652
0.967855
0.995792
0.995145
0.99318
0.905295
0.966902
0.971611
0.983507
0.998169
0.997439
0.964721
0.981421
0.98162
0.994825
0.99763
0.925083
0.872338
0.992664
0.991877
0.971188
0.866827
0.984191
0.986996
0.944091
0.949351
0.997589
0.998124
0.996213
0.89788
0.981527
0.982155
0.996046
0.999079
0.99797
0.980385
0.956618
0.99599
0.997546
0.997897
0.858304
0.919563
0.991242
0.995168
0.944026
0.900583
0.988841
0.991049
0.856128
0.975105
0.998523
0.998365
0.996898
0.927953
0.991092
0.986104
0.998815
0.998072
0.998709
0.972566
0.961268
0.998938
0.999256
0.997197
0.853738
0.94908
0.993688
0.993629
0.862544
0.901645
0.992379
0.987195
0.756886
0.97534
0.998487
0.998143
0.998497
0.92785
0.955789
0.991209
0.999257
0.999217
0.998658
0.949309
0.970469
0.99922
0.99839
0.997664
0.878319
0.957018
0.996497
0.99559
0.735442
0.927695
0.986069
0.973354
0.843101
0.988749
0.999239
0.998779
0.999757
0.939501
0.946331
0.987758
0.999738
0.999283
0.998569
0.961038
0.975822
0.999531
0.998159
0.996751
0.816284
0.959534
0.995742
0.993979
0.746265
0.913071
1
0.979007
0.902775
0.997905
0.999643
0.998643
0.998956
0.880262
0.905855
0.996178
0.999552
0.99931
0.998282
0.983204
0.61464
0.975611
0.999607
0.998243
0.996684
0.703175
0.952561
0.997071
0.998038
0.990437
0.972777
0.981233
0.96391
0.88321
0.981583
0.999444
0.999546
0.98799
0.636784
0.816849
0.981745
0.989175
0.999621
0.99863
0.997747
0.999649
0.735174
0.97206
0.997462
0.998284
0.996876
0.621461
0.963751
0.978408
0.989851
1
0.994286
0.994297
0.953429
0.989664
0.996924
0.976634
0.9928
0.898024
0.868972
0.999211
1
0.990053
0.985793
0.998949
0.926772
0.561958
0.994006
0.999158
0.969521
0.993504
0.993802
0.635918
1
0.975687
0.926467
0.983025
1
1
1
1
1
1
0.991795
0.936262
0.902986
0.992813
1
1
1
0.972243
0.904603
0.749902
0.891523
1
1
0.982494
0.900089
0.68874
0.827645
1
0.981
0.800556
1
1
1
1
1
1
1
1
1
1
1
0.999729
1
0.999996
1
1
1
1
1
1
1
0.986361
1
1
1
1
1
1
1
1
1
1
1
1
1
1
1
1
1
1
1
1
1
1
1
1
1
1
1
1
1
1
1
1
1
1
1
1
1
1
1
1
1
1
1
1
1
1
1
1
1
1
1
1
1
1
1
1
1
1
1
1
1
1
1
1
1
1
1
1
1
1
1
1
1
1
1
1
1
1
1
1
1
1
1
1
1
1
1
1
1
1
1
1
1
1
1
1
1
1
1
1
1
1
1
1
1
1
1
1
1
1
1
1
1
1
1
1
1
1
1
1
1
1
1
1
1
1
1
1
1
1
1
1
1
1
1
1
1
1
1
1
1
1
1
1
1
1
1
1
1
1
1
1
1
1
1
1
1
1
1
1
1
1
1
1
1
1
1
1
1
1
1
1
1
1
1
1
1
1
1
1
1
1
1
1
1
1
1
1
1
1
1
1
1
1
1
0.493789
0.517455
0.472636
0.485035
0.516876
0.492577
0.500651
0.464002
0.476023
0.448517
0.521821
0.487591
0.497387
0.475232
0.494605
0.480374
0.506008
0.500895
0.481956
0.503232
0.498395
0.468475
0.460382
0.472249
0.454746
0.443745
0.476271
0.524946
0.498654
0.467527
0.488266
0.501665
0.506268
0.514128
0.5083
0.499021
0.499462
0.471658
0.472735
0.464828
0.466747
0.496235
0.476298
0.493139
0.488116
0.47704
0.45298
0.45766
0.598575
0.500645
0.494844
0.511168
0.509674
0.494787
0.511698
0.512943
0.495003
0.502548
0.479067
0.45248
0.500753
0.459304
0.483524
0.513893
0.504418
0.510863
0.487306
0.477434
0.469254
0.516085
0.492647
0.465567
0.476008
0.454737
0.46277
0.484818
0.482537
0.470607
0.469917
0.474436
0.477686
0.474999
0.466157
0.483332
0.477276
0.441214
0.437816
0.474133
0.475523
0.485886
0.488292
0.474899
0.456265
0.456226
0.476555
0.425237
0.933756
0.988813
0.957406
0.922421
0.942588
0.990666
0.984991
0.98504
0.939541
0.937936
0.988227
0.981073
0.977417
0.936592
0.988813
0.921417
0.984109
0.941721
0.926474
0.921152
0.99386
0.990669
0.989841
0.989762
0.915221
0.926191
0.919348
0.969981
0.992262
0.919037
0.967074
0.893276
0.975881
0.92886
0.9704
0.950963
0.982362
0.996818
0.991357
0.885718
0.905297
0.971824
0.980379
0.989813
0.946583
0.945418
0.994485
0.978446
0.984216
0.872524
0.940157
0.973276
0.980587
0.9809
0.95182
0.99692
0.90764
0.904379
0.909436
0.987523
0.96807
0.989362
0.98824
0.899435
0.847606
0.844663
0.94597
0.986438
0.950782
0.985909
0.987615
0.91289
0.995916
0.919926
0.947622
0.994988
0.99011
1
0.839004
0.94603
0.987022
0.946166
0.993215
0.939425
0.9955
0.997482
0.997106
0.994956
0.996661
0.99685
0.993045
0.995449
0.995509
0.994439
1
0.997901
0.996824
0.994903
0.997957
0.993652
0.992177
0.995474
0.996364
0.998899
0.998745
0.996987
0.997465
0.995192
1
0.990449
0.995814
0.994335
1
0.998304
0.99541
0.992383
0.994603
0.995913
1
0.997496
0.990965
0.998914
0.987322
0.987671
0.993243
0.99412
0.986597
0.987498
0.998992
0.996132
1
0.998285
0.998903
0.989171
0.986651
0.986128
0.986743
0.981258
0.999934
0.998025
0.995148
0.993847
0.99492
0.999302
0.996134
0.993425
0.995466
0.99389
0.99625
0.993299
0.99541
0.99826
0.994623
0.998403
0.991514
0.992446
0.995557
0.991947
1
0.995335
0.995704
0.996852
0.992313
0.993894
0.995378
0.998862
0.996852
0.998632
0.997238
0.995276
1
0.999962
0.995658
0.996817
0.998882
0.985171
0.994787
0.995592
1
0.999095
0.997763
0.995441
0.997915
0.996619
0.995973
0.998052
0.995479
0.997234
0.994587
0.998273
0.997394
0.999227
0.999444
0.997264
0.99475
0.999134
0.997311
1
0.998916
0.993831
0.994142
0.995402
0.996061
0.9879
0.998149
0.99539
0.991107
0.989159
0.990473
0.995051
0.989345
0.980538
0.996165
0.996933
0.988036
0.997557
0.993018
0.991574
0.986744
0.987631
0.990441
0.988248
0.997996
0.997983
0.997778
0.995435
0.991345
0.997399
0.998759
0.998374
0.996176
0.995817
0.994152
0.99625
0.992748
0.993744
0.993492
1
0.991548
0.995006
0.995953
0.995663
0.996832
0.998146
0.995059
1
0.995312
1
0.995632
0.997102
1
0.994621
0.998955
1
0.991538
0.993739
0.990993
0.995712
0.997486
0.991255
0.994618
0.997758
0.996812
0.997033
0.992143
0.993939
0.996653
0.993597
0.99039
0.999044
0.993965
0.997927
0.996753
0.999132
0.998035
0.996817
0.996742
0.999672
0.996978
0.99997
0.998369
0.999044
0.998241
0.998044
0.993917
0.996251
0.997472
0.996221
0.994623
0.994173
0.995218
0.983323
0.993724
0.990036
0.993518
0.99453
0.992531
0.998492
1
0.99452
0.996555
0.996699
0.986228
0.978132
1
0.989021
0.996376
0.995606
0.999803
0.995448
0.996253
0.994381
0.99809
0.994433
0.996158
0.993782
0.997175
0.996723
0.997126
0.996269
0.998691
0.999943
0.988303
0.997972
1
0.998221
1
0.996709
0.997644
0.996817
0.99489
1
0.994354
0.996474
1
0.995587
0.996027
0.994006
0.996811
0.994389
0.996185
1
0.996014
0.993792
0.995093
0.994695
0.993623
0.99403
0.994498
0.993929
0.989318
0.999721
0.998259
0.997664
1
0.996552
0.998376
0.997963
0.998838
0.999056
0.998367
0.998047
0.994733
0.988841
0.989252
0.994041
0.996985
0.996119
0.990329
0.995704
0.991094
0.995852
0.99462
1
0.998213
0.991864
0.977266
0.994718
0.99063
0.967654
0.995881
0.999613
0.997251
0.998425
0.995934
0.97985
0.991583
0.991208
0.976147
0.99026
0.991211
0.996233
0.998682
0.993532
0.995793
0.996211
0.992808
0.996737
0.99449
0.992724
0.997836
0.996716
0.994678
0.992543
0.99392
0.996493
0.985242
0.997901
0.996082
0.997373
0.993635
0.995547
0.99444
0.997476
0.993603
0.996818
0.997251
0.993715
0.996708
0.996915
0.997979
1
0.996811
0.994465
0.995911
1
0.998258
0.997365
0.996302
0.992132
0.991425
0.995574
0.989149
0.991203
0.990513
0.995681
0.99596
0.996944
0.998838
0.996288
0.993503
0.997213
0.997646
0.99987
0.997262
1
0.997342
0.992298
0.99945
0.996088
0.991448
0.990818
0.99759
0.996826
1
0.99794
0.998877
1
0.999122
0.968313
0.991901
0.861792
0.989839
0.997584
0.991096
0.998524
0.476089
0.526063
0.396603
0.9997
0.974975
0.993564
0.924447
0.996637
0.996166
0.99989
0.996879
0.996669
0.87523
0.991789
0.973673
0.98811
0.989597
0.992538
0.998786
0.38393
0.711702
0.471454
0.992286
0.910067
0.999247
0.967387
0.997279
0.997977
0.997691
0.995556
0.993612
0.998827
0.996501
0.994768
0.994732
0.996504
0.996571
0.99343
1
0.997346
0.998225
0.996571
0.992182
0.995942
0.989994
0.997191
0.992976
0.997909
0.996888
1
0.997012
0.993635
0.999426
0.99771
1
0.999019
0.995817
0.997978
1
0.99249
0.998243
1
0.998103
0.999122
0.998
0.994732
0.993624
0.997394
0.998838
0.99596
0.997983
0.994845
1
0.998861
0.998301
0.999381
0.996415
0.995684
0.998659
0.99684
0.998539
0.998618
0.998965
0.995732
0.996228
0.997001
0.996759
0.995701
1
0.993294
1
1
1
1
1
0.996129
1
0.998243
0.998877
1
0.998394
0.999471
0.989855
0.996967
0.994548
1
0.992746
0.994247
1
1
1
0.999178
1
1
1
0.998394
0.981565
1
0.99697
0.989311
0.995015
0.993227
0.999766
0.984993
0.996922
0.991195
0.999002
1
1
1
1
1
1
1
0.997279
0.992814
0.998977
0.994093
0.995035
0.996511
0.996435
0.993362
0.989554
0.996199
0.998841
0.990168
0.997691
0.996485
0.99854
1
1
0.994109
1
1
1
1
0.995522
0.996012
0.995589
1
0.99396
0.996495
1
0.997478
0.993635
0.996044
0.999263
0.994843
0.993924
1
0.997281
1
0.997368
0.998213
0.996811
0.993613
0.999122
0.996091
0.998877
1
0.998273
0.998877
0.995966
1
0.99791
0.99798
1
0.995082
0.998436
0.991878
0.998262
0.998838
0.995895
1
0.998046
0.996323
0.997654
0.995303
0.998081
0.996725
0.995893
0.998571
0.996957
1
1
0.998367
1
1
0.996632
0.99934
0.997213
0.997794
0.997471
0.99591
0.997982
0.987148
0.993238
0.997823
0.999131
0.993158
0.997141
1
1
1
1
1
1
1
0.996303
0.994268
1
0.999697
0.996398
0.994703
0.988586
0.998994
0.987705
0.995457
0.993792
1
1
1
1
1
1
1
1
0.995116
0.995326
0.998416
0.998256
0.9967
0.994767
0.996337
0.994881
0.99567
0.996604
0.998814
0.994812
0.999355
0.993394
0.993816
0.99897
1
0.99453
1
1
1
1
0.997901
0.992583
0.998248
0.996927
0.997599
0.995921
0.996817
0.996742
0.995611
0.999094
0.998914
1
0.997903
0.995957
0.996654
0.996152
0.996168
0.998486
0.997471
0.99702
0.99997
0.996485
0.997753
0.993624
0.994757
0.997715
1
0.997977
1
0.99993
0.998262
0.997407
0.998111
0.997367
0.997063
0.996573
0.998306
0.998738
0.999159
0.998463
0.999699
0.998385
0.998065
0.991179
0.993961
0.997557
0.997755
1
0.99794
0.997794
1
0.996456
0.99877
0.991094
0.9981
0.997369
1
0.991893
0.995299
1
1
1
1
1
1
1
0.996788
0.997405
1
0.998818
0.997909
0.994442
0.991409
0.999915
0.984001
0.991464
0.988134
0.99948
1
0.99925
1
1
1
0.999034
1
0.992186
0.997279
0.996996
0.997581
0.993702
0.998556
0.999439
0.99685
0.992946
0.995939
0.999084
0.996582
0.996423
0.993061
0.998228
0.99541
0.996439
0.995942
0.998741
0.993836
1
0.997716
0.996496
1
1
1
0.997373
0.997944
0.998903
0.996007
0.996445
0.993727
1
0.998878
0.997456
0.993623
0.995511
0.999091
0.999121
0.996669
1
0.999636
1
1
1
0.995333
0.997283
0.995026
0.999404
0.998111
0.996752
0.993738
0.997139
0.995963
0.995119
0.999037
0.99557
0.999308
0.99882
0.999074
0.996662
0.999092
0.99731
0.998839
0.996811
0.998425
0.997755
1
0.998637
0.993107
0.988629
0.99774
0.993736
0.996096
0.997364
0.996902
1
0.998212
1
0.993656
0.987625
0.99113
0.994764
0.993578
0.991977
1
0.997657
0.998369
0.994641
0.996512
0.996074
0.994038
0.994732
0.993548
0.997378
0.99673
0.999029
0.99642
0.999087
0.998419
0.99558
0.993913
0.994543
0.995801
0.994293
0.997832
0.99559
0.999341
0.997596
0.994842
0.996618
0.998837
0.998135
0.997969
0.99763
1
0.996811
1
0.999122
1
0.998878
0.998244
0.998243
0.997987
0.996812
0.997395
0.995626
0.99993
1
0.998677
0.99596
0.995476
0.99565
0.995476
0.995128
0.991343
0.996842
0.998112
1
0.997724
0.997367
0.998889
0.995563
0.999045
0.995617
0.995889
0.992045
0.998491
1
0.99679
0.995472
0.997911
0.996244
0.992656
0.990952
0.991437
0.98914
0.992418
0.99997
0.997754
0.996811
0.999424
0.999613
0.996732
0.989266
0.991356
0.999561
0.992221
0.995745
0.998396
0.99713
0.99775
0.995065
0.999188
0.99746
0.996738
0.997639
0.994844
0.998814
0.995087
0.999232
0.995245
0.998632
0.998362
0.996438
0.9993
0.997691
0.996224
1
0.990902
0.997342
0.993634
0.997792
1
1
1
1
1
1
0.997282
1
0.998607
0.998244
1
0.992377
0.995609
0.997153
0.995897
1
0.996063
0.987111
1
0.997839
0.99993
0.99805
0.994608
0.996633
0.99808
0.995128
0.995836
0.997348
0.998145
0.998371
0.998715
0.996493
0.9997
0.998371
0.997496
0.996492
0.998323
0.997972
0.996284
0.996811
0.995851
0.997794
0.9989
0.99679
0.990806
0.98482
0.991475
0.991983
0.996699
0.998485
0.998877
0.989114
0.99279
0.9988
0.996813
0.991218
0.992021
0.996923
0.990402
1
0.996791
0.999044
1
0.995913
0.997384
0.998087
0.996175
0.99667
0.995458
0.997416
1
0.996462
0.996219
0.99851
0.998361
0.988734
0.990485
0.995103
0.998429
0.993634
0.994076
0.997886
0.993634
1
0.998903
0.999064
1
0.995171
1
0.997979
0.993937
0.996811
0.998143
0.99561
0.99989
0.994467
0.99891
0.999182
0.99582
0.996921
0.999122
0.994349
0.999442
0.997978
0.998677
0.996099
0.995058
0.995472
0.998113
0.994232
0.99347
0.994399
0.998698
0.995111
0.997002
0.993375
0.998708
0.993481
0.999044
0.99646
1
0.997971
0.996594
1
0.997698
0.999613
1
0.997062
0.993918
0.996259
0.99562
0.994432
0.991638
0.995244
0.998877
0.996811
0.992941
0.997289
0.992746
0.990903
0.99087
0.995054
0.993302
0.997907
0.99714
0.997131
0.994151
0.994854
0.996542
0.999044
0.998369
0.996549
0.992588
0.998237
0.996722
0.998064
0.996461
1
1
0.987678
0.994543
0.997272
0.994382
0.996707
0.996632
0.997221
0.990561
0.995546
1
0.9984
0.998722
1
0.99797
0.989755
0.997909
0.996811
0.996053
0.995731
1
0.997794
0.999092
0.998819
1
0.996811
0.995548
0.997097
1
1
0.994079
0.996657
0.996076
0.993833
0.994892
0.98712
0.997873
0.995233
0.997202
0.996741
0.998089
0.995068
0.997597
0.99837
0.999868
0.997368
0.993424
0.997971
0.997368
0.996811
0.99997
0.999381
0.996921
0.995609
0.992102
0.99934
0.998139
0.995884
0.99989
0.996486
0.999961
0.99989
0.997728
0.996167
0.994395
0.993883
0.985216
0.989009
0.989701
0.995954
0.999581
0.996307
0.998369
0.997245
0.998827
0.999044
0.998369
0.998184
0.991794
0.998419
0.99497
0.997129
0.992861
0.998085
0.997061
0.988938
0.990555
0.995942
0.996768
0.994732
0.997019
0.993567
1
1
0.994842
0.997947
0.998877
1
0.99797
0.999373
0.996724
1
0.997872
0.996881
0.99934
0.998878
0.997154
0.998001
0.998877
0.996811
0.998213
0.998916
1
1
0.992547
0.995055
0.990804
0.996842
0.999187
0.996752
0.995597
0.997408
0.99782
0.996628
0.998946
0.997186
0.998378
0.993537
0.995914
0.996279
0.998181
0.996012
0.99671
1
0.998425
1
0.996811
0.998213
0.994765
0.99824
0.999535
0.995189
0.991089
0.999121
1
0.998461
0.997213
0.998877
0.98912
0.982965
0.987091
0.993076
0.986875
0.998396
1
0.997428
0.997806
0.995066
0.998196
0.998153
0.997806
0.995096
0.993533
0.999939
0.998983
0.998698
0.996278
0.995591
0.996835
0.985017
0.996012
0.995103
0.996195
0.997915
0.994657
0.995893
1
0.998877
0.993415
0.998249
1
1
1
0.992194
0.996097
0.994282
0.998723
0.997184
1
0.998878
0.998547
0.999122
0.998955
0.994063
0.997244
0.999961
0.998048
0.997909
0.999582
0.999164
0.99362
0.996187
0.998113
0.995016
0.99386
0.994399
0.999056
0.993481
1
0.997337
0.997326
0.99837
0.997199
0.998185
0.998111
0.994333
0.998839
0.996811
1
0.998916
0.993623
0.999697
0.99301
0.993619
0.995309
0.996369
1
0.99897
1
1
0.99997
0.998916
0.986152
0.988385
0.990779
0.996813
0.990476
1
0.991909
0.995944
0.994038
0.99546
0.996482
0.996472
0.996682
0.997972
0.992679
0.997172
0.998813
0.997863
0.995638
0.994892
0.995196
0.996779
0.993144
0.990695
0.993265
0.989464
0.990476
0.991574
0.988256
0.998489
0.996817
0.996075
0.997018
0.997256
0.995939
0.991916
0.992333
0.996921
0.998878
0.994762
0.996812
0.998104
0.99679
0.999091
1
0.996812
0.995941
0.996633
1
1
1
0.99798
0.992243
0.997617
0.996031
0.992048
0.989754
0.996842
0.997559
0.994548
0.99799
0.998427
0.998198
0.995674
0.998616
0.996491
1
1
0.997755
1
0.998546
0.998878
1
0.999122
0.995642
0.988668
0.997791
0.995915
1
1
0.999768
1
1
0.997754
0.985052
0.981568
0.988875
1
0.985019
0.999302
0.998675
0.998747
0.996513
0.992615
0.999429
1
0.998313
0.996488
0.993898
0.998145
0.998022
0.996127
0.991642
0.998267
0.993219
0.99594
0.993353
0.997901
0.997372
1
0.991173
0.987527
0.996818
0.997753
0.999561
0.993086
0.997715
0.993636
0.99594
0.993658
0.993518
0.993624
0.997485
0.9967
1
0.998839
0.999152
0.998274
0.997755
1
0.996668
1
1
0.997978
0.995125
0.99596
0.994908
0.995562
0.995608
0.991768
0.994788
0.996663
0.997787
0.992974
0.998089
0.997942
0.997206
0.997191
0.998781
0.996007
0.995942
0.995873
0.997601
0.996812
0.996609
0.995665
0.993622
0.997244
0.997185
0.996809
0.995271
0.997519
0.99681
1
1
1
0.999121
0.998877
0.989449
0.98761
0.98682
0.991758
0.989934
1
0.998047
0.997626
0.991845
0.996882
0.999098
0.998846
0.998369
0.997548
0.996858
0.997355
0.998361
0.995158
0.996735
0.996746
0.998361
0.992577
0.990696
0.997271
0.98925
1
0.990048
0.994714
0.994731
0.998877
0.993087
0.997221
0.997753
0.996927
1
0.995958
0.997421
0.99934
0.995125
0.994732
1
0.99435
0.997729
0.998819
1
0.994831
0.998485
0.998142
0.997979
1
0.995891
0.994079
0.991884
0.996157
0.999057
0.99244
0.99254
0.994637
0.999805
0.999326
0.998979
0.999697
0.996545
0.997302
0.997429
0.99767
0.997972
0.995872
0.997756
0.990436
0.998244
0.996516
1
0.994639
0.998396
0.9989
1
0.996489
0.99978
1
0.99849
1
1
0.998141
0.994835
0.988464
0.990626
0.997142
0.989157
1
0.999303
0.997461
0.993475
0.997669
0.993144
0.995581
0.997413
0.995338
0.995608
0.996474
0.999435
0.995792
0.994356
0.995256
0.9987
0.990337
0.990486
0.991045
0.989824
0.993196
0.995315
0.997342
0.993084
0.997986
0.996818
0.997735
0.998218
1
0.997969
0.994913
0.986618
1
0.994815
0.998123
0.996811
0.996943
0.99573
1
1
0.996811
0.999121
0.998916
0.998048
1
0.995403
0.996099
0.994968
0.994906
0.996487
0.99244
0.992541
0.994994
0.996778
0.997415
0.998715
0.997005
0.998558
0.998145
0.999011
0.998184
0.995314
0.998111
0.998839
0.996812
0.989978
0.992065
0.996811
0.995578
0.99407
0.99681
0.996666
0.996489
0.996699
0.996305
0.997677
1
1
0.99667
0.995605
0.986374
0.98854
0.989777
0.975836
0.997908
1
0.99822
0.999438
0.997942
0.997835
0.996867
0.994656
0.999364
0.989447
0.998237
0.998022
0.997729
0.996125
0.996898
0.996552
0.997969
0.990277
0.995312
0.995017
0.996597
0.993108
0.993295
0.993744
0.997754
1
0.997493
0.997404
0.999561
1
0.994774
0.997979
1
0.994197
0.99555
1
0.998142
0.998819
0.998243
1
1
0.998243
1
1
1
0.997911
0.99589
0.989698
0.998272
0.999935
0.98863
0.993619
0.996216
0.999935
0.99837
0.996508
0.998094
0.997867
0.998145
0.998023
0.997488
0.995943
0.991954
0.997098
0.99978
0.998214
0.99911
0.996811
0.995305
0.993555
1
0.983563
0.999334
1
0.996517
0.996477