/*--------------------------------*- C++ -*----------------------------------*\
| =========                 |                                                 |
| \\      /  F ield         | OpenFOAM: The Open Source CFD Toolbox           |
|  \\    /   O peration     | Version:  5.x                                   |
|   \\  /    A nd           | Web:      www.OpenFOAM.org                      |
|    \\/     M anipulation  |                                                 |
\*---------------------------------------------------------------------------*/
FoamFile
{
    version     2.0;
    format      ascii;
    class       surfaceScalarField;
    location    "0.1";
    object      phi;
}
// * * * * * * * * * * * * * * * * * * * * * * * * * * * * * * * * * * * * * //

dimensions      [0 3 -1 0 0 0 0];

internalField   nonuniform List<scalar> 
29271
(
-7.38974e-06
-3.75308e-07
4.08483e-06
3.6836e-06
-9.70116e-06
3.85468e-06
3.42788e-06
2.50639e-06
-5.02361e-05
-4.36486e-06
-5.87079e-06
3.72066e-06
5.10476e-06
5.16463e-05
-5.09359e-05
-6.40968e-06
6.47212e-09
-3.67462e-06
5.6045e-06
5.54092e-05
-4.18489e-05
-3.95794e-06
-2.53268e-06
6.15464e-06
3.65434e-05
5.64145e-06
-5.0876e-05
-5.88304e-06
-4.22335e-06
4.92037e-06
3.66441e-06
5.23977e-05
-4.6635e-05
-3.8852e-06
-3.7357e-06
1.73054e-06
1.72396e-06
5.08014e-05
-4.54759e-05
-3.44356e-06
-8.40499e-08
-1.62881e-06
1.5164e-06
4.9116e-05
-4.95138e-05
-4.84392e-06
3.95319e-06
-6.48575e-06
2.48261e-06
5.44077e-05
-3.00498e-05
-2.2518e-06
9.08885e-07
2.54392e-05
5.9571e-06
-7.26407e-06
1.39374e-07
4.32049e-06
2.81196e-06
-5.10435e-05
-6.66917e-06
2.82717e-08
5.9139e-06
-3.71249e-06
5.5483e-05
-4.54559e-05
-1.48385e-07
-3.40727e-06
1.36905e-06
-1.4996e-06
4.91422e-05
-4.50376e-05
-1.14521e-07
-3.6075e-09
-1.38258e-06
-1.21038e-06
4.77487e-05
-4.77927e-05
-2.12243e-09
3.45281e-06
-6.33537e-06
-2.16918e-06
5.28466e-05
-4.87895e-05
-2.04487e-07
-2.5567e-06
-4.16154e-07
4.51106e-05
6.85623e-06
-4.07519e-05
-4.56697e-06
6.48192e-06
-3.0401e-06
3.62624e-05
5.61462e-06
-4.92753e-05
-5.04244e-06
3.56795e-06
2.26698e-06
-5.4718e-06
5.39546e-05
-4.7476e-05
2.98661e-06
8.46296e-08
-2.38922e-06
-5.28424e-06
5.20783e-05
-5.22688e-05
-7.64948e-06
-5.89938e-06
5.52458e-05
4.83372e-06
5.73815e-06
-9.18574e-06
1.99314e-06
4.08544e-06
3.13172e-06
-3.11216e-05
-1.95213e-06
1.67267e-06
2.6277e-05
5.12675e-06
-5.06986e-05
-4.43353e-07
-3.97052e-08
-3.92569e-06
4.88331e-05
6.27421e-06
-9.89992e-06
4.55171e-06
1.01873e-06
4.3473e-06
-8.05346e-07
-4.15282e-07
9.76408e-07
2.49769e-07
1.30708e-06
2.62907e-07
1.37784e-07
-1.70387e-06
-2.54098e-06
-3.34122e-06
-5.29663e-05
1.80479e-06
3.31653e-06
5.37272e-05
-4.04339e-06
-5.76776e-05
7.58592e-08
-2.40912e-06
5.01848e-06
5.90358e-05
-3.2655e-05
-1.73791e-06
-3.00243e-07
3.97178e-06
2.81826e-05
2.53884e-06
-3.20541e-06
-2.14833e-06
-5.33506e-05
3.17409e-06
1.88272e-06
5.36475e-05
1.38517e-06
2.14776e-06
0.000233433
-5.44158e-05
-5.2511e-05
-5.26323e-05
-5.06641e-05
-3.91445e-06
-4.55987e-06
-2.62837e-06
-2.41106e-06
-3.79797e-06
-4.72443e-06
-2.28503e-06
-2.42151e-06
-1.31369e-05
7.14765e-07
0.000238941
-5.26895e-05
-5.49532e-05
-5.06644e-05
-5.26268e-05
-4.87397e-06
-5.24041e-06
-1.80583e-06
-2.27988e-06
-4.5024e-06
5.25822e-07
0.000238127
-5.49887e-06
-2.54538e-06
-2.57881e-06
-7.94367e-07
-4.56281e-06
-2.84477e-06
-3.01403e-06
-5.89235e-05
-5.22196e-05
-5.68528e-05
-5.74525e-05
-2.09389e-05
7.32805e-07
-6.1902e-07
1.63254e-05
-1.10477e-07
-2.2729e-07
5.8573e-07
-2.45006e-07
-4.09309e-06
-5.77284e-05
3.58594e-08
5.1498e-06
-2.21787e-06
5.88537e-05
-3.90466e-07
-1.16633e-05
0.000239816
-5.28864e-05
-5.07835e-05
-5.49358e-05
-5.26595e-05
-4.85834e-06
-5.24982e-06
-1.93471e-06
-2.30654e-06
-1.51535e-05
-1.15026e-05
0.000239035
-5.0946e-05
-5.2992e-05
-5.27531e-05
-5.53636e-05
-5.32584e-06
-5.81669e-06
0.000242739
-5.01963e-06
-3.42536e-06
-3.35369e-06
-2.5312e-06
-2.49922e-06
-5.64299e-07
-5.75485e-05
-5.81548e-05
-5.98158e-05
-5.33119e-05
-4.19557e-05
8.50009e-10
-1.36564e-06
7.43563e-07
3.72511e-05
-3.16604e-05
-1.39768e-06
4.26593e-06
1.76452e-08
2.62485e-05
2.52599e-06
3.73268e-07
-3.5763e-06
0.000236709
-5.74118e-06
-2.88886e-06
-2.69018e-06
-7.26894e-07
-4.23009e-06
-2.15967e-06
-2.35029e-06
-5.8143e-05
-5.59303e-05
-5.27647e-05
-5.75445e-05
-6.99131e-06
-4.47819e-06
0.000242786
-3.01092e-06
-3.53336e-06
-7.59884e-07
-3.56847e-06
-2.30281e-06
-2.15351e-06
-5.62232e-05
-5.88113e-05
-5.81472e-05
-5.39356e-05
-5.64337e-05
-5.42078e-06
-4.61821e-06
5.36647e-05
1.17347e-07
-1.22025e-06
9.57201e-07
1.48562e-07
-2.22953e-05
3.82364e-07
5.31161e-07
1.7809e-05
-4.67148e-05
-3.25857e-07
2.15412e-07
-6.08481e-07
4.29555e-05
-1.52001e-06
1.17223e-06
-1.01022e-06
1.36321e-06
-5.15236e-07
-4.4005e-07
4.36683e-07
5.19599e-07
1.36232e-06
-2.7262e-07
-5.767e-07
-5.11123e-07
-2.00982e-06
-1.00807e-06
-5.47064e-05
4.95597e-07
1.35538e-06
5.58734e-05
-2.32603e-06
-6.07122e-05
-3.04915e-07
-1.11267e-06
2.78836e-06
6.16675e-05
-2.55363e-05
-1.49854e-06
7.42246e-07
2.62521e-06
2.37245e-05
-5.71172e-08
-5.11008e-07
-2.11935e-06
-5.42096e-05
1.49681e-06
7.97244e-07
5.45459e-05
7.59629e-07
2.34002e-06
0.000240333
-1.19076e-06
-2.84317e-06
-1.53501e-08
-1.18008e-06
-1.07536e-06
-2.70824e-06
-8.91347e-08
-8.97204e-07
-8.13081e-06
3.61929e-06
0.000251882
-3.11838e-06
-3.40159e-06
-1.69323e-07
-9.80164e-07
-2.11036e-06
1.75992e-06
0.000240662
-3.13484e-06
-5.41971e-07
-9.19622e-07
-1.31341e-07
-2.78229e-06
-9.53471e-07
-1.85123e-06
-1.3304e-05
9.2875e-07
-1.06487e-06
1.13336e-05
-4.20257e-08
-2.89513e-07
-5.54174e-08
3.86848e-07
-2.46807e-06
-6.02819e-05
-5.12232e-07
3.11806e-06
-8.62851e-07
6.1007e-05
2.3201e-06
-6.59452e-06
0.000254583
-3.35113e-06
-3.38369e-06
-4.64932e-07
-9.52909e-07
-8.77475e-06
-6.31026e-06
0.000260059
-3.05342e-06
-3.62081e-06
0.000249658
-2.79854e-06
-2.03025e-06
-1.5975e-06
-8.38407e-08
-1.16489e-06
4.1555e-07
-3.28392e-05
-5.40353e-08
-4.71812e-07
1.36253e-06
2.89491e-05
-2.29602e-05
-1.00145e-06
2.84216e-06
4.54575e-07
2.04714e-05
1.93489e-07
1.08386e-06
-1.60539e-06
0.0002387
-3.19041e-06
-1.59658e-07
-9.53341e-07
5.30538e-07
-2.292e-06
-6.67399e-07
-1.33128e-06
-4.03889e-06
-2.65181e-06
0.000249403
2.69208e-07
-1.30799e-06
1.38744e-06
-2.33808e-06
-1.5839e-06
-1.57855e-06
-5.49858e-05
-2.54823e-06
-3.01717e-06
5.28915e-05
-3.84374e-07
-1.48828e-06
1.19164e-06
6.85042e-07
-1.4866e-05
8.42804e-07
-4.67999e-07
1.28875e-05
-4.0368e-05
-2.28848e-07
1.11904e-06
-1.77244e-07
3.70033e-05
-1.15292e-06
1.83039e-06
-1.48752e-06
8.16309e-07
-7.12104e-07
-7.3202e-07
2.89895e-07
1.15776e-06
-6.21735e-07
-3.3892e-07
-6.90491e-07
1.64478e-06
-5.54042e-07
1.00675e-06
-5.74428e-05
-1.665e-06
-1.46058e-06
6.01157e-05
-6.16423e-07
-6.27323e-05
-9.2042e-07
-2.12614e-08
1.15747e-06
6.31329e-05
-2.2914e-05
-1.089e-07
1.6785e-06
8.31747e-07
2.29246e-05
-2.41193e-06
1.77908e-06
-8.54017e-08
-5.39872e-05
1.43071e-08
-6.72438e-07
5.29517e-05
2.29179e-06
3.12205e-06
0.000233344
1.50644e-06
-2.60237e-06
2.26452e-06
-7.49786e-07
9.15113e-07
-1.70593e-06
1.79188e-06
1.55283e-07
1.08295e-06
2.74815e-06
0.000251505
-1.04067e-06
-2.27589e-06
2.00835e-06
1.45593e-07
5.53082e-07
2.07381e-06
0.000235604
-1.39692e-06
1.14778e-07
9.38248e-07
1.05816e-06
-4.21337e-07
1.64229e-06
1.57846e-06
-1.05624e-05
9.72792e-07
-7.12969e-07
1.08577e-05
-8.55785e-07
-4.48313e-07
3.01606e-08
1.27704e-06
-6.4909e-07
-6.14693e-05
-1.22472e-06
2.14417e-06
1.92916e-07
6.1006e-05
2.39459e-06
-1.42961e-06
0.000258906
-1.56117e-06
-1.9778e-06
1.18564e-06
1.88092e-07
-1.43151e-06
-2.1527e-06
0.000268786
-8.95709e-07
-2.39072e-06
0.000250151
-2.74878e-07
6.20306e-07
6.91962e-07
7.377e-07
3.88937e-07
1.27198e-06
-2.66442e-05
-5.45402e-07
-5.13561e-08
6.85991e-07
2.56593e-05
-1.92295e-05
1.83049e-07
6.37559e-07
1.05005e-06
1.90109e-05
-1.65203e-06
1.85607e-06
-1.48848e-07
0.000232554
-1.36205e-06
1.16616e-06
1.1608e-06
2.12152e-06
-9.50678e-07
7.2136e-07
1.5193e-07
-2.067e-06
-9.07154e-07
0.000246386
2.14156e-06
1.08297e-06
2.96476e-06
-6.24104e-07
7.38304e-09
1.21911e-07
-5.43641e-05
-8.94251e-07
-1.66724e-06
5.24679e-05
-5.90311e-07
-5.52455e-07
7.17019e-07
4.29609e-07
-1.20334e-05
1.38705e-06
-1.97206e-06
1.24705e-05
-3.44906e-05
-4.41525e-07
1.33556e-06
-6.51839e-08
3.27546e-05
-7.9704e-07
1.50862e-06
-1.68467e-06
9.78704e-07
-1.69955e-06
-6.71293e-07
1.71029e-07
2.20251e-06
-2.54696e-06
-3.09235e-07
-7.37503e-07
3.59612e-06
1.40728e-06
2.36918e-06
-6.26527e-05
-1.25477e-06
-3.55395e-06
6.3685e-05
6.72685e-07
-6.35123e-05
-3.66614e-07
6.05295e-07
-8.12921e-07
6.34138e-05
-2.41067e-05
4.72651e-07
8.5999e-07
-1.23679e-06
2.57415e-05
-1.73068e-06
1.73673e-06
1.23418e-06
-5.18404e-05
-2.26964e-06
-1.09287e-06
5.2232e-05
-9.08036e-08
8.79019e-07
0.000216027
3.27374e-06
-9.20029e-07
3.86314e-06
1.81626e-06
2.85744e-06
-3.17494e-07
3.60185e-06
2.35329e-06
5.10884e-06
1.15367e-06
0.000239935
4.75844e-07
-7.64634e-07
3.39933e-06
2.10657e-06
2.68478e-06
1.28241e-06
0.000217041
2.95714e-07
1.10064e-06
2.81522e-06
2.52199e-06
3.35228e-06
5.09904e-06
4.51947e-06
-1.19824e-05
9.86651e-08
1.99986e-07
1.43689e-05
-1.66221e-06
-3.69661e-07
1.53694e-07
1.88268e-06
5.34065e-07
-6.05476e-05
-5.54806e-07
3.63378e-07
9.64897e-07
5.92401e-05
1.56274e-06
1.73836e-06
0.000253222
-3.74217e-07
-7.08554e-07
2.45508e-06
1.88926e-06
3.11569e-06
3.42366e-07
0.000268045
2.31434e-06
-1.09012e-06
0.000238373
1.84628e-06
4.23141e-06
3.75083e-06
1.40044e-06
1.73727e-06
1.986e-06
-2.61894e-05
-4.06872e-07
6.30968e-07
-2.7952e-07
2.85591e-05
-2.05977e-05
3.63973e-07
-1.27884e-06
2.52009e-07
2.24498e-05
-1.18926e-06
7.24587e-07
1.07347e-06
0.000219924
4.03438e-07
2.28289e-06
2.69301e-06
2.91957e-06
8.63342e-07
1.90076e-06
1.50726e-06
-5.89893e-09
4.52126e-07
0.000235898
2.58093e-06
2.60729e-06
3.00092e-06
5.8694e-07
1.26575e-06
1.06672e-06
-5.36408e-05
2.21297e-06
3.82665e-07
4.99491e-05
-8.90002e-07
1.95925e-07
-1.48508e-06
2.18057e-06
-1.34638e-05
1.20044e-06
-1.5612e-06
1.48934e-05
-3.209e-05
-5.16701e-07
9.98141e-07
9.48222e-08
3.19659e-05
-1.73341e-06
-2.60356e-08
-1.27391e-06
3.03147e-06
-2.33485e-06
-2.08424e-07
-1.29371e-07
2.67748e-06
-4.63048e-06
-2.48002e-07
-5.65219e-07
5.45047e-06
1.70724e-06
1.46315e-06
-6.47795e-05
-7.6244e-07
-3.58575e-06
6.59573e-05
1.30819e-06
-6.39895e-05
-1.27151e-07
4.11176e-07
-1.98961e-06
6.43869e-05
-2.80695e-05
6.67136e-07
4.47764e-07
-1.93598e-06
2.98511e-05
-9.60451e-07
8.37667e-07
1.60033e-06
-5.30886e-05
-2.71071e-06
-6.07068e-07
5.39684e-05
-1.38344e-06
-1.37744e-06
0.000197997
3.53264e-06
6.22261e-07
3.67681e-06
2.51867e-06
3.34075e-06
1.02054e-06
3.44277e-06
2.63702e-06
7.85718e-06
-7.92298e-07
0.000222379
1.76335e-06
6.83492e-07
3.75501e-06
2.90523e-06
4.23788e-06
1.36221e-07
0.000203518
1.42313e-06
2.21974e-06
2.52622e-06
9.77574e-07
4.35516e-06
2.34043e-06
3.16385e-06
-1.83968e-05
-9.38975e-07
6.09633e-06
-3.60517e-06
2.10825e-05
-1.9508e-07
-1.23447e-06
-4.62549e-07
1.89142e-06
-2.29147e-06
-1.84826e-07
-5.19864e-07
2.99686e-06
1.2737e-06
-5.79992e-05
-1.34809e-07
-6.95672e-07
7.95531e-07
5.67605e-05
-9.22587e-07
3.00023e-06
0.000243677
7.09042e-07
2.18116e-07
2.73408e-06
2.42836e-06
5.18025e-06
2.36812e-06
0.000258781
3.47864e-06
4.02559e-08
0.000229174
3.11426e-06
2.39403e-06
1.58374e-06
1.76327e-06
1.63661e-06
5.04601e-07
-3.10724e-05
-7.47262e-08
6.7015e-06
3.01408e-06
2.49102e-05
-1.29201e-07
-1.59459e-06
-3.35957e-06
3.76386e-07
4.70838e-06
-2.43968e-05
8.49917e-07
-1.65505e-06
-1.17201e-07
2.58809e-05
-5.61841e-07
-3.1704e-07
1.51029e-06
0.000208334
1.2007e-06
2.33006e-06
2.90417e-06
2.38268e-06
1.43916e-06
1.53159e-06
1.60859e-06
1.25379e-06
1.14395e-06
0.000225381
2.21818e-06
2.63087e-06
2.27016e-06
7.99957e-07
1.40975e-06
8.4117e-07
-5.05243e-05
2.49113e-06
7.2769e-07
4.85995e-05
-4.19063e-06
1.44693e-06
-2.34434e-06
5.09271e-06
-1.65875e-05
8.61956e-07
-5.33423e-07
1.77657e-05
-3.28802e-05
-2.58042e-07
4.14114e-07
2.12949e-07
3.36551e-05
-3.92023e-06
-4.0041e-07
-3.63813e-07
4.6869e-06
-3.67022e-06
-1.4155e-08
-3.2543e-07
4.01102e-06
-5.96064e-06
-5.00217e-08
2.09843e-07
5.80216e-06
1.71169e-06
8.59718e-07
-6.6853e-05
-4.77763e-07
-2.99425e-06
6.77536e-05
1.71375e-06
-6.47322e-05
5.3324e-08
3.39659e-07
-2.16485e-06
6.47903e-05
-3.15897e-05
7.18125e-07
-1.16355e-07
-1.83571e-06
3.31107e-05
-2.87021e-07
3.10158e-07
1.87166e-06
-5.5061e-05
-2.85256e-06
-1.36261e-07
5.5868e-05
-2.43222e-06
-1.47863e-06
0.000186857
2.61046e-06
4.22962e-07
2.27904e-06
1.85909e-06
2.59433e-06
7.81412e-07
2.31613e-06
2.18691e-06
4.37487e-06
-1.38423e-06
0.00020897
1.53679e-06
1.09112e-06
3.20116e-06
2.15735e-06
1.43705e-06
-8.8591e-07
0.000196062
1.3199e-06
1.27473e-06
2.48747e-06
1.15558e-06
2.22363e-06
1.1218e-06
1.69726e-06
-2.4099e-05
2.41727e-06
3.86368e-06
-4.56365e-07
1.97114e-05
-4.32967e-06
2.87021e-06
-5.83683e-07
-1.72678e-06
-1.03938e-06
4.8093e-06
-3.47182e-06
1.56842e-07
-2.12847e-07
3.53037e-06
7.98055e-07
-5.67803e-05
-2.89978e-07
-1.1872e-06
5.83064e-07
5.68763e-05
-2.04177e-06
1.25188e-06
0.000237606
6.11245e-07
3.45906e-07
2.34765e-06
2.07752e-06
2.57247e-06
2.4012e-06
0.000250382
1.60141e-06
-1.95272e-08
0.000222665
1.0952e-06
1.71106e-06
5.89756e-07
7.70278e-07
1.66425e-06
7.83203e-07
-2.57633e-05
-8.9221e-08
1.5252e-06
1.1565e-07
2.58131e-05
-6.55215e-06
-1.67167e-07
4.72073e-08
-5.99274e-07
1.20852e-06
6.06287e-06
-2.78147e-05
5.4176e-07
-1.7644e-06
-5.72617e-07
2.94889e-05
1.2109e-07
-1.02055e-06
5.4585e-07
0.000202305
1.02328e-06
1.3488e-06
2.37178e-06
1.19762e-06
7.84965e-07
3.63718e-07
6.65357e-07
6.06587e-07
1.04464e-06
0.000219306
1.17429e-06
1.72776e-06
9.19628e-07
6.73189e-07
8.7532e-07
4.34089e-07
-4.95618e-05
1.75824e-06
8.68019e-07
4.75226e-05
-4.98501e-06
-1.33663e-06
-2.33677e-06
1.56086e-06
7.09884e-06
-2.35769e-06
-1.04845e-07
-6.06493e-07
3.06859e-06
-1.86356e-05
3.77473e-07
2.14245e-07
1.85899e-05
-3.42268e-05
-2.70788e-07
3.89784e-07
8.53165e-07
3.42992e-05
-5.49728e-06
-7.74376e-07
2.56177e-07
6.01908e-06
-4.16717e-06
2.89424e-07
-1.33037e-06
5.21028e-06
-5.38916e-06
-3.81015e-07
3.65168e-07
5.4083e-06
1.38479e-06
4.14586e-07
-6.82188e-05
-5.21333e-08
-1.70711e-06
6.81787e-05
1.49938e-06
-6.49707e-05
4.54563e-07
-1.51172e-07
-1.92146e-06
6.50894e-05
-3.4383e-05
7.96332e-07
-3.94659e-07
-1.20245e-06
3.47913e-05
3.92464e-07
-4.42189e-07
1.23783e-06
-5.6609e-05
-2.13464e-06
3.95579e-07
5.75525e-05
-3.7519e-06
-7.46781e-07
0.000181525
1.36264e-06
3.33678e-07
9.939e-07
1.41785e-06
1.66777e-06
7.03085e-07
1.65032e-06
1.70119e-06
-2.4076e-06
-7.21467e-07
0.000202134
1.16232e-06
7.19969e-07
2.63973e-06
1.69078e-06
5.58706e-08
-7.38436e-07
0.000189543
9.24214e-07
6.89425e-07
2.09522e-06
6.15088e-07
9.4989e-07
-9.78464e-07
4.98325e-07
-1.99078e-05
7.56392e-07
7.80057e-07
-5.60125e-07
1.89873e-05
-5.36671e-06
8.39278e-07
-3.87585e-07
-1.6979e-10
-9.086e-07
5.82378e-06
-3.65256e-06
2.94507e-10
-7.54488e-07
4.40743e-06
9.53442e-07
-5.7087e-05
-1.89593e-07
-1.3331e-06
2.95412e-07
5.73608e-05
-2.91012e-06
-2.1181e-07
0.000235241
3.7559e-07
2.87026e-07
2.07458e-06
2.00309e-06
-1.00471e-06
1.44353e-06
0.000246311
9.71708e-07
-6.61694e-08
0.000216964
3.67337e-07
5.18956e-07
-6.93002e-07
5.39597e-07
1.60335e-06
7.15764e-07
-2.60742e-05
-3.32677e-07
1.23743e-06
4.16425e-07
2.57248e-05
-5.39913e-06
4.26743e-07
-7.27389e-07
7.47727e-07
-2.402e-07
5.19225e-06
-3.0972e-05
8.7557e-07
-1.53628e-06
-4.44061e-07
3.13623e-05
7.14477e-07
-1.57192e-06
-1.14924e-07
0.000199243
8.32837e-07
4.47381e-07
2.02587e-06
4.71978e-07
1.24587e-07
-1.9404e-08
6.53995e-07
-3.05164e-07
5.9466e-07
0.000215757
2.62459e-07
9.09043e-07
8.50339e-08
3.47589e-07
9.08121e-07
6.18631e-07
-4.82214e-05
7.70946e-07
9.70602e-07
4.61085e-05
-8.48094e-06
-5.42403e-07
-5.98745e-07
4.53502e-08
9.57549e-06
-4.58775e-06
1.78441e-07
-5.38179e-07
7.34799e-07
4.21269e-06
-1.84157e-05
-1.19089e-07
2.12682e-07
1.82093e-05
-3.48054e-05
1.46294e-07
-5.80896e-08
4.76851e-07
3.4835e-05
-7.04891e-06
-1.07619e-06
2.48654e-07
7.87665e-06
-6.34728e-06
8.48677e-07
-8.82356e-07
6.38153e-06
-5.68208e-06
-2.34645e-07
3.64072e-07
5.55723e-06
4.12145e-07
6.49319e-07
-6.84166e-05
-2.14052e-07
-6.45766e-07
6.8215e-05
1.10476e-06
-6.52095e-05
3.88219e-07
-1.8313e-07
-1.24396e-06
6.51436e-05
-3.49444e-05
5.33341e-07
-6.47402e-07
-1.0037e-06
3.535e-05
7.12223e-07
-1.08994e-07
6.47341e-07
-5.87983e-05
-1.51718e-06
1.47614e-07
5.96295e-05
-4.13284e-06
-8.95427e-07
0.000180495
2.89197e-07
-6.72378e-08
4.4174e-07
1.26193e-06
1.05224e-06
3.78542e-07
1.15161e-06
1.55099e-06
-5.63128e-06
-8.99575e-07
0.000199788
6.05066e-07
1.95779e-07
2.15448e-06
1.78863e-06
-2.04896e-06
-9.61903e-07
0.000190195
9.54129e-07
1.16135e-06
2.07228e-06
3.27813e-07
-5.06887e-07
-4.42786e-06
-2.85312e-06
-2.4089e-05
3.19668e-06
-2.07886e-06
-7.49275e-07
2.16715e-05
-5.88169e-06
6.33084e-07
1.78023e-06
8.10092e-07
2.6604e-06
-4.86301e-06
1.92641e-07
2.96039e-08
4.6431e-06
6.7472e-07
-5.79551e-05
-1.26508e-07
-1.0644e-06
1.60078e-07
5.83112e-05
-4.14472e-06
-4.4026e-07
0.000234396
2.2814e-07
2.2555e-07
2.02635e-06
2.05493e-06
-5.86546e-06
1.71143e-06
0.000245421
-5.66886e-07
-1.98249e-08
0.000216251
-1.54135e-06
-2.33244e-06
-4.50363e-06
1.1175e-06
1.63105e-06
1.0108e-07
-2.62372e-05
-3.45698e-07
-1.76195e-06
1.4611e-06
2.63169e-05
-4.63041e-06
2.7461e-07
2.11735e-07
2.52194e-06
-6.20385e-07
2.24251e-06
-3.13675e-05
1.68211e-07
-1.05767e-06
1.07677e-07
3.17187e-05
4.3059e-07
-1.7952e-06
-1.27019e-07
0.000197022
4.58321e-07
5.29551e-08
1.96846e-06
1.71202e-07
5.07569e-07
5.03641e-08
4.94451e-07
-1.2931e-06
8.6443e-07
0.000214987
-5.19305e-07
-1.52507e-07
-5.71218e-07
5.49514e-07
1.02622e-06
7.8247e-07
-4.80133e-05
-1.12438e-06
4.90107e-07
4.73347e-05
-8.76065e-06
-2.79223e-06
2.00564e-06
9.54901e-06
-1.76127e-05
-5.65182e-07
1.26639e-06
1.67823e-05
-3.52371e-05
-2.46377e-07
-7.89951e-07
1.33436e-06
3.58035e-05
-7.67052e-06
-1.01871e-06
1.72775e-06
6.96294e-06
-6.23396e-06
3.85549e-07
-5.57546e-07
6.40835e-06
-5.41386e-06
-5.13924e-07
1.48388e-07
5.77947e-06
-4.25955e-07
5.13687e-07
-6.79523e-05
-1.3954e-08
8.16404e-07
6.70621e-05
4.91709e-07
-6.5449e-05
4.14148e-07
-1.84432e-07
-5.1969e-07
6.52473e-05
-3.61276e-05
1.57193e-07
-7.22606e-07
-1.00156e-06
3.6703e-05
9.91577e-07
-1.11956e-07
1.74684e-07
-6.0461e-05
-8.53316e-07
2.74667e-07
6.0977e-05
-3.45824e-06
-3.10487e-07
0.000183533
-5.85206e-07
-4.26865e-07
-7.99886e-07
8.1566e-07
3.54293e-07
-1.81774e-08
3.36438e-07
1.0542e-06
-7.77585e-06
-8.09714e-07
0.000202071
-3.97164e-08
-1.31695e-07
1.76413e-06
1.25238e-06
-5.18267e-06
-1.06492e-06
0.000195026
6.80519e-07
1.34104e-07
2.32528e-06
4.90733e-07
-3.96374e-06
-3.21357e-06
-2.81317e-06
-2.06354e-05
-6.32624e-07
-2.5819e-06
1.86683e-05
-4.51571e-06
2.57374e-07
-6.6248e-07
4.92137e-06
2.78179e-07
-5.90827e-05
-4.11877e-08
-7.76033e-07
9.74277e-08
5.95243e-05
-3.72389e-06
-8.08879e-07
0.00023573
-1.48599e-07
-8.8585e-08
1.51409e-06
1.61119e-06
-6.54241e-06
1.63331e-06
0.000245797
-3.36444e-06
1.27607e-07
0.000217967
-4.98843e-06
-2.08269e-06
-2.69866e-06
1.92716e-07
2.41376e-06
1.07735e-06
-3.09338e-05
4.48632e-08
-2.41583e-06
2.80974e-06
2.71306e-05
-3.24696e-05
-3.54573e-07
-5.67652e-07
4.51711e-07
3.26263e-05
3.13873e-07
-1.62357e-06
-1.57819e-07
0.000196539
1.54183e-07
-2.89225e-07
1.505e-06
-3.40866e-07
1.65591e-07
-2.18775e-08
2.8271e-07
-1.4955e-06
7.97479e-07
0.000213711
-6.26958e-07
4.39352e-07
-2.05915e-07
4.95726e-07
1.11408e-06
7.67646e-07
-4.88352e-05
-8.82187e-07
1.00231e-06
4.73472e-05
-9.6708e-06
5.05764e-07
1.01731e-06
8.15046e-06
-1.67394e-05
-3.41891e-07
4.81533e-08
1.68703e-05
-3.65953e-05
-5.99203e-08
-3.70603e-07
9.96341e-07
3.6827e-05
-6.72351e-06
-9.42682e-07
2.93525e-07
7.37244e-06
-7.03679e-06
2.60285e-07
-1.57077e-06
8.3479e-06
-6.34424e-06
-7.64913e-07
2.61222e-07
6.84028e-06
-9.4182e-07
4.25553e-07
-6.59626e-05
1.688e-07
1.811e-06
6.44991e-05
5.48535e-07
-6.49085e-05
1.89092e-07
8.5926e-09
-5.91152e-08
6.42214e-05
-3.66261e-05
3.20943e-07
1.56225e-07
-3.53528e-07
3.55832e-05
9.19204e-07
-8.76868e-08
-4.58816e-07
-6.15296e-05
-1.63445e-07
2.56392e-07
6.19832e-05
-1.85884e-06
1.17106e-06
0.00018778
-1.69422e-06
-1.08602e-06
-1.65223e-06
3.57024e-07
-2.56756e-07
-3.28172e-07
-3.95717e-08
1.14058e-06
-5.62212e-06
4.60488e-07
0.000204402
-6.80811e-07
-4.57374e-07
1.05402e-06
1.05587e-06
-2.52294e-06
-2.77681e-07
0.000195097
3.65669e-07
3.58087e-08
1.7013e-06
2.29038e-07
-2.34845e-06
-1.5856e-06
-1.29013e-06
-1.74027e-05
-9.46483e-07
-4.92334e-07
1.63218e-05
-6.07525e-06
1.89494e-07
-1.83189e-06
7.71764e-06
4.13372e-07
-6.02272e-05
-1.28567e-07
-7.09318e-07
1.41881e-09
6.06503e-05
-2.33598e-06
-1.38108e-06
0.000239751
-8.58099e-07
-5.01416e-07
9.6026e-07
1.26604e-06
-5.15515e-06
1.44647e-06
0.00024763
-1.38309e-06
1.97014e-07
0.000214049
-2.00677e-06
-4.40505e-07
-9.91641e-07
5.69987e-07
2.01713e-06
5.22552e-07
-2.38025e-05
6.49279e-09
-4.3815e-07
8.88811e-07
2.19623e-05
-3.18727e-05
6.77639e-07
-3.80026e-07
9.56337e-07
3.01044e-05
5.14332e-07
-1.84187e-07
-2.52657e-07
0.000196526
-4.14026e-07
-8.32617e-07
9.93919e-07
-4.89985e-07
-1.41966e-07
-1.82376e-07
1.35018e-07
-1.17065e-06
7.52093e-07
0.000213495
-4.82112e-07
6.03259e-07
-3.65055e-07
6.69345e-07
9.34008e-07
5.3726e-07
-4.96068e-05
-6.90537e-07
4.63295e-07
4.88604e-05
-7.78683e-06
-2.58767e-07
5.64979e-07
7.48272e-06
-1.72961e-05
-8.72279e-07
2.60273e-07
1.76564e-05
-3.70481e-05
9.06282e-09
-3.64907e-07
7.73216e-07
3.73829e-05
-8.15295e-06
-7.60378e-07
4.01581e-07
8.5132e-06
-9.78989e-06
4.14126e-07
-1.47097e-06
1.08467e-05
-7.25803e-06
-2.70956e-07
-1.50143e-07
7.67327e-06
-7.59986e-07
2.20761e-07
-6.29091e-05
3.21775e-07
1.61572e-06
6.15108e-05
-8.52526e-08
-6.35257e-05
-5.5069e-08
4.11946e-07
4.85488e-07
6.27686e-05
-3.49781e-05
-3.09416e-07
1.29906e-06
-1.97469e-07
3.4423e-05
-2.37025e-07
4.62152e-08
-6.77898e-07
-6.2643e-05
8.16448e-08
2.24496e-07
6.29686e-05
-1.20811e-06
3.85226e-07
0.000192531
-1.81556e-06
-7.6256e-07
-1.6078e-06
5.69195e-07
-2.3139e-07
-4.90474e-07
-1.95292e-07
6.05849e-07
-3.35667e-06
-3.94052e-07
0.00020535
-8.82074e-07
-2.89598e-07
9.96549e-07
1.76973e-06
-9.36721e-07
-3.69059e-07
0.000193139
-3.15911e-09
7.0672e-08
1.48931e-06
3.43156e-07
-1.00061e-06
-3.447e-07
-6.47804e-07
-1.53615e-05
-8.11072e-07
4.75861e-07
1.47645e-05
-9.11149e-06
1.67374e-07
-1.30549e-06
1.02496e-05
6.60228e-08
-6.11043e-05
-5.49727e-08
-1.12302e-07
-2.12363e-08
6.12268e-05
-2.08613e-06
-1.05229e-06
0.000241375
-7.00158e-07
-2.95304e-07
1.20628e-06
1.68886e-06
-3.2781e-06
1.2248e-06
0.000247203
-4.7827e-07
-6.11392e-08
0.000209312
-5.39007e-07
-1.84083e-07
-4.26496e-09
1.49716e-07
1.74754e-06
4.59046e-07
-2.13823e-05
1.46812e-07
1.68308e-07
-3.47534e-07
2.09364e-05
-2.85865e-05
2.14407e-08
2.4262e-08
9.62286e-07
2.75389e-05
3.95744e-08
-7.06303e-09
-1.86681e-07
0.000195607
-5.9475e-07
-5.44948e-07
8.94221e-07
-3.59235e-07
6.60543e-08
1.85314e-07
4.13956e-07
-9.48706e-07
9.55069e-07
0.000210243
-2.8526e-07
1.106e-06
5.38875e-07
6.75639e-07
1.45029e-06
9.77599e-07
-5.14871e-05
-1.39954e-07
2.51068e-07
5.03661e-05
-7.13662e-06
7.54125e-07
-3.79953e-07
6.76837e-06
-1.79235e-05
-5.06427e-07
3.21206e-07
1.7921e-05
-3.80615e-05
-2.68931e-08
-3.78925e-07
6.29351e-07
3.87931e-05
-8.94383e-06
-6.46886e-07
1.0785e-07
9.48359e-06
-1.17523e-05
6.54468e-07
-1.22001e-06
1.23179e-05
-8.11361e-06
-1.92534e-07
-3.14832e-07
8.6085e-06
-5.47912e-07
-1.57203e-08
-6.06649e-05
1.00133e-07
1.40284e-06
5.97255e-05
-2.21763e-07
-6.21528e-05
2.96711e-07
5.14251e-07
7.19733e-07
6.08439e-05
-3.43591e-05
-4.59776e-07
1.43322e-06
-1.01462e-07
3.41592e-05
-6.72061e-07
1.34465e-07
-5.59519e-07
-6.32046e-05
1.36818e-07
1.30842e-08
6.34797e-05
-4.96919e-07
2.01097e-07
0.000200764
-1.99641e-06
-1.2583e-06
-1.74532e-06
4.09251e-09
-6.8723e-07
-1.38241e-06
-5.68417e-07
-3.0318e-07
-2.56033e-06
-1.04075e-06
0.000208047
-1.26905e-06
-3.0186e-07
6.39367e-07
1.33812e-06
-2.63802e-07
-3.46387e-07
0.000192291
-2.737e-07
-3.65595e-07
1.19794e-06
-1.96402e-07
-8.10005e-07
-1.14489e-07
-5.39075e-07
-1.47863e-05
-9.47664e-07
5.19648e-07
1.4951e-05
-1.12638e-05
3.87613e-07
-9.90824e-07
1.1867e-05
-2.63341e-11
-6.17519e-05
4.26419e-08
1.05078e-07
-3.59656e-08
6.16402e-05
-1.40865e-06
-6.47727e-07
0.000242837
-9.87274e-07
-4.66777e-07
8.39635e-07
1.40964e-06
-1.56716e-06
1.12895e-06
0.000245192
-6.41869e-08
-1.84761e-07
0.000204378
1.75491e-07
1.26333e-07
3.75683e-07
2.70993e-07
1.87119e-06
4.49701e-07
-2.0914e-05
2.8468e-07
3.2698e-07
-5.29648e-07
2.07678e-05
-2.72219e-05
-3.94625e-07
-1.11848e-08
4.66266e-07
2.71438e-05
1.75634e-08
3.18077e-07
1.55537e-07
0.000194438
-9.34272e-07
-5.29981e-07
7.49005e-07
-2.77708e-07
2.1455e-07
3.91492e-07
4.34427e-07
-5.90387e-07
1.14754e-06
0.000204768
5.87617e-07
1.42829e-06
7.98063e-07
9.25656e-07
1.54945e-06
1.07599e-06
-5.22094e-05
2.95796e-07
2.04812e-07
5.09337e-05
-6.70481e-06
5.83326e-07
-9.11743e-07
7.0294e-06
-1.80954e-05
-4.88695e-07
2.6618e-07
1.84697e-05
-3.98641e-05
-2.46939e-08
-4.85703e-07
5.50959e-07
4.09711e-05
-1.01687e-05
-9.89032e-08
-1.85508e-07
1.04504e-05
-1.28008e-05
4.07156e-07
-8.65181e-07
1.32588e-05
-9.23853e-06
1.75963e-07
-2.32352e-07
9.29096e-06
7.07887e-07
6.85938e-07
-5.83867e-05
-4.15511e-07
6.18252e-07
5.67901e-05
6.32318e-07
-5.95716e-05
3.36791e-07
7.32474e-07
3.6123e-07
5.75088e-05
-3.41481e-05
-7.49776e-08
1.69715e-06
-3.32343e-07
3.39988e-05
-1.14048e-06
8.36268e-07
5.4553e-07
-6.3281e-05
2.63374e-08
-6.39706e-07
6.25126e-05
1.70359e-06
1.95903e-06
0.000209096
-2.30903e-06
-2.10529e-06
-1.53633e-06
-4.05054e-07
-1.29112e-06
-2.36869e-06
-1.00525e-06
-9.74083e-07
-2.58288e-06
-1.10098e-07
0.000213427
-1.70743e-06
-6.85224e-07
3.64273e-07
1.04551e-06
-2.25212e-07
-8.08985e-07
0.000192991
-6.39428e-07
-5.46424e-07
9.81791e-07
-2.25913e-07
-9.37643e-07
-1.08618e-07
-7.73217e-07
-1.53114e-05
-1.00094e-06
4.13586e-07
1.56759e-05
-1.24009e-05
2.40879e-07
-6.35496e-07
1.27955e-05
1.48838e-06
-6.08942e-05
4.27927e-07
-2.18357e-08
4.16414e-07
5.85833e-05
-3.02783e-07
3.09702e-07
0.000245237
-1.39649e-06
-6.50732e-07
4.10718e-07
1.18921e-06
-2.7437e-06
5.89592e-07
0.000246933
-2.69753e-07
-3.42429e-07
0.000199638
1.22561e-07
-1.28932e-07
2.45323e-07
-1.18925e-07
1.61666e-06
6.27497e-08
-2.06845e-05
3.8077e-07
2.5995e-07
-6.22525e-07
2.03966e-05
-2.7887e-05
-2.43229e-07
-8.45128e-07
7.54885e-07
2.92729e-05
-1.05243e-06
1.5575e-06
4.24216e-07
0.000192691
-1.0432e-06
-5.12441e-07
6.7641e-07
-3.6019e-07
3.53431e-07
4.68797e-07
4.92077e-07
-6.30781e-07
1.01017e-06
0.000201822
2.98638e-07
1.16367e-06
3.79673e-07
7.84471e-07
1.21052e-06
8.76883e-07
-5.3542e-05
1.55841e-07
-3.41819e-07
5.27548e-05
-7.83177e-06
6.68852e-07
-1.30608e-06
8.46618e-06
-1.88882e-05
-4.61401e-07
5.89826e-07
1.91831e-05
-4.24709e-05
1.45102e-07
-3.68106e-07
5.69207e-07
4.31349e-05
-1.01669e-05
3.33749e-07
4.91861e-08
9.78346e-06
-1.35106e-05
1.3774e-07
-6.68424e-07
1.40412e-05
-9.52322e-06
-3.33443e-07
-6.23118e-07
1.04642e-05
1.38948e-06
3.02214e-07
-5.60928e-05
-4.23834e-07
-1.01573e-06
5.58407e-05
1.43321e-06
-5.53505e-05
2.53354e-07
9.77776e-07
-3.34074e-07
5.30202e-05
-3.45942e-05
1.08118e-07
1.48256e-06
-7.89085e-07
3.52784e-05
-1.48588e-06
8.46258e-07
9.13968e-07
-6.22313e-05
-5.26354e-07
-9.32589e-07
6.193e-05
4.13268e-06
2.70506e-06
0.000210867
-1.4459e-06
-1.80047e-06
-6.04882e-07
-3.21045e-08
-1.2327e-06
-2.3701e-06
-6.50989e-07
-4.71541e-07
-4.84295e-07
1.97483e-06
0.000218126
-1.94115e-06
-9.15641e-07
9.49006e-08
7.04417e-07
-5.5774e-08
1.13582e-07
0.000194662
-7.35873e-07
-6.27234e-07
6.91638e-07
-4.47857e-07
-7.44539e-07
1.51062e-07
-5.00285e-07
-1.60224e-05
-1.06086e-06
4.99614e-07
1.65295e-05
-1.31874e-05
3.4138e-07
-1.02761e-06
1.38736e-05
1.50253e-06
-5.61998e-05
4.69001e-07
-3.51554e-07
6.90579e-07
5.38893e-05
1.37461e-06
1.19273e-06
0.000246322
-1.63383e-06
-7.11465e-07
3.15608e-07
1.08248e-06
-3.25152e-06
2.56495e-07
0.000253277
-4.94047e-07
-4.86896e-07
0.000196018
4.74833e-08
-3.98442e-07
1.70613e-07
-8.96516e-08
1.53808e-06
1.95723e-07
-2.03623e-05
2.43597e-07
2.49153e-07
-6.68024e-07
2.00435e-05
-3.10615e-05
1.82787e-07
-8.21749e-07
9.08246e-07
3.18295e-05
-1.03731e-06
1.90459e-06
3.68243e-07
0.000192103
-1.00334e-06
-5.6723e-07
4.03965e-07
-2.5165e-07
1.78452e-07
3.57953e-07
3.90301e-07
-9.22405e-07
6.97174e-07
0.000199868
3.94236e-07
9.4929e-07
7.98288e-07
6.54921e-07
8.56236e-07
6.87546e-07
-5.53883e-05
-1.93859e-07
-2.17475e-07
5.43903e-05
-8.52817e-06
8.04607e-07
-7.57347e-07
8.4831e-06
-1.9519e-05
-6.68514e-07
5.22221e-07
2.00335e-05
-4.38251e-05
-8.29666e-09
1.1376e-07
4.58953e-07
4.39578e-05
-1.00402e-05
-3.10871e-07
-5.21612e-07
1.08711e-05
-1.44933e-05
4.78545e-07
-5.6534e-07
1.45801e-05
-1.10163e-05
-8.71528e-09
-3.81162e-07
1.14007e-05
1.3274e-06
1.68646e-07
-5.52622e-05
-2.21966e-07
-7.07602e-07
5.46957e-05
1.39107e-06
-5.1244e-05
1.09563e-07
8.66995e-07
-8.21795e-07
4.96982e-05
-3.60402e-05
6.24827e-07
1.24016e-06
-9.468e-07
3.60946e-05
-9.72596e-07
1.92436e-07
1.0347e-06
-6.1492e-05
-5.45098e-07
-2.63742e-07
6.10737e-05
3.29184e-06
1.63492e-06
0.000206145
-2.24655e-07
-5.16772e-07
-9.72553e-09
1.14684e-06
-2.6012e-07
-9.1312e-07
-1.07305e-08
5.83552e-07
9.01867e-08
9.34205e-07
0.000220601
-1.51302e-06
-7.53796e-07
7.8445e-07
1.27569e-06
1.27422e-07
2.29309e-07
0.000194782
-5.81417e-07
-4.35189e-07
9.36718e-07
4.47237e-08
-5.68455e-07
3.5812e-07
-1.4112e-07
-1.73039e-05
-1.29765e-06
8.86066e-07
1.78449e-05
-1.42743e-05
5.3243e-07
-5.80296e-07
1.43222e-05
9.74716e-07
-5.22834e-05
3.77785e-07
-8.76741e-07
1.61787e-07
5.16459e-05
1.0175e-06
9.06529e-07
0.000244611
-1.04363e-06
-3.51589e-07
1.11767e-06
1.6993e-06
-3.43063e-06
-1.57336e-06
0.000260233
-6.79162e-07
-4.51737e-07
0.000193199
-2.8174e-08
-4.83461e-07
9.07075e-08
-1.05376e-07
1.36678e-06
-9.24262e-08
-1.9891e-05
6.0539e-08
-1.51814e-07
-4.17149e-07
1.97202e-05
-3.2712e-05
3.57943e-07
-6.4757e-07
1.37659e-07
3.3381e-05
-5.17073e-07
1.64419e-06
8.3775e-08
0.000189278
-4.35161e-07
-2.01129e-09
1.11636e-06
4.11752e-07
1.03257e-07
4.28299e-07
3.81385e-07
-7.23862e-07
3.83461e-07
0.000195272
9.61829e-07
1.32635e-06
1.17791e-06