/*--------------------------------*- C++ -*----------------------------------*\
| =========                 |                                                 |
| \\      /  F ield         | OpenFOAM: The Open Source CFD Toolbox           |
|  \\    /   O peration     | Version:  5.x                                   |
|   \\  /    A nd           | Web:      www.OpenFOAM.org                      |
|    \\/     M anipulation  |                                                 |
\*---------------------------------------------------------------------------*/
FoamFile
{
    version     2.0;
    format      ascii;
    class       volScalarField;
    location    "0.1";
    object      voidfraction;
}
// * * * * * * * * * * * * * * * * * * * * * * * * * * * * * * * * * * * * * //

dimensions      [0 0 0 0 0 0 0];

internalField   nonuniform List<scalar> 
10571
(
0.947402
0.79634
1
1
0.967186
1
1
1
1
0.974345
0.920882
1
1
1
1
0.988978
0.966395
1
1
1
0.84954
0.980892
0.990079
0.903902
0.883478
0.840318
1
1
0.980773
1
1
1
0.999753
0.965586
0.882515
1
1
1
0.9996
0.980935
0.97945
1
0.999977
0.99994
0.872955
0.967165
0.982145
0.90492
0.889395
0.830565
1
1
0.978949
1
1
1
0.999806
0.939789
0.89355
1
1
1
0.99961
0.967852
0.975739
1
0.999921
0.999739
0.893205
0.959173
0.980411
0.891067
0.910994
0.890792
0.999966
0.996973
0.96941
0.98291
0.988857
0.994863
0.995956
0.939547
0.912851
0.994349
0.999081
1
0.999789
0.971234
0.954668
0.992768
0.999802
0.998802
0.873814
0.958063
0.973013
0.883533
0.945034
0.923056
0.999933
0.996722
0.975524
0.988387
0.975085
0.981601
0.978095
0.925168
0.921054
0.996588
0.981945
0.988393
0.98488
0.954808
0.964138
0.980458
0.97979
0.980222
0.867859
0.939177
0.971861
0.922485
0.930955
0.939958
0.999966
0.996953
0.97469
0.984357
0.978786
0.981716
0.984232
0.962155
0.994357
0.951286
0.986574
0.984343
0.98879
0.989461
0.96685
0.987556
0.960246
0.982981
0.988179
0.997802
0.926522
0.956247
0.981245
0.930367
0.973727
0.948132
1
0.998273
0.988043
0.991923
0.977307
0.984825
0.989984
0.983451
0.999506
0.957553
0.997835
0.98829
0.994348
0.99403
0.985454
0.997617
0.973594
0.985365
0.993974
0.995136
0.952763
0.995319
0.972237
0.9865
0.947128
0.97076
0.941914
1
1
0.9869
1
0.997965
0.993554
0.992504
0.986962
0.99834
0.975697
1
0.996213
0.988515
0.988286
0.988371
0.993964
0.983729
0.998434
0.986318
0.979734
0.976712
1
0.973709
0.976356
0.973608
0.98417
0.955078
0.99568
0.994176
0.986436
0.995303
0.982332
0.988309
0.992056
0.980796
0.97174
0.964151
0.992253
0.995166
0.999886
0.998881
0.996812
0.934062
0.977925
0.9897
0.999292
0.999354
0.965111
0.970611
0.991604
0.961225
0.975264
0.937663
1
1
0.992443
0.99902
1
0.991023
0.989611
0.973931
0.960633
1
0.992052
0.988216
0.985614
0.968689
0.990858
0.995053
0.986383
0.981009
0.954952
0.96008
0.982152
0.940451
0.996152
0.921595
0.995852
0.99449
0.98095
0.996318
0.996736
0.99985
0.996537
0.973177
1
0.99645
1
0.999798
0.995037
0.975105
0.976515
0.999374
0.999251
1
0.964146
0.986875
0.992663
0.975286
1
0.926583
0.995077
0.995033
0.981768
1
0.990522
0.989226
0.988055
0.947746
1
0.996788
0.994793
0.997722
0.991832
0.973984
0.97772
0.990775
0.99584
1
0.946232
0.98583
0.985023
0.971998
0.99956
0.912249
0.991302
0.989054
0.976778
0.996825
0.994627
0.992201
0.991569
0.953063
1
0.99858
0.994964
0.988252
0.989042
0.969135
0.966025
0.993725
0.983461
0.993691
0.9307
0.963762
0.988737
0.969055
1
0.9706
0.99346
0.989764
0.975155
0.99105
0.998504
0.995395
0.994653
0.960924
1
0.993983
0.997992
0.995466
0.992522
0.965746
0.964612
0.995344
0.992638
1
0.962193
0.971893
0.990609
0.95099
1
0.922889
0.998415
0.992939
0.984228
0.99642
0.993339
0.995134
0.996785
0.963482
1
0.994321
0.997269
0.999439
0.992814
0.963085
0.974775
0.992078
0.993014
1
0.93748
0.98374
0.997373
0.976616
1
0.939409
0.999022
0.981149
0.978369
0.999662
0.994395
0.99394
0.993825
0.968793
1
0.999696
0.993496
0.999338
0.990856
0.94682
0.980638
0.996176
0.992355
1
0.967794
0.975958
0.992149
0.984597
0.99934
0.973122
0.996393
0.991049
0.981673
0.994766
0.989027
0.996822
0.994217
0.964988
1
0.99537
0.997546
0.999775
0.99144
0.950837
0.975468
0.98949
0.988139
1
0.946782
0.963608
0.988192
0.979833
0.995933
0.966682
0.99609
0.996082
0.97846
0.997839
0.988406
0.991772
0.989076
0.962391
1
0.996418
0.993188
0.999772
0.991833
0.945666
0.983557
0.985258
0.989012
1
0.95702
0.966865
0.9936
0.98502
1
0.979729
0.998315
0.992805
0.980626
0.999561
0.990206
0.992735
0.993502
0.950039
1
0.988915
0.99043
0.999377
0.994593
0.919957
0.986712
0.987075
0.989068
0.998498
0.94645
0.953085
0.992754
0.98054
1
0.951004
0.992281
0.980038
0.990238
0.987979
0.981222
0.9844
0.997488
0.959768
1
0.979621
0.985976
0.988798
0.994763
0.90717
0.973306
0.986458
0.982151
0.997363
0.95429
0.955055
0.989101
0.97809
0.996152
0.975085
0.997
0.982807
0.965484
0.99426
0.993197
0.992555
0.994338
0.962242
0.997032
0.993714
0.993915
0.997901
0.998322
0.860891
0.962932
0.991513
0.991809
0.995761
0.94358
0.9765
0.996649
0.98635
0.994283
0.996304
0.997169
0.99642
0.969299
0.9896
0.990996
0.983072
0.996523
0.965576
1
0.999324
0.986672
0.976555
0.997171
0.832931
0.982745
0.987737
0.993289
0.995427
0.93987
0.968331
0.997404
0.98187
1
0.988185
0.999663
0.996149
0.986692
0.996218
0.979035
0.982327
0.994629
0.943131
1
0.993072
0.979822
0.982197
0.995797
0.80497
0.984338
0.971102
0.982499
0.98835
0.91663
0.954936
0.990037
0.95821
0.996701
0.992721
0.998011
0.998852
0.986091
0.996083
0.990821
0.981636
0.993664
0.931351
1
1
0.974518
0.976176
0.995327
0.758842
0.990591
0.976
0.969627
0.978202
0.87666
0.955671
0.980527
0.93945
1
0.983539
0.994573
1
0.985312
0.996117
0.9805
0.991545
0.99477
0.917158
0.996922
0.99973
0.995111
0.980423
0.989818
0.663504
0.990922
0.975019
0.964994
0.978636
0.76242
0.957413
0.971077
0.881
0.99934
0.983931
0.998281
0.999358
0.990567
0.995982
0.965804
0.974916
0.96961
0.904985
0.995711
0.998141
0.976391
0.928237
0.758922
0.499275
0.995581
0.963951
0.831613
0.889607
0.6514
0.961514
0.907857
0.780689
1
0.977548
0.996831
0.995102
0.978704
0.997029
0.970924
0.932893
0.841092
0.920453
1
0.995302
0.949344
0.617268
0.448645
0.450155
0.990861
0.906143
0.48227
0.45024
0.55242
0.960862
0.67261
0.620109
0.990433
0.982475
0.996865
0.99902
0.981287
0.996995
0.97073
0.850815
0.733619
0.810877
0.994283
0.997803
0.911911
0.457035
0.427353
0.436734
0.989296
0.832092
0.430624
0.409147
0.51497
0.938641
0.441207
0.527219
0.986587
0.981353
0.995618
0.99902
0.977352
0.999223
0.985476
0.790067
0.5877
0.508333
0.991754
1
0.864786
0.436796
0.498369
0.435917
0.983165
0.734626
0.466422
0.418361
0.58854
0.776592
0.414618
0.579509
0.945804
0.947258
0.997371
1
0.813438
0.999223
0.950715
0.658781
0.587643
0.452918
0.971747
1
0.724444
0.698115
0.953247
0.957772
0.959535
0.588162
0.906233
1
1
0.487374
0.920199
1
0.672771
0.618065
0.633406
0.492693
0.427895
0.518193
0.693005
0.807694
0.973943
1
0.696689
0.45136
0.767084
0.975696
0.999076
0.994045
0.428601
0.920946
1
1
0.99993
0.925479
1
1
0.932377
0.827233
0.707972
0.969258
1
0.776641
0.954443
0.999133
1
1
0.951068
0.943725
0.999119
1
0.999145
0.99734
1
1
1
1
1
1
1
1
1
1
1
1
1
1
1
1
0.999883
1
1
1
1
1
0.999781
0.995708
1
1
1
1
1
1
1
1
1
1
1
1
1
1
1
1
1
1
1
1
1
1
0.999453
0.991566
1
1
1
1
0.99797
1
1
1
1
1
1
1
1
1
1
1
1
1
1
1
1
1
1
0.987274
1
1
1
1
0.99797
1
1
1
1
1
1
1
1
1
1
1
1
1
1
1
1
1
1
0.999123
1
1
1
1
1
1
1
1
1
1
1
1
1
1
1
1
1
1
1
1
1
1
1
1
1
1
1
1
1
1
1
1
1
1
1
1
1
1
1
1
1
1
1
1
1
1
1
1
1
1
1
1
1
1
1
1
1
1
1
1
1
1
1
1
1
1
1
1
1
1
1
1
1
1
1
1
1
1
1
1
1
1
1
1
1
1
1
1
1
1
1
1
1
1
1
1
1
1
1
1
1
1
1
1
1
1
1
1
1
1
1
1
1
1
1
1
1
1
1
1
1
1
1
1
1
1
1
1
1
1
1
1
1
1
1
1
1
1
1
1
1
1
1
1
1
1
1
1
1
1
1
1
1
1
1
1
1
1
1
1
1
1
1
1
1
1
1
1
1
1
1
1
1
1
1
1
1
1
1
1
1
1
1
1
1
1
1
1
1
1
1
1
1
1
1
1
1
1
1
1
1
1
1
1
1
1
1
1
1
1
1
1
1
1
1
1
1
1
1
1
1
1
1
1
1
1
1
1
1
1
1
1
1
1
1
1
1
1
1
1
1
1
1
1
1
1
1
1
1
1
1
1
1
1
1
1
1
1
1
1
1
1
1
1
1
1
1
1
1
1
1
1
1
1
1
1
1
1
1
1
1
1
1
1
1
1
1
1
1
1
1
1
1
1
1
1
1
1
1
1
1
1
1
1
1
1
1
1
1
1
1
1
1
1
1
1
1
1
1
1
1
1
1
1
1
1
1
1
1
1
1
1
1
1
1
1
1
1
1
1
1
1
1
1
1
1
1
1
1
1
1
1
1
1
1
1
1
1
1
1
1
1
1
1
1
1
1
1
1
1
1
1
1
1
1
1
1
1
1
1
1
1
1
1
1
1
1
1
1
1
1
1
1
1
1
1
1
1
1
1
1
1
1
1
1
1
1
1
1
1
1
1
1
1
1
1
1
1
1
1
1
1
1
1
1
1
1
1
1
1
1
1
1
1
1
1
1
1
1
1
1
1
1
1
1
1
1
1
1
1
1
1
1
1
1
1
1
1
1
1
1
1
1
1
1
1
1
1
1
1
1
1
1
1
1
1
1
1
1
1
1
1
1
1
1
1
1
1
1
1
1
1
1
1
1
1
1
1
1
1
1
1
1
1
1
1
1
1
1
1
1
1
1
1
1
1
1
1
1
1
1
1
1
1
1
1
1
1
1
1
1
1
1
1
1
1
1
1
1
1
1
1
1
1
1
1
1
1
1
1
1
1
1
1
1
1
1
1
1
1
1
1
1
1
1
1
1
1
1
1
1
1
1
1
1
1
1
1
1
1
1
1
1
1
1
1
1
1
1
1
1
1
1
1
1
1
1
1
1
1
1
1
1
1
1
1
1
1
1
1
1
1
1
1
1
1
1
1
1
1
1
1
1
1
1
1
1
1
1
1
1
1
1
1
1
1
1
1
1
1
1
1
1
1
1
1
1
1
1
1
1
1
1
1
1
1
1
1
1
1
1
1
1
1
1
1
1
1
1
1
1
1
1
1
1
1
1
1
1
1
1
1
1
1
1
1
1
1
1
1
1
1
1
1
1
1
1
1
1
1
1
1
1
1
1
1
1
1
1
1
1
1
1
1
1
1
1
1
1
1
1
1
1
1
1
1
1
1
1
1
1
1
1
1
1
1
1
1
1
1
1
1
1
1
1
1
1
1
1
1
1
1
1
1
1
1
1
1
1
1
1
1
1
1
1
1
1
1
1
1
1
1
1
1
1
1
1
1
1
1
1
1
1
1
1
1
1
1
1
1
1
1
1
1
1
1
1
1
1
1
1
1
1
1
1
1
1
1
1
1
1
1
1
1
1
1
1
1
1
1
1
1
1
1
1
1
1
1
1
1
1
1
1
1
1
1
1
1
1
1
1
1
1
1
1
1
1
1
1
1
1
1
1
1
1
1
1
1
1
1
1
1
1
1
1
1
1
1
1
1
1
1
1
1
1
1
1
1
1
1
1
1
1
1
1
1
1
1
1
1
1
1
1
1
1
1
1
1
1
1
1
1
1
1
1
1
1
1
1
1
1
1
1
1
1
1
1
1
1
1
1
1
1
1
1
1
1
1
1
1
1
1
1
1
1
1
1
1
1
1
1
1
1
1
1
1
1
1
1
1
1
1
1
0.628447
0.856823
0.864284
0.929955
0.808447
0.921252
0.887837
0.703024
0.656125
0.552773
0.78161
0.777937
0.991103
0.982892
1
1
1
0.999756
0.991343
1
1
0.829053
0.557218
0.989036
0.768136
0.605625
0.877969
0.820411
0.916337
0.989302
1
1
1
1
1
1
1
1
1
1
1
1
0.971568
1
0.996222
0.793395
0.907741
0.817781
0.831638
0.929005
0.884103
1
1
0.99318
1
1
1
1
1
1
1
1
1
1
0.999959
1
0.97161
0.902763
0.79349
0.807748
0.709375
0.799345
0.995954
0.557881
0.774973
1
1
0.982842
0.999228
1
1
1
0.991789
0.989923
0.752471
0.788394
0.548504
0.601417
0.595133
0.842649
0.92731
0.806878
0.940482
0.87767
0.810681
0.69853
0.86518
0.864937
0.93941
0.986079
0.992527
0.927874
0.983763
0.99185
0.989203
0.986145
0.891495
0.989415
0.972157
0.897484
0.922572
0.865775
0.861126
0.970742
0.961059
1
0.865778
0.972714
0.974577
1
0.845037
0.9984
0.966659
0.982088
0.88612
1
0.964884
0.840891
0.839897
0.994496
0.933666
0.989228
0.987903
0.88969
0.989416
0.990002
0.969533
0.964955
0.987566
0.951295
0.987177
0.984654
0.866674
0.988484
0.973027
0.942173
0.983521
0.979397
0.934123
0.971122
0.890564
0.896843
1
0.814899
0.972409
0.982684
1
0.850226
0.965398
0.955584
0.97044
0.843805
1
0.960546
0.977113
0.899111
0.860689
0.837551
0.843556
0.993127
0.937189
0.972348
0.991667
0.907661
0.989531
0.92474
0.991203
0.975046
0.891336
0.907818
0.864078
0.864142
0.901381
0.975588
0.989524
0.872602
0.966699
0.980467
0.982641
0.961405
0.902904
0.976797
0.953678
0.90607
0.899758
0.865765
0.849805
0.973205
0.970666
1
0.828479
0.971612
0.968229
1
0.861783
1
0.974244
0.978355
0.838119
1
0.974739
0.849785
0.863162
0.978718
0.875973
0.986731
0.976864
0.895409
0.985696
0.98076
0.933499
0.956603
0.977731
0.932596
0.982439
0.961434
0.898561
0.981229
0.95416
0.900285
0.957782
0.968787
0.908072
0.952691
0.90492
0.889918
1
0.864644
0.981243
0.973229
1
0.834691
0.973589
0.971616
0.977134
0.864447
1
0.95797
0.97811
0.852985
0.874623
0.837131
0.844905
0.988451
0.88152
0.9615
0.984949
0.897
0.963663
0.871019
0.981424
0.964632
0.911326
0.928023
0.825531
0.86348
0.799459
0.96939
0.985715
0.784425
0.969353
0.977515
0.977023
0.94067
0.889365
0.979467
0.916697
0.904742
0.928265
0.855989
0.885083
0.962132
0.963395
1
0.862214
0.949318
0.937597
1
0.864358
1
0.967572
0.973739
0.825836
1
0.972517
0.8405
0.84324
0.963139
0.826485
0.977717
0.961212
0.823828
0.970518
0.979636
0.903856
0.951632
0.968789
0.867504
0.975522
0.940082
0.894516
0.969241
0.933032
0.910704
0.947591
0.974297
0.873539
0.941742
0.904572
0.908977
1
0.846899
0.972184
0.964995
1
0.8048
0.967929
0.959619
0.975618
0.876803
0.999238
0.97106
0.974848
0.87837
0.904375
0.836526
0.853537
0.987647
0.889654
0.953618
0.984756
0.83078
0.964146
0.908559
0.981476
0.956642
0.883065
0.897878
0.858644
0.881055
0.811861
0.970668
0.980293
0.861261
0.977217
0.968559
0.980709
0.932805
0.91547
0.980474
0.941443
0.935488
0.939681
0.890668
0.897006
0.920317
0.935075
0.999028
0.884218
0.935706
0.941532
0.979795
0.822397
1
0.97262
0.965827
0.837041
0.990107
0.959887
0.87018
0.856949
0.970431
0.845923
0.97092
0.972495
0.879836
0.973489
0.973728
0.890218
0.922163
0.959157
0.813031
0.978863
0.945937
0.923153
0.976839
0.950301
0.893169
0.938823
0.962073
0.884119
0.928853
0.938112
0.931795
0.999081
0.822026
0.967308
0.965117
0.992162
0.867507
0.967174
0.966928
0.976552
0.860037
0.998897
0.961257
0.97121
0.87785
0.852705
0.841564
0.819653
0.983292
0.862981
0.940693
0.950651
0.869514
0.942586
0.896889
0.976087
0.947186
0.88939
0.901797
0.902078
0.938732
0.876638
0.983361
0.974386
0.898952
0.981036
0.981587
0.983188
0.958718
0.943601
0.98706
0.953505
0.974322
0.967746
0.92387
0.940582
0.941687
0.946026
0.981135
0.935257
0.963989
0.961742
0.995378
0.879054
0.992783
0.958016
0.97747
0.910076
0.989181
0.956699
0.858486
0.915026
0.981773
0.90434
0.977957
0.979448
0.912032
0.982889
0.962928
0.865656
0.952145
0.950453
0.892157
0.981493
0.968367
0.934464
0.982913
0.963948
0.869335
0.905703
0.967301
0.933733
0.929457
0.955428
0.9594
0.994331
0.885146
0.962924
0.979553
0.989542
0.922486
0.975206
0.957237
0.967047
0.880868
0.968841
0.924109
0.973603
0.915448
0.920295
0.862942
0.880496
0.94075
0.88597
0.968443
0.951838
0.911207
0.937735
0.936902
0.973147
0.91698
0.926911
0.927353
0.938311
0.94026
0.902577
0.976737
0.981252
0.923031
0.988697
0.994881
0.989695
0.967251
0.968667
0.988997
0.972562
0.963627
0.981444
0.94051
0.941622
0.943577
0.955091
0.977988
0.963984
0.985676
0.96957
0.999381
0.915339
0.999331
0.974115
0.983419
0.934005
0.987217
0.968795
0.904669
0.932931
0.985292
0.924784
0.982977
0.989278
0.922693
0.986581
0.968438
0.978559
0.961802
0.962673
0.959003
0.976027
0.930997
0.969343
0.991992
0.950953
0.996812
0.984956
0.99503
0.930606
0.986971
0.976958
0.958873
0.985728
0.976104
0.959297
0.950834
0.96563
0.976581
0.963675
0.964723
0.970114
0.946266
1
0.96547
0.991878
0.923959
0.995632
0.967458
0.974677
0.96135
0.996173
0.923835
0.966819
0.983368
0.994455
0.947684
0.973235
0.97559
0.969419
0.928688
0.983887
0.94918
0.982185
0.943097
0.937578
0.869581
0.951721
0.971211
0.913407
0.976147
0.94322
0.920868
0.954435
0.928118
0.981179
0.937115
0.94392
0.951169
0.9351
0.968979
0.935021
0.98618
0.986128
0.934142
0.983896
0.987734
0.989635
0.975829
0.937562
0.995182
0.977543
0.983562
0.987409
0.949632
0.954996
0.962269
0.957737
0.989348
0.926398
0.975305
0.972489
0.992703
0.920856
1
0.980716
0.988517
0.955925
0.993631
0.9649
0.951235
0.986052
0.964312
0.969795
1
0.984779
1
0.983055
0.99431
0.93248
0.987853
0.98951
0.9305
0.989155
0.969703
0.984316
0.971311
0.988566
0.967475
0.993262
0.955796
0.970793
0.998198
0.89531
0.999178
0.93777
0.99754
0.867976
0.982303
0.984044
0.952054
0.989606
0.986677
0.971574
0.968181
0.97928
0.986607
0.974652
0.984091
0.975814
0.915515
0.996869
0.969824
0.997679
0.867579
0.999207
0.940408
0.97328
0.976698
0.999901
0.936096
0.984075
0.9883
0.993498
0.943688
0.982772
0.982508
0.983223
0.93487
0.99494
0.96511
0.978184
0.948624
0.979798
0.958538
0.976065
0.99328
1
0.987206
0.900364
0.907711
0.989033
0.95182
0.960892
0.961992
0.921531
0.957623
0.98321
0.983692
0.981689
0.966641
0.960262
0.949321
0.937541
0.933703
0.995277
0.991459
0.984607
0.993226
0.998304
0.991698
0.97925
0.997692
0.993394
0.987377
0.976008
0.969377
0.967606
0.953672
0.977583
0.97392
0.999935
0.944827
0.970421
0.968257
0.998306
0.960906
1
0.981409
0.981352
0.951844
1
0.982621
0.965613
0.991773
0.962205
0.991822
1
0.980066
1
0.99251
0.9904
0.972068
0.991518
0.993032
0.995051
0.993639
0.978915
0.974366
0.954762
0.98053
0.977477
0.979933
0.989246
0.920321
0.995157
0.856722
0.993875
0.923933
0.983842
0.86898
0.994697
0.988304
0.993842
0.994667
0.992486
0.97342
0.967851
0.959676
0.984393
0.987668
0.973587
0.982305
0.869698
0.997288
0.913336
0.985692
0.882373
0.988628
0.929741
0.981512
0.975652
1
0.951339
0.984135
0.978977
0.998977
0.945996
0.973054
0.960359
0.984338
0.959899
0.999355
0.983975
0.990191
0.9691
0.982911
0.976692
0.980688
0.984855
1
0.981292
0.926673
0.941507
0.976223
0.924715
0.983157
0.990514
0.941616
0.927505
0.94294
0.987619
0.97847
0.96719
0.965195
0.943397
0.960616
0.981309
0.985291
0.990823
0.930729
0.978247
0.99573
0.990575
0.991827
0.957454
0.988333
0.976913
0.9662
0.966802
0.952071
0.968373
0.963079
0.963966
0.995863
0.938556
0.987145
0.984115
0.998339
0.945025
0.998453
0.975047
0.989601
0.966854
0.995697
0.981456
0.963646
0.965517
0.990168
0.953484
0.99167
0.992452
0.945568
0.990307
0.951857
0.994613
0.981498
0.977848
0.928193
0.989488
0.900289
0.956215
0.937003
0.876087
0.951019
1
0.929405
0.980619
0.994424
0.99237
0.949747
0.986758
0.98509
0.970308
0.977894
0.953481
0.98035
0.899224
0.98446
0.957797
0.892278
0.958345
0.966283
0.924815
0.970305
0.945894
0.985041
0.973839
0.966584
0.993795
0.929288
0.975899
0.989203
1
0.949316
0.986436
0.991847
0.979564
0.967032
0.996693
0.97597
0.990133
0.947162
0.958993
0.932621
0.915969
0.995559
0.976185
0.971851
0.990635
0.981672
0.990378
0.989026
0.993386
0.994375
0.999342
0.950544
0.958945
0.96292
0.937874
0.991756
0.991732
0.973171
0.982275
0.990128
0.990334
0.979551
0.994283
0.996365
0.986952
0.981236
0.971828
0.96914
0.970325
0.986816
0.971391
1
0.945059
0.975642
0.975863
1
0.957755
0.999469
0.989197
0.992452
0.961803
1
0.984825
0.970869
0.971654
0.987343
0.966461
0.989792
0.98506
0.992633
0.991761
0.961288
0.937749
0.964873
0.962695
0.96271
0.990576
0.978351
0.994942
0.987486
0.983851
0.947864
0.979602
0.960192
0.957082
0.968248
0.971468
0.975933
1
0.952018
0.987345
0.984363
1
0.956857
0.982199
0.952116
0.985517
0.928171
0.998092
0.987303
0.982529
0.956855
0.958838
0.906317
0.908068
0.959214
0.964989
0.980177
0.99414
0.979916
0.980225
0.982223
0.984751
0.964693
0.998793
0.973317
0.952606
0.970239
0.978339
0.971131
0.979893
0.9989
0.957549
0.978077
0.988913
0.981574
1
0.977132
0.980531
0.965212
0.964867
0.975481
0.969073
0.960186
0.966866
0.999056
0.918068
0.953418
0.966063
0.981677
0.931533
1
0.983689
0.97483
0.904359
0.999242
0.97104
0.96035
0.940965
0.979293
0.994612
0.978496
0.975694
0.993622
0.976649
0.974963
0.972855
0.96354
0.970778
0.956265
0.984184
0.988421
1
0.973278
0.988964
0.951531
0.970754
0.97839
0.965748
0.951547
0.973143
0.964006
1
0.932221
0.981321
0.965903
0.991293
0.924461
0.965642
0.988956
0.990512
0.961201
0.999967
0.98723
0.981852
0.956739
0.96068
0.931016
0.898345
0.9942
0.973221
0.977738
0.98656
0.980025
0.990276
0.993416
0.992934
0.983654
0.996818
0.972769
0.973237
0.93393
0.991533
0.966528
0.985375
1
0.962892
0.953673
0.988036
0.985408
1
0.978889
0.980802
0.966191
0.980481
0.954097
0.952078
0.977055
0.977714
0.999382
0.920536
0.955788
0.960136
0.995444
0.947537
0.997167
0.980228
0.98411
0.954492
0.997134
0.988114
0.927202
0.93931
0.976081
0.996811
0.983858
0.966909
0.996811
0.94579
0.97408
0.96128
0.961871
0.969204
0.963474
0.989002
0.992372
1
0.962494
0.974482
0.963078
0.962976
0.974008
0.942409
0.96459
0.970982
0.968401
0.997757
0.967097
0.979446
0.96834
0.999044
0.94578
0.977993
0.978418
0.974162
0.899338
0.992524
0.98149
0.971607
0.924231
0.938843
0.92668
0.887222
0.97472
0.996707
0.95025
0.987587
1
0.974631
0.996708
0.991485
0.980944
1
0.969477
0.965571
0.960554
1
0.950278
0.97184
1
0.959255
0.963362
0.966743
0.969305
1
0.977799
0.978478
0.956497
0.96068
0.952844
0.956327
0.951385
0.96404
0.994436
0.925801
0.950877
0.955698
0.990532
0.930096
0.994926
0.983815
0.979361
0.926945
0.99542
0.981545
0.899908
0.898844
0.973372
0.997911
0.971502
0.965709
0.992523
0.956511
0.971951
0.936955
0.953366
0.958724
0.963252
0.961283
0.980716
1
0.967705
0.986641
0.950099
0.962335
0.961604
0.949001
0.95451
0.963519
0.962333
0.996801
0.925926
0.952476
0.965755
0.99479
0.933519
0.971577
0.976026
0.976133
0.947274
0.996127
0.97157
0.977592
0.958743
0.928308
0.876938
0.890721
0.960948
1
0.967285
0.969134
1
0.977768
1
0.995501
0.968239
1
0.966674
0.968568
0.947591
0.993623
0.956934
0.957851
1
0.977403
0.981288
0.965714
0.972594
1
0.984947
0.989084
0.954893
0.959983
0.96587
0.951521
0.96783
0.976464
0.991638
0.914713
0.987929
0.976375
0.993102
0.939138
0.992388
0.982421
0.978579
0.95729
0.988038
0.9859
0.895131
0.912198
0.972792
1
0.959449
0.97643
1
0.971624
0.977516
0.959843
0.966738
0.972129
0.941251
0.974128
0.982343
1
0.97949
0.972972
0.939002
0.955631
0.973152
0.948564
0.958068
0.968193
0.970773
0.986744
0.942631
0.964524
0.98154
0.987865
0.957142
0.97076
0.975321
0.984038
0.933423
1
0.973459
0.977805
0.922741
0.956031
0.894849
0.908631
0.983631
1
0.971351
0.985835
0.998902
0.983616
1
0.993508
0.980673
1
0.956803
0.930307
0.95226
1
0.958598
0.961122
1
0.960958
0.936929
0.983038
0.97902
1
0.963169
0.945499
0.976366
0.961377
0.928884
0.958556
0.950158
0.962521
0.977777
0.946409
0.973042
0.977209
0.974621
0.972239
0.995123
0.990802
0.980052
0.939419
0.988434
0.989713
0.953408
0.948091
0.961336
1
0.944247
0.967645
0.997911
0.95209
0.963082
0.954344
0.968793
0.962567
0.968096
0.967614
0.980252
1
0.949286
0.967202
0.952522
0.956134
0.960818
0.942851
0.95594
0.964844
0.959822
0.995845
0.946793
0.976935
0.955924
0.967453
0.945162
0.957562
0.970532
0.970599
0.944558
1
0.963302
0.977045
0.956878
0.94427
0.961731
0.935566
0.989852
0.998024
0.982152
0.992238
0.999451
0.988845
0.99989
0.995954
0.984352
1
0.988448
0.962087
0.934976
1
0.974346
0.990402
1
0.973147
0.987525
0.985795
0.979175
1
0.996002
0.991058
0.957055
0.972462
0.980497
0.938148
0.989846
0.990407
0.99795
0.929273
0.962828
0.965858
0.993297
0.960325
0.968893
0.981635
0.984168
0.97606
0.994102
0.993011
0.91675
0.926194
0.983784
0.9989
0.98407
0.977166
1
0.982465
0.977909
0.932121
0.967514
0.960752
0.92519
0.988609
0.984356
1
0.990608
0.985015
0.916914
0.968446
0.952957
0.903836
0.956869
0.961357
0.975028
0.987437
0.962091
0.944213
0.985448
0.997461
0.964285
0.977449
0.981056
0.980176
0.969821
1
0.978951
0.976558
0.964226
0.964504
0.902405
0.926401
0.988312
0.994183
0.959697
0.97608
0.994732
0.991208
1
0.991334
0.980944
1
0.982847
0.963971
0.975606
0.997581
0.971638
0.979501
0.99989
0.974462
0.98592
0.989005
0.980296
1
0.98952
0.982699
0.982917
0.967309
0.982031
0.961967
0.975592
0.97739
0.999187
0.975695
0.981576
0.987695
0.99437
0.968469
0.9914
0.990983
0.978582
0.947859
0.984544
0.98569
0.938357
0.930334
0.976161
1
0.980286
0.980996
1
0.990793
0.950973
0.932887
0.957636
0.948773
0.951816
0.980402
0.989198
1
0.992455
0.987375
0.888443
0.95388
0.938209
0.885049
0.960399
0.977189
0.97489
0.990802
0.937003
0.968492
0.981538
0.994954
0.93656
0.96552
0.966014
0.964697
0.949749
0.999032
0.969772
0.968413
0.94971
0.94981
0.961659
0.963413
0.975355
0.998244
0.968369
0.989701
0.997476
0.979275
1
0.996316
0.981024
1
0.98432
0.965504
0.963549
0.997911
0.971836
0.987921
0.996921
0.97438
0.980164
0.995397
0.986416
1
0.988216
0.984901
0.97093
0.975458
0.964131
0.97353
0.976878
0.982128
0.991119
0.980007
0.984573
0.991776
0.994728
0.956385
0.998946
0.987836
0.983477
0.967805
0.996573
0.990501
0.937867
0.9616
0.979335
1
0.985738
0.983473
1
0.970135
0.966226
0.94598
0.961163
0.959636
0.955337
0.992457
0.992178
1
0.981579
0.981994
0.920646
0.956443
0.923729
0.896918
0.96229
0.979842
0.981933
0.995351
0.969124
0.975211
0.972395
0.992876
0.973451
0.970243
0.976484
0.96802
0.961067
0.987945
0.966621
0.966762
0.959302
0.956865
0.946343
0.956622
0.987408
1
0.949623
0.979459
1
0.986136
0.999342
0.992269
0.986713
0.994841
0.988516
0.978747
0.964032
0.996702
0.983132
0.979989
1
0.979411
0.990945
0.99255
0.984364
0.99934
0.99488
0.990515
0.958386
0.98466
0.985304
0.972694
0.986823
0.992999
0.997983
0.983759
0.97888
0.978012
0.988382
0.967693
0.988798
0.99392
0.988492
0.975607
0.995748
0.990468
0.953136
0.966764
0.983167
1
0.982983
0.976813
0.9989
0.992367
0.955615
0.931363
0.956381
0.966828
0.898769
0.987157
0.985984
1
0.995637
0.995082
0.852426
0.956102
0.914819
0.838746
0.954732
0.985909
0.987096
0.995384
0.974182
0.971095
0.991581
0.997131
0.975366
0.979657
0.966877
0.96881
0.967961
0.993555
0.969825
0.973817
0.95868
0.945101
0.954458
0.974323
0.980312
0.994733
0.959071
0.969793
0.998902
0.980792
0.997805
0.991483
0.974703
0.99978
0.981234
0.947176
0.955742
0.993623
0.973071
0.979654
0.996811
0.961845
0.960089
0.993974
0.98928
1
0.980612
0.958033
0.990311
0.976781
0.955842
0.968654
0.960795
0.964136
0.977
0.963095
0.962735
0.962396
0.99463
0.986572
0.999012
0.996158
0.959706
0.980216
0.982532
0.996641
0.971672
0.983137
0.980341
0.994723
0.97396
0.960752
1
0.968105
0.946175
0.889234
0.971541
0.944008
0.890517
0.982704
0.986836
1
0.967336
0.978778
0.78342
0.933534
0.886063
0.734211
0.937965
0.987236
0.978864
0.988395
0.988753
0.987471
0.962111
0.98661
0.956235
0.970815
0.96462
0.962548
0.94971
0.996594
0.980748
0.944563
0.96128
0.932217
0.980135
0.993423
0.970405
0.996817
0.979518
0.973088
0.993635
0.978159
0.991221
0.990698
0.981134
0.999341
0.990827
0.958958
0.980274
0.993734
0.959224
0.982199
0.993292
0.977283
0.989037
0.977922
0.977395
0.994502
0.98852
0.986026
0.971903
0.973649
0.972698
0.986904
0.979725
0.990885
0.999024
0.990927
0.988286
0.988826
0.993882
0.958361
0.99173
0.991167
0.969895
0.958188
0.997297
0.983901
0.973767
0.977053
0.975659
0.996812
0.981409
0.98355
0.993622
0.989429
0.947532
0.8736
0.964916
0.940593
0.870725
0.987945
0.987688
0.996921
0.990213
0.994191
0.704084
0.934308
0.840645
0.734871
0.936493
0.961773
0.988491
0.992813
0.924468
0.97028
0.980877
0.994657
0.966027
0.969453
0.975783
0.975985
0.988247
0.992987
0.980778
0.97549
0.98666
0.947272
0.960544
0.969635
0.994353
0.996817
0.959387
0.994533
1
0.992874
0.996817
0.996497
0.983847
1
0.982634
0.986411
0.991218
1
0.978026
0.991463
0.99956
0.988313
0.993247
0.988976
0.989433
0.996152
0.994517
0.992297
0.972879
0.988009
0.985097
0.983838
0.989757
0.989604
0.99024
0.98796
0.988317
0.991478
0.997494
0.957013
0.998682
0.987083
0.982965
0.965101
0.998484
0.989167
0.978314
0.9632
0.991448
0.993624
0.991946
0.988
0.996811
0.99682
0.928832
0.852809
0.950883
0.921739
0.808234
0.994729
0.995276
0.99989
0.993001
0.993727
0.693315
0.950412
0.816394
0.631545
0.91961
0.986259
0.995326
0.999736
0.980316
0.974727
0.989836
1
0.971258
0.981322
0.972214
0.962031
0.971012
0.993889
0.972845
0.966823
0.976881
0.929836
0.969355
0.98342
0.983451
0.996927
0.956213
0.987556
0.99989
0.995353
1
0.99544
0.985473
1
0.981304
0.982787
0.984597
1
0.978295
0.989677
0.99989
0.982625
0.993307
0.995003
0.99311
0.996921
0.99588
0.994813
0.987381
0.974694
0.9899
0.98816
0.987602
0.987101
0.998796
0.993616
0.99257
0.990406
0.999056
0.981454
0.999868
0.985902
0.986961
0.984379
0.998088
0.989621
0.972085
0.979993
0.992918
1
0.9914
0.994001
1
0.997032
0.921721
0.74159
0.933477
0.893412
0.703824
0.995093
0.996322
0.996811
0.997485
0.993455
0.625627
0.897146
0.784432
0.59692
0.879415
0.988214
0.996721
0.998417
0.986279
0.988984
0.984664
1
0.992912
0.988829
0.969866
0.945251
0.972764
0.983036
0.960397
0.927351
0.955458
0.876408
0.975935
0.988876
0.963187
0.996488
0.957413
0.957654
0.998244
0.983929
0.999781
0.990064
0.95975
0.995939
0.945031
0.990383
0.973027
0.996811
0.987617
0.995306
0.996811
0.987464
0.995913
0.995305
0.989394
0.996922
0.997244
0.993381
0.989751
0.984663
0.988647
0.99185
0.990686
0.989216
0.997918
0.990816
0.994667
0.983136
0.996355
0.983086
0.996936
0.988928
0.986119
0.986007
0.998286
0.992162
0.988039
0.980758
0.994892
0.996811
0.99464
0.99431
1
0.992761
0.872097
0.713208
0.920523
0.861061
0.758724
0.999122
0.997019
1
0.995606
0.991867
0.569367
0.848294
0.69402
0.596261
0.819625
0.995955
0.995744
0.999044
0.982059
0.991283
0.985145
0.999802
0.977501
0.992462
0.944306
0.910474
0.966887
0.973954
0.944287
0.904939
0.948562
0.829562
0.983698
0.988667
0.953644
0.998902
0.961865
0.949982
1
0.953684
0.997915
0.982453
0.94747
0.99989
0.892863
0.983972
0.981042
0.99989
0.977827
0.994761
0.993734
0.98139
0.995913
0.997668
0.992491
1
0.99685
0.990516
0.989613
0.98745
0.991643
0.989063
0.98856
0.985196
0.985751
0.990086
0.98562
0.983909
0.999024
0.987639
0.996442
0.988958
0.987771
0.983363
0.99799
0.99068
0.985659
0.987407
0.995085
1
0.995609
0.974338
1
0.997819
0.846166
0.750281
0.911845
0.828165
0.704594
0.996698
0.995896
0.997031
0.997
0.995895
0.605299
0.756473
0.605332
0.566252
0.637702
0.995258
0.993233
1
0.982342
0.995793
0.993625
1
0.988805
0.992068
0.927043
0.864085
0.94355
0.958693
0.87872
0.822407
0.887458
0.742942
0.987548
0.993213
0.946728
1
0.955051
0.934668
0.985184
0.915694
0.995501
0.963064
0.906678
0.984305
0.864504
0.981951
0.984109
0.993182
0.979881
0.994732
0.990434
0.980729
0.993792
0.997759
0.996245
0.994723
0.994003
0.988969
0.980197
0.980134
0.981262
0.987533
0.988829
0.991689
0.998536
0.993167
0.99272
0.991151
0.999056
0.982524
0.998946
0.988505
0.987623
0.992863
0.999044
0.987926
0.977265
0.979571
0.991562
0.993622
0.989461
0.98781
0.996592
0.993852
0.781442
0.690326
0.912698
0.654967
0.668507
0.997576
0.994502
0.990436
0.995213
0.990628
0.578706
0.521656
0.463152
0.597689
0.501744
0.989818
0.99693
0.999044
0.981161
0.994885
0.994798
1
0.990943
0.995641
0.761029
0.693088
0.800703
0.558613
0.506732
0.526035
0.666048
0.579507
0.991464
0.989576
0.916136
0.974536
0.958384
0.900145
0.930969
0.820119
0.947873
0.832957
0.696325
0.921526
0.719204
0.964737
0.980624
0.987903
0.98367
0.995276
0.992964
0.982318
0.993763
0.995881
0.98951
0.992745
0.997092
0.991213
0.967653
0.979014
0.980849
0.974085
0.995118
0.994877
0.999057
0.982077
0.990503
0.993474
0.998113
0.968761
0.999045
0.986508
0.983354
0.982408
1
0.984991
0.976775
0.967048
0.99079
0.990434
0.994731
0.986027
0.993622
0.995094
0.541885
0.631692
0.876529
0.486461
0.603485
0.997486
0.997483
0.997581
0.995455
0.992061
0.57541
0.48492
0.44522
0.589885
0.475838
0.987585
0.989746
1
0.987177
0.992858
0.989206
1
0.988638
0.99116
0.436871
0.44883
0.546595
0.423806
0.425085
0.425956
0.520326
0.532941
0.986988
0.965367
0.846148
0.905837
0.948697
0.714695
0.828335
0.590087
0.910451
0.503614
0.510106
0.765565
0.536441
0.995191
0.985224
0.995821
0.98046
0.994126