/*--------------------------------*- C++ -*----------------------------------*\
| =========                 |                                                 |
| \\      /  F ield         | OpenFOAM: The Open Source CFD Toolbox           |
|  \\    /   O peration     | Version:  5.x                                   |
|   \\  /    A nd           | Web:      www.OpenFOAM.org                      |
|    \\/     M anipulation  |                                                 |
\*---------------------------------------------------------------------------*/
FoamFile
{
    version     2.0;
    format      ascii;
    class       volVectorField;
    location    "9.2";
    object      U;
}
// * * * * * * * * * * * * * * * * * * * * * * * * * * * * * * * * * * * * * //

dimensions      [0 1 -1 0 0 0 0];

internalField   nonuniform List<vector> 
10571
(
(-0.00627559 0.163408 1.01339)
(-0.0795155 0.0168068 1.57896)
(-0.128864 0.00695142 1.58942)
(0.151898 0.255518 1.13442)
(0.790105 0.516637 1.23237)
(-0.226952 0.45044 1.72233)
(0.216021 0.590047 2.00935)
(0.610377 1.1765 2.0022)
(0.552407 0.684023 1.23041)
(0.00172246 0.0321467 2.05443)
(-0.722727 -1.31965 4.15501)
(-0.291967 0.137899 2.37534)
(0.409075 0.0166127 1.63668)
(0.949788 -0.148552 2.69427)
(0.0939527 -1.82667 3.61985)
(-0.203063 -0.413595 0.961039)
(-1.00816 -0.942278 1.25896)
(-0.297086 -0.639678 1.24598)
(0.287179 -0.894643 1.21032)
(0.236111 -0.97743 1.37627)
(0.0982355 -0.32981 1.2036)
(-0.222889 -0.154806 1.09259)
(0.267878 -0.257077 1.04707)
(0.280922 -0.196784 0.795342)
(-0.113045 0.0384383 0.428298)
(0.038023 -0.16632 0.878118)
(-0.0546883 -0.127899 1.24767)
(-0.26952 -0.108273 0.802669)
(-0.0556165 -0.0115172 0.676863)
(0.391617 -0.0785216 1.12707)
(0.190394 -0.826923 3.42626)
(0.235608 -1.1481 4.36324)
(0.610758 -1.71251 2.88428)
(0.0893986 -0.905723 1.57843)
(0.27727 -1.7843 4.35702)
(1.88249 -0.999887 2.4357)
(0.335252 -1.19037 2.58909)
(0.761576 -1.54785 2.38182)
(0.735622 -2.22717 2.45048)
(0.25386 -0.7862 0.587019)
(0.192172 0.0445148 0.571718)
(0.117743 -0.211883 0.7841)
(0.0155598 -0.216515 0.590574)
(0.0918348 -0.752798 1.18366)
(-0.070134 -0.0250297 0.46983)
(-0.0489308 -0.249279 0.944722)
(0.0760851 -0.300903 0.833107)
(0.106763 -0.146417 0.573047)
(-0.0674493 -0.0904181 -0.0839685)
(-0.427625 0.416759 1.03507)
(-0.123922 -0.140847 1.14731)
(-0.431777 -0.764731 0.787148)
(-0.749256 -2.25111 2.17895)
(-0.121709 -0.524621 0.80644)
(-0.263429 -0.466033 1.107)
(-0.574935 -0.833699 1.8866)
(0.0190665 -1.66598 3.29464)
(0.0973031 -0.989572 3.04504)
(0.13717 0.0526335 0.996498)
(0.242972 -0.249528 1.20905)
(0.0728301 -0.239474 1.17091)
(-0.108013 0.116203 1.72257)
(0.14862 0.057815 1.40712)
(0.102382 0.127995 0.702449)
(0.0897846 0.0058238 0.530075)
(0.0608212 0.0110462 0.509201)
(-0.0637847 -0.0143363 0.353127)
(-0.105561 0.104032 0.229099)
(0.0290631 0.155628 0.381391)
(0.0346238 -0.102904 0.683756)
(0.0135963 -0.115724 0.561555)
(0.0164997 -0.030097 0.320805)
(-0.308759 -0.08697 0.90186)
(-0.651794 0.341124 1.72239)
(-0.152664 -0.362385 2.02054)
(-0.0932324 -0.141399 1.10076)
(-0.807653 -1.1794 2.18154)
(0.0104145 -0.346086 1.04773)
(-0.340198 -0.233567 2.42058)
(-0.411894 -0.126579 1.57978)
(-0.059156 -0.161011 1.09648)
(0.0233858 -0.291526 1.56886)
(-0.0800117 -0.0645257 0.991833)
(-0.165472 -0.0224036 0.884515)
(-0.0171977 0.0753917 1.27846)
(-0.172914 0.201225 1.03911)
(-0.0497104 0.209344 0.544476)
(-0.0732165 0.207207 0.450355)
(-0.0521521 -0.014114 0.443118)
(0.103141 0.0583185 0.463707)
(-0.100729 0.0204018 0.41151)
(-0.0714009 0.142415 0.303059)
(-0.0507446 0.142756 0.536696)
(0.101449 -0.0389562 0.569051)
(-0.0175779 -0.0564765 0.497407)
(-0.0155496 -0.00630565 0.28373)
(-0.208674 -0.0447156 0.860115)
(-0.612256 0.337515 2.1247)
(-0.13521 -0.0354197 2.32471)
(-0.367982 0.293786 1.65292)
(-0.723564 -0.342835 2.07856)
(-0.0596448 -0.245113 1.09494)
(0.0170003 0.0206609 1.48549)
(0.221501 0.516792 2.13076)
(-0.483548 0.264623 2.41023)
(0.584169 -0.138376 1.65928)
(-0.0607465 0.0929082 0.719304)
(0.0924754 -0.18919 0.364001)
(0.456728 0.11886 1.71524)
(-0.153118 0.0728636 2.3071)
(-0.562355 -0.436998 1.4048)
(-0.18601 0.135456 0.346638)
(-0.0694979 -0.0175332 0.430261)
(0.184452 -0.154536 0.675036)
(-0.0731994 -0.344609 0.727302)
(-0.123356 -0.131271 0.317166)
(0.0246292 0.342721 0.748888)
(0.0939272 0.0418848 0.432889)
(0.070924 -0.0949619 0.515838)
(0.0263136 -0.0152144 0.307644)
(-0.260439 0.00482899 0.495767)
(-0.556562 0.408225 2.36518)
(-0.149705 0.106689 2.42768)
(-0.338091 0.543221 1.69483)
(-0.570809 0.204667 2.17081)
(0.0676872 -0.159882 1.09783)
(-0.260619 0.0575714 1.35241)
(-4.63654e-05 0.430427 1.555)
(-0.218791 0.301454 1.37983)
(-0.00609898 0.0135069 1.33007)
(-0.00582883 0.00461727 -0.00347927)
(-0.0365946 0.10582 0.938825)
(0.140562 0.16687 0.179466)
(0.249723 0.137322 1.18641)
(-0.199182 0.213576 1.75495)
(-0.152765 -0.00540757 0.503586)
(-0.0679632 -0.234087 -0.192024)
(-0.00187653 -0.00099307 -0.000528268)
(0.0520736 0.0428965 -0.0378359)
(0.0940076 -0.0600702 0.280066)
(-0.0691089 0.108593 0.480019)
(-0.126111 0.154169 -0.0287912)
(-0.154622 0.383698 0.707492)
(-0.0570871 0.0122085 0.0640264)
(0.316681 0.0344324 0.0146262)
(0.251907 -0.078204 -0.0281039)
(-0.0332926 0.00791315 0.10935)
(-0.476748 0.444732 2.41741)
(-0.172283 0.133535 2.42776)
(-0.424479 0.4823 1.36885)
(-0.726726 0.446907 1.52679)
(-0.0169098 0.202597 1.13494)
(-0.380141 0.180953 1.44861)
(-0.105566 0.411846 1.67595)
(-0.0200564 0.407723 1.52438)
(0.241099 0.167808 1.52499)
(-0.360238 0.231733 -0.193589)
(0.0236031 0.0982791 0.724139)
(0.205674 0.475073 0.37185)
(0.06696 0.194164 1.23154)
(-0.194369 0.259324 1.86473)
(0.0556745 0.152709 0.790169)
(-0.0703306 -0.0220197 0.113763)
(-0.0973823 0.103817 -0.0763027)
(0.187597 0.319358 0.0905338)
(0.150508 -0.0136354 0.481168)
(-0.132655 0.213901 0.714233)
(-0.235556 0.230493 0.270433)
(-0.166897 0.0617859 0.0904859)
(-0.00560993 -0.00571444 -0.048458)
(0.278844 0.078034 0.1551)
(0.190049 0.145958 0.0952762)
(0.157466 -0.0213099 0.242401)
(0.267853 0.0149531 0.0819758)
(-0.466197 0.441389 2.31699)
(-0.114136 0.226575 2.30815)
(-0.36285 0.390705 1.16221)
(0.0285951 0.0309015 0.324102)
(-0.192717 0.44157 1.30565)
(-0.362648 0.208088 1.41648)
(-0.144066 0.369697 1.69538)
(-0.0468746 0.466128 1.52196)
(0.182937 0.45904 1.61536)
(-0.0751791 0.0970613 -0.264888)
(0.0514828 0.666704 0.609856)
(0.171529 0.605986 0.568644)
(-0.0232051 0.223455 1.31595)
(-0.166903 0.309409 1.99659)
(0.0137067 0.286378 0.861456)
(0.11741 0.588541 0.397318)
(0.081358 0.0495161 -0.041954)
(0.277951 0.448785 0.284784)
(0.149279 0.0542926 0.598818)
(-0.189305 0.247357 0.983177)
(-0.129632 0.173017 0.393333)
(-0.117949 0.228115 0.00557177)
(0.0673383 0.0531836 -0.0238582)
(0.326844 0.0756333 0.154992)
(0.0752178 0.121747 0.30231)
(0.0273566 -0.0180612 0.414825)
(0.390534 0.0477275 0.114322)
(-0.253441 0.439638 2.07084)
(-0.106551 0.219825 2.13819)
(-0.0364377 0.339818 1.07742)
(-0.0984422 0.0491223 0.0845075)
(-0.10144 0.741319 1.35963)
(-0.278948 0.249697 1.35495)
(-0.165952 0.345 1.62035)
(-0.26523 0.551703 1.3451)
(0.0449319 0.680226 0.946179)
(-0.0173684 -0.129102 -0.135107)
(0.0380403 0.967434 0.777875)
(0.134874 0.798031 0.667986)
(-0.0691498 0.265835 1.3866)
(-0.167007 0.31945 1.98384)
(-0.0993789 0.445825 0.835841)
(0.0684026 0.882797 0.598115)
(0.141775 -0.0329658 0.0780443)
(0.33052 0.514535 0.560988)
(0.0947765 0.119513 0.78894)
(-0.210482 0.279548 1.16573)
(-0.0763326 0.278305 0.49779)
(-0.134638 0.281538 0.243497)
(0.289287 0.0408968 0.293759)
(0.0305454 0.0202318 0.447161)
(-0.142715 0.0992843 0.574579)
(0.3471 0.0645148 0.119882)
(-0.0478174 0.177304 1.32406)
(0.191329 0.078264 1.90624)
(0.260626 0.331598 1.06227)
(-0.00427858 0.112336 0.177568)
(-0.0694453 0.754716 1.01419)
(-0.0715607 0.321096 1.25757)
(-0.120704 0.256159 1.5347)
(-0.236905 0.50913 0.996532)
(-0.133679 0.105107 0.254713)
(0.0429341 0.880829 1.00432)
(0.0744342 0.71168 0.778059)
(-0.0567778 0.319244 1.45386)
(-0.163575 0.343797 1.97608)
(-0.0757341 0.465099 0.800205)
(-0.025075 0.310668 0.518526)
(0.318289 0.459529 0.845451)
(0.0391228 0.177236 1.00477)
(-0.213634 0.321528 1.3538)
(-0.0446541 0.353428 0.624976)
(-0.0775051 0.19593 0.453067)
(0.214005 0.00957506 0.500271)
(-0.00276816 0.0135501 0.628464)
(-0.202727 0.140323 0.750875)
(0.150847 0.0383004 0.139301)
(-0.0642848 0.10063 0.912812)
(0.34383 -0.0851074 1.74241)
(0.481667 0.210037 1.15103)
(0.111554 0.05286 0.27446)
(-0.0986285 0.446959 0.786204)
(-0.00294555 0.324351 1.1437)
(0.0758002 0.284205 1.42805)
(0.0582347 0.433056 0.869712)
(0.0411024 0.0701228 0.0793331)
(0.028582 0.570651 1.15714)
(0.0594953 0.466568 0.874185)
(-0.0456623 0.344811 1.53197)
(-0.136121 0.39082 1.96269)
(0.0196941 0.45305 0.807484)
(0.0683465 0.126285 0.495078)
(0.240448 0.32671 1.04885)
(-0.000111218 0.185226 1.21454)
(-0.217005 0.367724 1.50799)
(0.0130744 0.382986 0.72587)
(-0.0126724 0.0727933 0.497391)
(0.130041 -0.0108542 0.7118)
(-0.0781886 0.0645187 0.874211)
(-0.186479 0.137971 0.90523)
(-0.0397643 -0.0153797 0.261156)
(-0.0917226 0.132602 0.699037)
(-0.00381507 -0.00797427 1.20177)
(0.424509 -0.0960498 1.06123)
(0.0895628 -0.0601016 0.370828)
(-0.105346 0.250807 0.694059)
(-0.0839723 0.230966 1.01595)
(0.190387 0.317661 1.23769)
(0.170622 0.279163 0.746846)
(0.026249 0.0267285 0.092266)
(0.0114773 0.370322 1.21107)
(0.0699243 0.294006 0.933367)
(-0.0590857 0.321883 1.62408)
(-0.129242 0.432823 1.92557)
(0.0791545 0.43854 0.801048)
(0.051118 0.112137 0.523474)
(0.12347 0.208033 1.17095)
(-0.014347 0.15203 1.39846)
(-0.216776 0.351616 1.62194)
(0.0699773 0.355177 0.810947)
(0.0101318 0.0266955 0.575226)
(0.0551605 -0.029607 0.896779)
(-0.12576 0.112758 1.12045)
(-0.136253 0.117811 1.07352)
(-0.125419 -0.0170705 0.383755)
(-0.114279 0.10171 0.633173)
(-0.156137 0.0237796 0.852376)
(0.100338 -0.114612 0.880117)
(-0.0293903 -0.145696 0.388962)
(-0.13457 0.169227 0.673389)
(-0.227538 0.0732948 0.855333)
(0.0605984 0.20383 1.05029)
(0.0289067 0.154888 0.601467)
(-0.0187989 0.0218008 0.150991)
(0.00767895 0.259662 1.22013)
(0.0452464 0.214811 0.978494)
(-0.0844411 0.287474 1.68209)
(-0.150178 0.415109 1.89008)
(0.158255 0.381548 0.78713)
(0.0518017 0.086443 0.58918)
(0.0351381 0.157299 1.2455)
(-0.0199244 0.130043 1.54217)
(-0.172514 0.298715 1.70892)
(0.113152 0.276947 0.910354)
(0.0452932 -0.00891997 0.655725)
(0.00170257 -0.0522724 1.05716)
(-0.120693 0.132094 1.30866)
(-0.0582821 0.0724631 1.2082)
(-0.0771811 -0.024675 0.539288)
(-0.117746 0.0589155 0.658989)
(-0.249417 -0.028925 0.726808)
(-0.152008 -0.176426 0.781114)
(-0.0198979 -0.147083 0.367213)
(-0.208902 0.142005 0.715613)
(-0.361641 -0.0172636 0.752961)
(-0.200243 -0.0252501 0.731153)
(-0.12927 0.0776053 0.458751)
(-0.0585764 0.0138476 0.143696)
(0.00346102 0.214875 1.26241)
(0.0141591 0.212406 1.01452)
(-0.113476 0.278813 1.6903)
(-0.130014 0.421107 1.78553)
(0.229405 0.204961 0.740229)
(0.106159 -0.0113222 0.64667)
(-0.0060966 0.145903 1.32877)
(-0.0442067 0.117432 1.66083)
(-0.0760897 0.304592 1.73818)
(0.161807 0.246302 1.04701)
(0.0351574 -0.0229091 0.766565)
(-0.0400757 -0.0756885 1.20324)
(-0.0993498 0.157263 1.43074)
(0.0441491 0.0397618 1.29231)
(0.124402 0.000272794 0.742519)
(-0.114021 0.0217665 0.767572)
(-0.296383 -0.0734823 0.729593)
(-0.226036 -0.236251 0.717469)
(0.00965435 -0.00514758 0.410587)
(-0.272108 0.144116 0.791779)
(-0.450369 -0.0911711 0.646104)
(-0.393602 -0.196332 0.470083)
(-0.240663 -0.00430856 0.298265)
(-0.0346015 -0.0625498 0.174326)
(-0.0130467 0.178134 1.36047)
(-0.00724462 0.207234 1.06726)
(-0.173844 0.294277 1.65246)
(-0.139479 0.399044 1.53673)
(0.212007 -0.0143141 0.631521)
(0.109601 -0.0863964 0.681402)
(-0.0370977 0.141815 1.43169)
(-0.0908663 0.112279 1.75137)
(-0.0362568 0.36013 1.74443)
(0.199157 0.253039 1.14259)
(0.00200117 -0.0208731 0.882601)
(-0.0823033 -0.0913924 1.33611)
(-0.0776641 0.199992 1.53563)
(0.103671 0.0103349 1.37658)
(0.265077 0.00723819 0.824679)
(-0.0885901 0.00843092 0.928916)
(-0.264849 -0.146212 0.773201)
(-0.199642 -0.219442 0.691087)
(0.00012384 0.100467 0.503045)
(-0.275726 0.143237 0.883983)
(-0.506567 -0.153328 0.562457)
(-0.487602 -0.252636 0.272956)
(-0.32697 -0.0634617 0.163188)
(-0.0648336 -0.15551 0.186854)
(-0.0300994 0.0640082 1.57063)
(-0.0475104 0.156613 1.16704)
(-0.35946 0.270918 1.58711)
(-0.23564 0.115107 1.11815)
(0.0395425 -0.156702 0.508095)
(0.0458712 -0.110369 0.682538)
(-0.060782 0.12411 1.56642)
(-0.110309 0.1108 1.84747)
(-0.0600493 0.40844 1.71176)
(0.189937 0.2554 1.09522)
(0.0340241 -0.065383 0.969406)
(-0.128995 -0.0954929 1.46821)
(-0.0829427 0.259012 1.62398)
(0.167467 0.0122081 1.52728)
(0.331428 0.0137368 0.91463)
(-0.0590341 0.0108162 1.06699)
(-0.178957 -0.185587 0.804619)
(-0.153788 -0.150758 0.688394)
(-0.0132836 0.174524 0.587083)
(-0.21039 0.128606 1.02056)
(-0.50278 -0.157802 0.546606)
(-0.477042 -0.170095 0.174071)
(-0.34404 0.000665326 0.0781939)
(-0.117319 -0.181907 0.139198)
(-0.0411172 -0.0628488 1.78775)
(-0.114312 0.0775337 1.30681)
(-0.480373 0.156896 1.53424)
(-0.288757 -0.117285 0.743796)
(-0.171658 -0.0906356 0.332213)
(0.00451354 -0.0736225 0.588731)
(-0.0849877 0.107477 1.72773)
(-0.111485 0.0831107 1.95126)
(-0.0772405 0.41663 1.59375)
(0.0887215 0.162633 0.912122)
(0.027635 -0.0722313 1.05476)
(-0.168064 -0.100774 1.60834)
(-0.0930717 0.278201 1.70937)
(0.19584 -0.00657139 1.70797)
(0.363427 0.0153386 0.944563)
(-0.0232368 0.0104018 1.14058)
(-0.0885479 -0.162836 0.802449)
(0.0260565 -0.0221685 0.743085)
(0.0369472 0.248906 0.597612)
(-0.104688 0.105703 1.19985)
(-0.460221 -0.17432 0.584143)
(-0.354107 -0.0790625 0.137455)
(-0.19797 0.125099 0.0100256)
(-0.0168908 0.00727442 0.0646641)
(-0.0473435 -0.156727 1.97012)
(-0.176007 0.0151461 1.44526)
(-0.488686 -0.0367794 1.47641)
(-0.331729 -0.183149 0.521158)
(-0.282073 0.0238711 0.250494)
(-0.0386329 0.0369459 0.456397)
(-0.0987626 0.0670046 1.89541)
(-0.131366 0.0397774 1.98931)
(-0.170262 0.258755 1.42076)
(-0.105822 0.0612467 0.728621)
(-0.0608539 -0.0393367 1.04895)
(-0.185615 -0.109346 1.72483)
(-0.0845338 0.258414 1.79888)
(0.17849 -0.0106416 1.86043)
(0.370857 0.0126577 0.90641)
(0.00520917 0.00111532 1.17115)
(-0.0380594 -0.144386 0.779529)
(0.142289 0.124422 0.775762)
(0.131323 0.317172 0.46868)
(-0.0224004 0.0982262 1.37174)
(-0.366045 -0.289941 0.682494)
(-0.208518 -0.00500219 0.160193)
(-0.055752 0.178707 -0.00594181)
(0.0524602 0.135801 0.0229254)
(-0.0483776 -0.221521 2.1185)
(-0.203534 -0.0387039 1.57361)
(-0.442201 -0.200217 1.45619)
(-0.371118 -0.146017 0.396794)
(-0.30699 0.0825644 0.224733)
(-0.166051 0.126899 0.320448)
(-0.113578 -0.00384155 2.05435)
(-0.184581 -0.0223439 1.96502)
(-0.362863 0.0611514 1.2368)
(-0.227842 0.0317069 0.587002)
(-0.0399938 -0.0152544 0.873364)
(-0.191999 -0.0764017 1.80516)
(-0.106061 0.217712 1.84287)
(0.144841 -0.00969354 2.02003)
(0.378403 0.026029 0.832888)
(0.0206338 -0.0118307 1.19282)
(0.00848409 -0.146229 0.819811)
(0.142486 0.212833 0.770505)
(0.232234 0.381182 0.229057)
(0.012651 0.0690655 1.50421)
(-0.260813 -0.417934 0.741475)
(-0.0658415 0.0901043 0.196031)
(0.0320867 0.223202 0.000168048)
(0.098406 0.216052 0.0196626)
(-0.0581384 -0.27157 2.22875)
(-0.173934 -0.0922884 1.66043)
(-0.385605 -0.268863 1.44221)
(-0.311117 -0.0522097 0.345126)
(-0.263701 0.140247 0.20084)
(-0.105716 0.233641 0.1857)
(-0.139664 -0.0963636 2.20964)
(-0.306284 -0.11856 1.90408)
(-0.501494 0.0233501 1.06715)
(-0.306331 0.0801293 0.488193)
(-0.0267861 0.067921 0.764485)
(-0.218788 -0.0442274 1.87327)
(-0.14354 0.170815 1.83868)
(0.135939 0.0185127 2.09083)
(0.28064 0.0286837 0.655314)
(0.0553829 -0.0612803 1.25487)
(0.0554527 -0.159178 0.900117)
(0.128646 0.24464 0.698116)
(0.228403 0.34511 0.081559)
(0.045961 -0.0270553 1.62931)
(-0.163799 -0.473211 0.755429)
(0.0619226 0.18114 0.233786)
(0.0903916 0.257337 0.023512)
(0.122059 0.266123 0.0228787)
(-0.0640304 -0.305608 2.30068)
(-0.144146 -0.134338 1.7054)
(-0.362816 -0.275112 1.38695)
(-0.197821 0.0603684 0.329095)
(-0.195817 0.218399 0.188332)
(-0.039198 0.327768 0.1409)
(-0.181357 -0.172298 2.34753)
(-0.404556 -0.150619 1.87715)
(-0.53087 0.0776703 0.945337)
(-0.32208 0.153916 0.472732)
(-0.0660666 0.164565 0.76523)
(-0.264504 -0.0587145 1.91755)
(-0.240461 0.133954 1.8237)
(-0.0418745 0.10255 2.11505)
(0.200235 0.0577257 0.268515)
(0.118014 -0.125229 1.34357)
(0.148313 -0.113577 0.976436)
(0.174034 0.381522 0.578205)
(0.166837 0.228379 0.0191153)
(0.0719876 -0.154037 1.7372)
(-0.0728014 -0.420351 0.750193)
(0.155245 0.217353 0.272681)
(0.14525 0.280631 0.0275847)
(0.141942 0.302816 0.0125144)
(-0.071854 -0.33054 2.32199)
(-0.162897 -0.180982 1.73692)
(-0.337005 -0.259194 1.23069)
(-0.114659 0.153395 0.310584)
(-0.137232 0.301714 0.181456)
(-0.0213233 0.402596 0.148901)
(-0.215795 -0.222409 2.47374)
(-0.445136 -0.125959 1.8823)
(-0.476577 0.144307 0.888153)
(-0.281182 0.214649 0.482048)
(-0.126088 0.25276 0.786244)
(-0.365185 -0.0982579 1.98033)
(-0.44345 0.0964022 1.78774)
(-0.279311 0.124433 1.83988)
(0.229955 0.0304724 -0.012983)
(0.176065 -0.202077 1.4664)
(0.25324 -0.0812662 1.05468)
(0.317823 0.402061 0.438508)
(0.165597 0.136235 -0.0262563)
(0.0662315 -0.275306 1.849)
(0.0606207 -0.247971 0.757452)
(0.2353 0.218184 0.295577)
(0.198196 0.305854 0.0194564)
(0.158198 0.331207 0.000791268)
(-0.0780439 -0.336235 2.34711)
(-0.218782 -0.177145 1.75594)
(-0.239502 -0.228721 1.03389)
(-0.0717248 0.221086 0.29224)
(-0.0964381 0.367214 0.179948)
(-0.0150054 0.448962 0.179494)
(-0.222968 -0.24353 2.59118)
(-0.441323 -0.0814588 1.91417)
(-0.386024 0.186924 0.854586)
(-0.242725 0.2515 0.478981)
(-0.145785 0.298105 0.826264)
(-0.450159 -0.166956 2.08645)
(-0.484642 0.0767781 1.70973)
(-0.289056 0.173847 1.55126)
(0.206678 0.0135201 -0.0966337)
(0.241913 -0.286633 1.65044)
(0.279728 -0.0530372 1.10648)
(0.430846 0.338685 0.266085)
(0.201787 0.0908498 -0.0357773)
(0.0841989 -0.351218 1.93353)
(0.183505 -0.0757485 0.740209)
(0.306547 0.226306 0.300564)
(0.237052 0.328513 0.018374)
(0.147974 0.341856 0.00403248)
(-0.0855816 -0.332092 2.3775)
(-0.278055 -0.195023 1.73006)
(-0.14294 -0.199264 0.890462)
(-0.0475062 0.266581 0.288667)
(-0.0760645 0.402556 0.192263)
(0.000438508 0.44564 0.233596)
(-0.225767 -0.25585 2.70269)
(-0.415202 -0.0778059 1.9638)
(-0.282905 0.193867 0.830754)
(-0.207553 0.262321 0.477744)
(-0.120253 0.263922 0.93797)
(-0.48205 -0.225468 2.18269)
(-0.413653 0.112674 1.61624)
(-0.273561 0.199607 1.40528)
(0.171996 0.00833961 -0.120612)
(0.249905 -0.34738 1.89063)
(0.258168 0.18672 1.14171)
(0.483758 0.245287 0.125208)
(0.232417 0.0583974 -0.0225746)
(0.0928644 -0.40668 1.93381)
(0.265822 0.0630109 0.69395)
(0.357437 0.23466 0.297558)
(0.253514 0.341469 0.0306889)
(0.127224 0.334933 0.0305784)
(-0.0877409 -0.315972 2.44379)
(-0.264164 -0.237729 1.69942)
(-0.113665 -0.183198 0.774276)
(-0.0311581 0.287406 0.302919)
(-0.0838755 0.414915 0.221594)
(-0.00156262 0.380582 0.334371)
(-0.219366 -0.263538 2.79775)
(-0.380425 -0.111205 1.98776)
(-0.169562 0.191273 0.80944)
(-0.178074 0.270493 0.472143)
(-0.0689229 0.1605 1.05935)
(-0.48796 -0.245037 2.23149)
(-0.355707 0.122696 1.57361)
(-0.261025 0.211989 1.33931)
(0.161694 0.00619607 -0.122908)
(0.210209 -0.327515 2.04064)
(0.382424 0.321662 1.12173)
(0.497404 0.122824 0.0100897)
(0.233961 0.0625928 0.00860843)
(0.0668844 -0.469243 1.87676)
(0.332959 0.163568 0.634949)
(0.388151 0.224387 0.288766)
(0.260356 0.336513 0.0602496)
(0.101453 0.287818 0.0757973)
(-0.0867294 -0.275765 2.53115)
(-0.238788 -0.322414 1.6975)
(-0.120596 -0.179305 0.692953)
(-0.0160195 0.28 0.324086)
(-0.104674 0.411849 0.269292)
(-0.0359338 0.304808 0.449446)
(-0.210218 -0.268819 2.89414)
(-0.311407 -0.123278 1.99478)
(-0.0374053 0.181207 0.81286)
(-0.151073 0.280283 0.472838)
(-0.0135008 0.0600937 1.12529)
(-0.485587 -0.261155 2.21846)
(-0.320392 0.0687238 1.53731)
(-0.220775 0.189411 1.33721)
(0.176556 0.00171485 -0.0922419)
(0.277053 -0.299022 2.17818)
(0.59516 0.241062 0.828969)
(0.408848 0.0078074 -0.037176)
(0.2216 0.098738 0.0370312)
(0.105519 -0.510527 1.90286)
(0.446577 0.220214 0.574223)
(0.442312 0.190822 0.286351)
(0.284046 0.31843 0.120725)
(0.0892435 0.227324 0.15001)
(-0.0776039 -0.257379 2.59653)
(-0.262985 -0.43357 1.7311)
(-0.0890321 -0.161799 0.637038)
(-0.00999521 0.26372 0.349354)
(-0.118459 0.407329 0.332407)
(-0.0782662 0.257786 0.545504)
(-0.202479 -0.303479 2.95347)
(-0.161313 -0.108098 1.95059)
(0.0756403 0.151864 0.859755)
(-0.129917 0.293071 0.501394)
(0.024384 0.0023658 1.16486)
(-0.455978 -0.246775 2.16718)
(-0.262953 0.0864183 1.4721)
(-0.154576 0.13292 1.38047)
(0.207032 -0.00171177 -0.0137006)
(0.296321 -0.247708 2.21383)
(0.772382 0.0684583 0.380897)
(0.308906 -0.0664324 -0.0112834)
(0.200101 0.16819 0.0564951)
(0.198353 -0.512759 2.07542)
(0.655746 0.242087 0.530188)
(0.541639 0.142364 0.304105)
(0.324017 0.303059 0.20659)
(0.0840083 0.180157 0.23354)
(-0.0627071 -0.276627 2.62642)
(-0.202933 -0.596979 1.83679)
(0.0178016 -0.0598844 0.592432)
(-0.0049881 0.258021 0.395053)
(-0.110979 0.415994 0.403336)
(-0.136532 0.228268 0.602475)
(-0.193641 -0.343671 2.94387)
(0.0311792 -0.083608 1.72814)
(0.113078 0.113881 0.93394)
(-0.113196 0.312081 0.57137)
(0.0476477 -0.0215885 1.22307)
(-0.427237 -0.100837 2.10332)
(-0.172447 0.151217 1.46579)
(-0.111481 0.0898074 1.44958)
(0.241478 -0.00324985 0.0835867)
(0.223701 -0.142971 1.99617)
(0.773354 -0.0789424 0.160677)
(0.283902 -0.0822464 0.0474079)
(0.133089 0.186092 0.0794616)
(0.413383 -0.416207 2.14585)
(0.876296 0.220319 0.490415)
(0.665291 0.0950795 0.359727)
(0.379176 0.278635 0.322874)
(0.0594404 0.142763 0.281501)
(-0.0288554 -0.336654 2.58225)
(-0.0590078 -0.679216 1.99948)
(0.269612 0.183698 0.61897)
(0.039352 0.295773 0.473877)
(-0.0789873 0.426162 0.491382)
(-0.139392 0.236609 0.640396)
(-0.208965 -0.329269 2.8992)
(0.0978357 -0.0171213 1.47141)
(0.0935772 0.14607 0.99038)
(-0.101399 0.326193 0.681723)
(0.0578145 -0.0174264 1.30389)
(-0.216797 0.106583 2.10864)
(-0.0599373 0.173094 1.5661)
(-0.0425059 0.0543311 1.54571)
(0.270921 -0.00111563 0.180544)
(0.449267 -0.314066 1.17816)
(0.626351 -0.168317 0.19126)
(0.282768 -0.00213434 0.142429)
(0.0631781 0.132455 0.084133)
(0.516286 -0.137458 2.14416)
(0.971103 0.160997 0.465156)
(0.75708 0.0807246 0.447475)
(0.408803 0.242106 0.459544)
(0.0424741 0.115819 0.316431)
(0.0267855 -0.39366 2.3064)
(0.144613 -0.567007 1.90213)
(0.603893 0.360224 0.738323)
(0.182655 0.370065 0.569831)
(-0.0684204 0.423995 0.593275)
(-0.107457 0.275902 0.696021)
(-0.288049 -0.361159 2.82893)
(0.11835 0.105145 1.32721)
(0.0899701 0.220024 1.08648)
(-0.104182 0.343529 0.823021)
(0.0507815 0.0158281 1.41295)
(0.0576492 0.17506 2.18637)
(0.060674 0.155248 1.74851)
(0.0365314 0.0206438 1.68316)
(0.244176 0.011477 0.222512)
(0.33709 -0.33449 0.727217)
(0.390628 -0.140695 0.290357)
(0.22315 0.132643 0.215459)
(0.00486871 0.0630002 0.0846621)
(0.742805 -0.0634333 1.74618)
(0.929478 0.131335 0.463542)
(0.732042 0.105074 0.541291)
(0.388935 0.193007 0.597634)
(0.0246589 0.103408 0.347476)
(0.0272775 0.095419 1.85954)
(0.542683 0.0467763 1.83801)
(0.848389 0.354082 0.855151)
(0.408593 0.34612 0.749379)
(-0.0687257 0.398012 0.724692)
(-0.0776613 0.302917 0.745988)
(-0.210835 -0.423869 2.71681)
(0.190933 0.232682 1.31736)
(0.0637066 0.22259 1.28845)
(-0.125089 0.358569 1.00238)
(0.0269222 0.0447778 1.5538)
(0.122188 0.193775 2.23642)
(0.154321 0.128173 1.96578)
(0.0946269 -0.013565 1.87224)
(0.0350069 0.0341001 0.131644)
(0.113227 -0.130635 0.597839)
(0.206976 -0.0457176 0.31515)
(0.199404 0.162107 0.296492)
(-0.0258795 -0.000338608 0.0783646)
(0.598682 0.0577722 1.29223)
(0.754266 0.175297 0.466854)
(0.60353 0.135141 0.657059)
(0.335374 0.134548 0.70947)
(0.0133494 0.108005 0.360679)
(0.00620265 -0.108313 1.0838)
(0.852456 0.223746 1.50581)
(0.976715 0.203209 0.931547)
(0.604513 0.209114 0.996481)
(-0.0349172 0.335125 0.907926)
(-0.0494195 0.327641 0.783737)
(-0.083035 -0.298795 2.3573)
(0.348244 0.296719 1.42966)
(0.0831807 0.188181 1.46724)
(-0.137991 0.347437 1.18965)
(-0.013972 0.0945915 1.70218)
(0.120552 0.193845 2.2795)
(0.212072 0.0987166 2.16081)
(0.147121 -0.0363914 2.06627)
(-0.0437733 0.00489521 0.0152514)
(-0.0351777 0.0278193 0.51252)
(0.116501 0.0342572 0.309961)
(0.244458 0.127804 0.343729)
(-0.0357328 -0.047015 0.0817417)
(0.380615 0.00464273 0.983011)
(0.545436 0.22467 0.464894)
(0.455687 0.136863 0.788927)
(0.257003 0.109964 0.786683)
(0.0205811 0.115922 0.349544)
(0.0317641 0.000805544 0.68809)
(0.575108 -0.23096 0.729626)
(1.00987 0.114317 1.00215)
(0.653948 0.0690757 1.25368)
(0.106919 0.230428 1.12284)
(-0.00648163 0.370344 0.832099)
(0.434553 0.245653 2.3954)
(0.679164 0.242908 1.56747)
(0.246087 0.180968 1.61083)
(-0.102473 0.311079 1.39436)
(-0.0599807 0.126362 1.86652)
(0.176189 0.207893 2.35212)
(0.216475 0.0742518 2.31944)
(0.176596 -0.0546518 2.27478)
(-0.0612812 -0.0229026 -0.00707231)
(-0.148037 0.140353 0.444581)
(0.0617878 0.0533157 0.282801)
(0.21207 0.0636917 0.355517)
(-0.0488463 -0.0755257 0.0889714)
(0.250916 0.043427 0.71181)
(0.347974 0.221326 0.443852)
(0.335537 0.13207 0.896339)
(0.172155 0.0932296 0.823278)
(0.0313758 0.0985892 0.309516)
(0.0254399 0.0787519 0.460242)
(0.585029 0.0693772 0.378289)
(0.937556 0.14267 1.10396)
(0.627501 -0.00340564 1.45315)
(0.266394 0.131888 1.35975)
(0.0551993 0.355012 0.949188)
(0.419068 0.41837 1.99811)
(0.977201 0.142173 1.71482)
(0.405064 0.13426 1.82903)
(-0.00449782 0.245388 1.64523)
(-0.0824516 0.132421 2.06403)
(0.244278 0.0784602 2.43585)
(0.209763 0.0610386 2.45294)
(0.195417 -0.0578312 2.45362)
(-0.10402 -0.0423755 -0.00161934)
(-0.227183 0.21478 0.384291)
(0.0338136 0.00358464 0.234003)
(0.141922 -0.0123268 0.357458)
(-0.071022 -0.0999361 0.0937159)
(0.177385 0.0998868 0.485622)
(0.184451 0.134605 0.398095)
(0.216066 0.121394 0.958376)
(0.0514597 0.0367369 0.824296)
(0.0213166 0.0472835 0.256236)
(0.0418915 0.121347 0.234297)
(0.531871 0.189008 0.13771)
(0.703381 0.293076 1.19033)
(0.461752 0.0146613 1.60413)
(0.283397 0.0769858 1.58434)
(0.111367 0.243276 1.21779)
(0.750034 0.0457122 0.852596)
(0.984916 0.109497 1.87578)
(0.480252 0.00792421 2.0967)
(0.0514934 0.167227 1.91407)
(-0.0605482 0.0872504 2.28553)
(0.505101 0.0551273 2.51142)
(0.282598 0.0322267 2.59117)
(0.238115 -0.0725389 2.62787)
(-0.156273 -0.0639144 0.0254204)
(-0.286413 0.258104 0.347509)
(-0.00334746 -0.0695146 0.192912)
(0.0574211 -0.123382 0.344377)
(-0.0892409 -0.135359 0.115563)
(0.154285 0.105297 0.320551)
(0.0625848 -0.033733 0.316881)
(0.0687162 0.0252841 0.982268)
(-0.0596767 -0.0804727 0.787971)
(-0.00190059 -0.0220367 0.200943)
(0.0412385 0.0937765 -0.00197125)
(0.359035 0.142734 -0.0850115)
(0.249516 0.461037 1.24664)
(0.139173 0.0754713 1.72587)
(0.098188 0.0136761 1.70747)
(0.0933931 0.100921 1.47815)
(0.393819 0.204692 0.396898)
(0.750991 0.032766 1.99141)
(0.433857 -0.0190841 2.30422)
(0.0841975 0.0633585 2.17239)
(-0.00260952 -0.0502237 2.48783)
(0.684859 0.213462 2.69825)
(0.401044 0.034312 2.74675)
(0.298963 -0.108808 2.75838)
(-0.213844 -0.0883756 0.113033)
(-0.332538 0.285276 0.364137)
(-0.0538995 -0.156939 0.208965)
(-0.022771 -0.285062 0.341039)
(-0.0996945 -0.187293 0.185701)
(0.131563 0.058939 0.247522)
(-0.0315142 -0.261603 0.256974)
(-0.0438628 -0.218933 0.931113)
(-0.0790565 -0.269235 0.746969)
(-0.0177342 -0.114145 0.1865)
(0.012593 -0.00568627 -0.120052)
(0.12126 -0.0295548 -0.165946)
(-0.10907 0.270868 1.29575)
(-0.171204 0.0261266 1.73627)
(-0.149576 -0.178551 1.7036)
(-0.041956 -0.111577 1.60598)
(0.0315606 0.112279 0.209488)
(0.314363 -0.0687622 2.04694)
(0.201754 0.0191166 2.45421)
(0.120531 -0.0510929 2.38776)
(0.113231 -0.225193 2.58462)
(0.474388 0.3119 2.68954)
(0.40464 0.0192348 2.88642)
(0.377987 -0.140064 2.87136)
(-0.273756 -0.110982 0.290162)
(-0.365838 0.303409 0.453102)
(-0.101502 -0.23272 0.307436)
(-0.0822004 -0.431618 0.405508)
(-0.115604 -0.25905 0.323129)
(0.0938406 0.00570794 0.299281)
(-0.0908174 -0.482709 0.2789)
(-0.0676899 -0.54309 0.830442)
(-0.00902461 -0.506332 0.744171)
(-0.0178595 -0.252588 0.256952)
(-0.0148893 -0.118707 -0.0618919)
(-0.0864487 -0.259661 -0.0873415)
(-0.33599 -0.239261 1.178)
(-0.290089 -0.253739 1.65545)
(-0.132655 -0.467385 1.6056)
(-0.137526 -0.367777 1.54061)
(-0.268346 -0.139348 0.19587)
(-0.136069 -0.137009 1.95637)
(-0.0544261 -0.161278 2.48386)
(0.0664188 -0.217166 2.42829)
(0.119925 -0.30206 2.4343)
(0.0438032 0.181483 2.54815)
(0.262528 -0.0351673 2.8877)
(0.430166 -0.204883 2.87411)
(-0.333188 -0.124808 0.54046)
(-0.382147 0.316406 0.600957)
(-0.138733 -0.253538 0.47507)
(-0.127636 -0.512383 0.542227)
(-0.155502 -0.343513 0.531077)
(0.0633468 0.00241881 0.449037)
(-0.0886994 -0.598389 0.375686)
(-0.0367991 -0.746538 0.76424)
(0.0477705 -0.710607 0.804459)
(-0.024695 -0.403316 0.467817)
(-0.0346599 -0.180336 0.137038)
(-0.144504 -0.410692 0.114595)
(-0.411882 -0.656956 0.931027)
(-0.238407 -0.719007 1.38574)
(0.0984627 -0.770661 1.42746)
(-0.000632632 -0.648214 1.31722)
(-0.457539 -0.378892 0.32579)
(-0.527286 -0.33177 1.64393)
(-0.182087 -0.463791 2.21998)
(0.0248374 -0.299442 2.27462)
(0.181078 -0.333095 2.32444)
(-0.0628808 0.15993 2.22106)
(0.230225 -0.070666 2.64584)
(0.389485 -0.207372 2.65342)
(-0.387013 -0.125986 0.819724)
(-0.378398 0.325033 0.771806)
(-0.170411 -0.2201 0.664496)
(-0.163415 -0.52405 0.724745)
(-0.213051 -0.429161 0.791312)
(0.0473252 0.0427031 0.620995)
(-0.0151405 -0.575545 0.534101)
(-0.0151124 -0.750905 0.770991)
(0.0293246 -0.789768 0.917975)
(-0.0649807 -0.511051 0.770031)
(-0.0386936 -0.177762 0.351423)
(-0.0873925 -0.411788 0.368145)
(-0.32664 -0.772889 0.82199)
(-0.116052 -0.819019 1.08454)
(0.199024 -0.892084 1.25693)
(0.195012 -0.809299 1.23114)
(-0.450476 -0.479151 0.535878)
(-0.554246 -0.549196 1.29805)
(-0.197906 -0.644013 1.54627)
(0.176733 -0.755095 1.95463)
(0.300444 -0.5499 2.15032)
(-0.43795 -0.23447 1.91546)
(-0.0665692 -0.28432 1.99157)
(0.540188 -0.339846 2.24954)
(-0.422374 -0.117233 1.07383)