/*--------------------------------*- C++ -*----------------------------------*\
| =========                 |                                                 |
| \\      /  F ield         | OpenFOAM: The Open Source CFD Toolbox           |
|  \\    /   O peration     | Version:  5.x                                   |
|   \\  /    A nd           | Web:      www.OpenFOAM.org                      |
|    \\/     M anipulation  |                                                 |
\*---------------------------------------------------------------------------*/
FoamFile
{
    version     2.0;
    format      ascii;
    class       volVectorField;
    location    "1.25";
    object      Us;
}
// * * * * * * * * * * * * * * * * * * * * * * * * * * * * * * * * * * * * * //

dimensions      [0 1 -1 0 0 0 0];

internalField   nonuniform List<vector> 
10571
(
(0.0721793 0.0230377 -0.0896577)
(-0.0158406 0.0612642 -0.0541268)
(0.0963649 0.103503 -0.0527085)
(0.0385908 0.199367 0.0662452)
(0.0106068 0.0492178 0.0563119)
(0.0292229 0.0360012 0.108522)
(0.182164 0.172047 0.0763668)
(-0.0106437 0.276597 0.131977)
(-0.117377 0.109147 0.121487)
(-0.0322134 0.106044 -0.0764506)
(0.0297989 0.122979 0.0977804)
(0.192402 0.164077 -0.011601)
(0.253612 0.192937 0.140586)
(0.181663 0.212516 0.133027)
(-0.162345 0.260798 0.208074)
(-0.117042 0.186346 -0.0486396)
(0.187039 0.183094 -0.0312561)
(0.178421 0.318547 0.220059)
(0.167676 0.30669 0.208172)
(-0.130911 0.290403 0.182076)
(-0.151814 0.240021 -0.00323663)
(0.208894 0.243875 0.122364)
(0.00922298 0.10759 0.094178)
(-0.0784311 0.0629444 0.0452158)
(0.0310198 0.0135799 -0.13343)
(-0.0205238 0.0766538 -0.197064)
(-0.0313342 0.125253 -0.0300116)
(0.120696 0.144461 0.0895726)
(0.0900909 0.101538 0.0238788)
(-0.0221156 0.173137 0.136271)
(0.0222468 0.0818454 0.0571715)
(0.195428 0.128318 0.172352)
(0.0593629 0.106968 -0.032464)
(0.0347096 0.112906 -0.218096)
(0.0167538 0.0289132 -0.168546)
(0.035829 0.173383 -0.0710377)
(0.0624554 0.170072 0.142095)
(0.140446 0.264156 0.166284)
(0.0983533 0.207449 0.0640999)
(-0.0948853 0.129237 -0.233354)
(0.0212549 -0.0055687 -0.235141)
(0.215715 0.251307 0.228155)
(0.0419586 0.309881 0.150304)
(0.0146496 0.318442 0.0831577)
(-0.0402445 0.0457415 -0.207341)
(0.198137 0.137186 -0.0355596)
(0.266662 0.0350226 -0.126401)
(0 0 0)
(0.0158419 0.0278918 -0.288365)
(-0.00253581 -0.0101867 -0.56086)
(-0.0893157 -0.0325008 -0.0447074)
(0.105599 -0.0548536 0.167038)
(0.0349014 0.106276 -0.0945062)
(-0.065939 0.0489839 -0.156325)
(0.0193419 -0.113882 0.062957)
(0.0948449 -0.0856769 0.147671)
(0.0887076 0.0214122 0.0130585)
(0.0198688 0.0954433 -0.316822)
(-0.0123654 0.0125724 -0.356192)
(0.0112951 0.0055926 -0.226733)
(0.0364528 -0.1287 -0.0733201)
(0.0204469 -0.152495 -0.0604862)
(0.0526103 -0.102295 -0.0746477)
(-0.0349841 0.0400914 -0.269645)
(0.0521034 0.0544009 -0.339308)
(0.0784301 0.00830756 -0.0421078)
(0.0771326 -0.0430823 -0.0408366)
(-0.106055 0.0702891 0.0727802)
(0.0477974 -0.0742403 -0.220663)
(0.0593503 0.0126116 -0.354779)
(0.206951 0.0131255 0.0106141)
(-0.107459 0.0538103 0.0435593)
(0.0463795 0.00512902 -0.623686)
(-0.0152372 -0.0406812 -0.435928)
(-0.0529401 -0.116166 -0.160143)
(0.0952189 -0.169874 0.102008)
(0.0443711 0.0375413 -0.563621)
(-0.094427 0.0713078 -0.211027)
(0.087698 -0.176243 -0.0268508)
(0.0607826 -0.145249 0.0974848)
(0.0657413 -0.0813304 -0.0950449)
(0.0377817 0.117123 -0.418345)
(-0.000531992 0.0250582 -0.374095)
(-0.0220543 -0.0648681 -0.134257)
(0.0695359 -0.167255 -0.125389)
(0.0634705 -0.21 -0.0918838)
(0.0753439 -0.132817 -0.13868)
(0.061438 -0.0725991 -0.263872)
(0.0528888 0.0533293 -0.365527)
(0.0172269 -0.107645 -0.0892595)
(0.0421518 -0.0954728 0.138655)
(0.116705 -0.0940271 0.0465945)
(0.0868562 -0.120704 -0.183628)
(0.0919884 0.0173766 -0.342711)
(0.11673 0.014676 0.0932687)
(-0.0383105 0.0349153 0.190877)
(0.0502209 0.00632724 -0.545834)
(0.0147712 -0.0279627 -0.459755)
(0.0125494 -0.0350211 -0.288151)
(0.0413005 -0.0350529 -0.138434)
(0.0736205 -0.0211828 -0.404098)
(-0.103087 0.0074255 -0.211245)
(0.0378292 -0.128698 -0.0681778)
(-0.0150831 -0.215313 0.0401343)
(0.104623 -0.0131863 -0.212097)
(0.0689477 0.117393 -0.434675)
(-0.00213697 0.0126975 -0.34568)
(-0.0577863 -0.0436078 -0.102329)
(0.0818947 -0.12615 -0.0622664)
(0.0542404 -0.174633 -0.0207964)
(0.0741979 -0.0525296 -0.147407)
(-0.0690507 -0.0195405 -0.301091)
(0.050409 0.0661119 -0.38158)
(0.01963 -0.129756 -0.0475948)
(0.0584385 -0.110224 0.0576987)
(0.135603 -0.0905404 0.0181759)
(0.101734 -0.171702 -0.163883)
(0.12254 0.0347485 -0.318774)
(0.0703525 -0.107831 0.00955625)
(-0.0568609 0.0218807 0.363939)
(0.0603746 -0.0210241 -0.475857)
(0.00445605 -0.0251301 -0.412081)
(-0.0775257 -0.0787079 -0.116404)
(-0.022908 -0.089113 -0.0853314)
(0.0472986 0.104451 -0.44758)
(-0.119049 -0.0402629 -0.165968)
(-0.0549813 -0.00412931 -0.0808951)
(-0.00401408 -0.123631 0.0148849)
(0.13624 0.0356197 -0.185774)
(0.0418979 0.10221 -0.262806)
(-0.00811712 0.00848607 -0.00589747)
(-0.0106254 -0.00814116 -0.289071)
(-0.151217 0.0116191 -0.0692681)
(0.0220946 -0.00060087 -0.0739255)
(0.0185539 -0.0465494 -0.0774674)
(0.0743645 -0.01579 -0.133244)
(-0.10605 -0.027021 -0.173543)
(-0.00850982 -0.00145039 -0.00311893)
(0.0252478 0.0945744 -0.336904)
(0.0333646 0.0620296 -0.148131)
(0.067946 -0.00393448 -0.0235558)
(0.110892 0.0355842 -0.0755837)
(-0.0354863 -0.0760811 -0.220917)
(0.0911194 0.0291457 -0.28637)
(0.0593548 -0.102494 0.166076)
(0.0663879 -0.02855 0.29678)
(0.0493503 -0.138315 -0.461678)
(0.0426586 -0.0447058 -0.409971)
(0.0175531 -0.0440684 -0.236212)
(0.0857872 -0.0586676 0.0174411)
(0.119769 -0.00769383 -0.32687)
(-0.00142347 -0.00090788 -0.349162)
(-0.0487225 0.021794 -0.191944)
(0.0262539 -0.0291607 0.11012)
(0.164448 0.0207049 -0.162274)
(0.231906 0.0194922 -0.263042)
(0.22933 0.0182482 -0.185843)
(-0.00683597 -0.0286436 -0.205281)
(-0.140586 0.0518316 -0.215355)
(-0.0185135 0.113755 -0.285259)
(0.0595864 0.128183 -0.246914)
(0.0466747 -0.0362504 -0.15405)
(0.108313 -0.14629 -0.0783416)
(0.193356 0.0211564 -0.139369)
(-0.0321932 0.100882 -0.227513)
(0.0212031 0.175851 -0.293749)
(0.0859147 0.0718816 -0.0647438)
(0.18248 -0.0583412 -0.0836985)
(0.0292217 -0.0804408 -0.121017)
(0.209571 -0.0704364 -0.104873)
(0.0809078 0.111275 -0.22958)
(0.0567027 0.0847292 0.0967733)
(0.139407 -0.0733684 0.533759)
(0.044571 -0.0515252 -0.241161)
(0.0346826 -0.0366944 -0.407387)
(0.017887 -0.0338597 -0.265373)
(0.0242905 -0.0202584 -0.151783)
(0.134386 -0.0207305 -0.232245)
(0.0378711 -0.00624668 -0.336666)
(-0.0311928 0.0444654 -0.169963)
(0.0427529 0.0183513 0.00735078)
(0.139555 0.0369437 -0.132945)
(0.203372 0.0143796 -0.219557)
(0.254177 0.0110836 -0.236109)
(-0.00195515 -0.0925623 -0.216426)
(-0.00347847 0.0739565 -0.379158)
(-0.0442939 0.112421 -0.234185)
(0.0447356 0.158556 -0.106398)
(0.137584 0.118891 -0.0923905)
(0.200575 0.0851303 -0.129876)
(0.32063 0.084583 -0.149045)
(0.058406 0.0278673 -0.257257)
(0.00201264 0.171045 -0.259165)
(0.0556311 0.217368 -0.129361)
(0.13649 0.144265 -0.114468)
(-0.0158495 -0.0186951 -0.160439)
(0.265769 0.0875938 -0.116607)
(0.142815 0.0582659 -0.162162)
(-0.017859 0.0894006 0.139352)
(0.093436 -0.0266305 0.221328)
(0 0 0)
(0.0531063 -0.000619608 -0.405545)
(0.00209125 -0.034146 -0.271709)
(0.0502755 -0.0378024 -0.182592)
(0.134153 -0.02927 -0.251082)
(0.0321407 6.25749e-05 -0.290167)
(-0.0158919 0.0356762 -0.138048)
(0.0461853 0.03207 -0.0314676)
(0.115192 0.0505994 -0.108081)
(0 0 0)
(0 0 0)
(0 0 0)
(0.0515749 0.0789246 -0.289557)
(-0.0509261 0.0840516 -0.11384)
(0.0509916 0.127046 -0.0879828)
(0.12251 0.124897 -0.0927466)
(0.206541 0.0926168 -0.108114)
(0 0 0)
(-0.00354656 0.105968 -0.349854)
(0.0249111 0.137622 -0.166266)
(0.0522833 0.220614 -0.0894752)
(0.134188 0.219087 -0.0887148)
(0.108084 0.11665 -0.000485054)
(0 0 0)
(0.00351066 0.320473 0.059942)
(0.0555741 0.141848 0.0644651)
(-0.0137647 -0.027542 -0.677778)
(0 0 0)
(-0.0436152 0.0191286 -0.677769)
(0.011666 -0.117856 -0.00308071)
(0 0 0)
(0 0 0)
(-0.00849669 0.0772689 -0.587526)
(0.0993893 0.0663813 -0.134047)
(0.191371 0.0721225 -0.17665)
(0 0 0)
(0 0 0)
(0 0 0)
(0.00892204 0.110388 -0.679303)
(1.86086e-15 1.27073e-14 -7.30931e-14)
(0 0 0)
(0 0 0)
(0 0 0)
(0.116755 -0.0868958 -0.250162)
(0 0 0)
(0 0 0)
(0.188217 0.206879 0.0459989)
(0 0 0)
(0 0 0)
(0 0 0)
(0 0 0)
(0 0 0)
(0 0 0)
(-0.0131174 -0.00816159 -0.555904)
(0 0 0)
(-0.057794 0.0802271 -0.736337)
(-0.0180182 0.0684899 -0.628745)
(0.0153244 0.0644566 -0.58537)
(0 0 0)
(0 0 0)
(0 0 0)
(0 0 0)
(-0.0085304 0.121775 -0.682316)
(0.0176564 0.0961874 -0.641488)
(0 0 0)
(0 0 0)
(0 0 0)
(0 0 0)
(0 0 0)
(0 0 0)
(0 0 0)
(0 0 0)
(0 0 0)
(0 0 0)
(0 0 0)
(0 0 0)
(0 0 0)
(-0.015686 -0.00938113 -0.555358)
(0 0 0)
(0 0 0)
(-0.00493911 0.0570632 -0.561018)
(0.0127681 0.0380012 -0.506344)
(0 0 0)
(0 0 0)
(0 0 0)
(0 0 0)
(0 0 0)
(0 0 0)
(0 0 0)
(0 0 0)
(0 0 0)
(0 0 0)
(0 0 0)
(0 0 0)
(0 0 0)
(0 0 0)
(0 0 0)
(0 0 0)
(0 0 0)
(0 0 0)
(0 0 0)
(-1.83249e-15 -4.17394e-16 -5.94026e-14)
(0 0 0)
(0 0 0)
(0 0 0)
(0 0 0)
(0 0 0)
(0 0 0)
(0 0 0)
(0 0 0)
(0 0 0)
(0 0 0)
(0 0 0)
(0 0 0)
(0 0 0)
(0 0 0)
(0 0 0)
(0 0 0)
(0 0 0)
(0 0 0)
(0 0 0)
(0 0 0)
(0 0 0)
(0 0 0)
(0 0 0)
(0 0 0)
(0 0 0)
(0 0 0)
(0 0 0)
(0 0 0)
(0 0 0)
(0 0 0)
(0 0 0)
(0 0 0)
(0 0 0)
(0 0 0)
(0 0 0)
(0 0 0)
(0 0 0)
(0 0 0)
(0 0 0)
(0 0 0)
(0 0 0)
(0 0 0)
(0 0 0)
(0 0 0)
(0 0 0)
(0 0 0)
(0 0 0)
(0 0 0)
(0 0 0)
(0 0 0)
(0 0 0)
(0 0 0)
(0 0 0)
(0 0 0)
(0 0 0)
(0 0 0)
(0 0 0)
(0 0 0)
(0 0 0)
(0 0 0)
(0 0 0)
(0 0 0)
(0 0 0)
(0 0 0)
(0 0 0)
(0 0 0)
(0 0 0)
(0 0 0)
(0 0 0)
(0 0 0)
(0 0 0)
(0 0 0)
(0 0 0)
(0 0 0)
(0 0 0)
(0 0 0)
(0 0 0)
(0 0 0)
(0 0 0)
(0 0 0)
(0 0 0)
(0 0 0)
(0 0 0)
(0 0 0)
(0 0 0)
(0 0 0)
(0 0 0)
(0 0 0)
(0 0 0)
(0 0 0)
(0 0 0)
(0 0 0)
(0 0 0)
(0 0 0)
(0 0 0)
(0 0 0)
(0 0 0)
(0 0 0)
(0 0 0)
(0 0 0)
(0 0 0)
(0 0 0)
(0 0 0)
(0 0 0)
(0 0 0)
(0 0 0)
(0 0 0)
(0 0 0)
(0 0 0)
(0 0 0)
(0 0 0)
(0 0 0)
(0 0 0)
(0 0 0)
(0 0 0)
(0 0 0)
(0 0 0)
(0 0 0)
(0 0 0)
(0 0 0)
(0 0 0)
(0 0 0)
(0 0 0)
(0 0 0)
(0 0 0)
(0 0 0)
(0 0 0)
(0 0 0)
(0 0 0)
(0 0 0)
(0 0 0)
(0 0 0)
(0 0 0)
(0 0 0)
(0 0 0)
(0 0 0)
(0 0 0)
(0 0 0)
(0 0 0)
(0 0 0)
(0 0 0)
(0 0 0)
(0 0 0)
(0 0 0)
(0 0 0)
(0 0 0)
(0 0 0)
(0 0 0)
(0 0 0)
(0 0 0)
(0 0 0)
(0 0 0)
(0 0 0)
(0 0 0)
(0 0 0)
(0 0 0)
(0 0 0)
(0 0 0)
(0 0 0)
(0 0 0)
(0 0 0)
(0 0 0)
(0 0 0)
(0 0 0)
(0 0 0)
(0 0 0)
(0 0 0)
(0 0 0)
(0 0 0)
(0 0 0)
(0 0 0)
(0 0 0)
(0 0 0)
(0 0 0)
(0 0 0)
(0 0 0)
(0 0 0)
(0 0 0)
(0 0 0)
(0 0 0)
(0 0 0)
(0 0 0)
(0 0 0)
(0 0 0)
(0 0 0)
(0 0 0)
(0 0 0)
(0 0 0)
(0 0 0)
(0 0 0)
(0 0 0)
(0 0 0)
(0 0 0)
(0 0 0)
(0 0 0)
(0 0 0)
(0 0 0)
(0 0 0)
(0 0 0)
(0 0 0)
(0 0 0)
(0 0 0)
(0 0 0)
(0 0 0)
(0 0 0)
(0 0 0)
(0 0 0)
(0 0 0)
(0 0 0)
(0 0 0)
(0 0 0)
(0 0 0)
(0 0 0)
(0 0 0)
(0 0 0)
(0 0 0)
(0 0 0)
(0 0 0)
(0 0 0)
(0 0 0)
(0 0 0)
(0 0 0)
(0 0 0)
(0 0 0)
(0 0 0)
(0 0 0)
(0 0 0)
(0 0 0)
(0 0 0)
(0 0 0)
(0 0 0)
(0 0 0)
(0 0 0)
(0 0 0)
(0 0 0)
(0 0 0)
(0 0 0)
(0 0 0)
(0 0 0)
(0 0 0)
(0 0 0)
(0 0 0)
(0 0 0)
(0 0 0)
(0 0 0)
(0 0 0)
(0 0 0)
(0 0 0)
(0 0 0)
(0 0 0)
(0 0 0)
(0 0 0)
(0 0 0)
(0 0 0)
(0 0 0)
(0 0 0)
(0 0 0)
(0 0 0)
(0 0 0)
(0 0 0)
(0 0 0)
(0 0 0)
(0 0 0)
(0 0 0)
(0 0 0)
(0 0 0)
(0 0 0)
(0 0 0)
(0 0 0)
(0 0 0)
(0 0 0)
(0 0 0)
(0 0 0)
(0 0 0)
(0 0 0)
(0 0 0)
(0 0 0)
(0 0 0)
(0 0 0)
(0 0 0)
(0 0 0)
(0 0 0)
(0 0 0)
(0 0 0)
(0 0 0)
(0 0 0)
(0 0 0)
(0 0 0)
(0 0 0)
(0 0 0)
(0 0 0)
(0 0 0)
(0 0 0)
(0 0 0)
(0 0 0)
(0 0 0)
(0 0 0)
(0 0 0)
(0 0 0)
(0 0 0)
(0 0 0)
(0 0 0)
(0 0 0)
(0 0 0)
(0 0 0)
(0 0 0)
(0 0 0)
(0 0 0)
(0 0 0)
(0 0 0)
(0 0 0)
(0 0 0)
(0 0 0)
(0 0 0)
(0 0 0)
(0 0 0)
(0 0 0)
(0 0 0)
(0 0 0)
(0 0 0)
(0 0 0)
(0 0 0)
(0 0 0)
(0 0 0)
(0 0 0)
(0 0 0)
(0 0 0)
(0 0 0)
(0 0 0)
(0 0 0)
(0 0 0)
(0 0 0)
(0 0 0)
(0 0 0)
(0 0 0)
(0 0 0)
(0 0 0)
(0 0 0)
(0 0 0)
(0 0 0)
(0 0 0)
(0 0 0)
(0 0 0)
(0 0 0)
(0 0 0)
(0 0 0)
(0 0 0)
(0 0 0)
(0 0 0)
(0 0 0)
(0 0 0)
(0 0 0)
(0 0 0)
(0 0 0)
(0 0 0)
(0 0 0)
(0 0 0)
(0 0 0)
(0 0 0)
(0 0 0)
(0 0 0)
(0 0 0)
(0 0 0)
(0 0 0)
(0 0 0)
(0 0 0)
(0 0 0)
(0 0 0)
(0 0 0)
(0 0 0)
(0 0 0)
(0 0 0)
(0 0 0)
(0 0 0)
(0 0 0)
(0 0 0)
(0 0 0)
(0 0 0)
(0 0 0)
(0 0 0)
(0 0 0)
(0 0 0)
(0 0 0)
(0 0 0)
(0 0 0)
(0 0 0)
(0 0 0)
(0 0 0)
(0 0 0)
(0 0 0)
(0 0 0)
(0 0 0)
(0 0 0)
(0 0 0)
(0 0 0)
(0 0 0)
(0 0 0)
(0 0 0)
(0 0 0)
(0 0 0)
(0 0 0)
(0 0 0)
(0 0 0)
(0 0 0)
(0 0 0)
(0 0 0)
(0 0 0)
(0 0 0)
(0 0 0)
(0 0 0)
(0 0 0)
(0 0 0)
(0 0 0)
(0 0 0)
(0 0 0)
(0 0 0)
(0 0 0)
(0 0 0)
(0 0 0)
(0 0 0)
(0 0 0)
(0 0 0)
(0 0 0)
(0 0 0)
(0 0 0)
(0 0 0)
(0 0 0)
(0 0 0)
(0 0 0)
(0 0 0)
(0 0 0)
(0 0 0)
(0 0 0)
(0 0 0)
(0 0 0)
(0 0 0)
(0 0 0)
(0 0 0)
(0 0 0)
(0 0 0)
(0 0 0)
(0 0 0)
(0 0 0)
(0 0 0)
(0 0 0)
(0 0 0)
(0 0 0)
(0 0 0)
(0 0 0)
(0 0 0)
(0 0 0)
(0 0 0)
(0 0 0)
(0 0 0)
(0 0 0)
(0 0 0)
(0 0 0)
(0 0 0)
(0 0 0)
(0 0 0)
(0 0 0)
(0 0 0)
(0 0 0)
(0 0 0)
(0 0 0)
(0 0 0)
(0 0 0)
(0 0 0)
(0 0 0)
(0 0 0)
(0 0 0)
(0 0 0)
(0 0 0)
(0 0 0)
(0 0 0)
(0 0 0)
(0 0 0)
(0 0 0)
(0 0 0)
(0 0 0)
(0 0 0)
(0 0 0)
(0 0 0)
(0 0 0)
(0 0 0)
(0 0 0)
(0 0 0)
(0 0 0)
(0 0 0)
(0 0 0)
(0 0 0)
(0 0 0)
(0 0 0)
(0 0 0)
(0 0 0)
(0 0 0)
(0 0 0)
(0 0 0)
(0 0 0)
(0 0 0)
(0 0 0)
(0 0 0)
(0 0 0)
(0 0 0)
(0 0 0)
(0 0 0)
(0 0 0)
(0 0 0)
(0 0 0)
(0 0 0)
(0 0 0)
(0 0 0)
(0 0 0)
(0 0 0)
(0 0 0)
(0 0 0)
(0 0 0)
(0 0 0)
(0 0 0)
(0 0 0)
(0 0 0)
(0 0 0)
(0 0 0)
(0 0 0)
(0 0 0)
(0 0 0)
(0 0 0)
(0 0 0)
(0 0 0)
(0 0 0)
(0 0 0)
(0 0 0)
(0 0 0)
(0 0 0)
(0 0 0)
(0 0 0)
(0 0 0)
(0 0 0)
(0 0 0)
(0 0 0)
(0 0 0)
(0 0 0)
(0 0 0)
(0 0 0)
(0 0 0)
(0 0 0)
(0 0 0)
(0 0 0)
(0 0 0)
(0 0 0)
(0 0 0)
(0 0 0)
(0 0 0)
(0 0 0)
(0 0 0)
(0 0 0)
(0 0 0)
(0 0 0)
(0 0 0)
(0 0 0)
(0 0 0)
(0 0 0)
(0 0 0)
(0 0 0)
(0 0 0)
(0 0 0)
(0 0 0)
(0 0 0)
(0 0 0)
(0 0 0)
(0 0 0)
(0 0 0)
(0 0 0)
(0 0 0)
(0 0 0)
(0 0 0)
(0 0 0)
(0 0 0)
(0 0 0)
(0 0 0)
(0 0 0)
(0 0 0)
(0 0 0)
(0 0 0)
(0 0 0)
(0 0 0)
(0 0 0)
(0 0 0)
(0 0 0)
(0 0 0)
(0 0 0)
(0 0 0)
(0 0 0)
(0 0 0)
(0 0 0)
(0 0 0)
(0 0 0)
(0 0 0)
(0 0 0)
(0 0 0)
(0 0 0)
(0 0 0)
(0 0 0)
(0 0 0)
(0 0 0)
(0 0 0)
(0 0 0)
(0 0 0)
(0 0 0)
(0 0 0)
(0 0 0)
(0 0 0)
(0 0 0)
(0 0 0)
(0 0 0)
(0 0 0)
(0 0 0)
(0 0 0)
(0 0 0)
(0 0 0)
(0 0 0)
(0 0 0)
(0 0 0)
(0 0 0)
(0 0 0)
(0 0 0)
(0 0 0)
(0 0 0)
(0 0 0)
(0 0 0)
(0 0 0)
(0 0 0)
(0 0 0)
(0 0 0)
(0 0 0)
(0 0 0)
(0 0 0)
(0 0 0)
(0 0 0)
(0 0 0)
(0 0 0)
(0 0 0)
(0 0 0)
(0 0 0)
(0 0 0)
(0 0 0)
(0 0 0)
(0 0 0)
(0 0 0)
(0 0 0)
(0 0 0)
(0 0 0)
(0 0 0)
(0 0 0)
(0 0 0)
(0 0 0)
(0 0 0)
(0 0 0)
(0 0 0)
(0 0 0)
(0 0 0)
(0 0 0)
(0 0 0)
(0 0 0)
(0 0 0)
(0 0 0)
(0 0 0)
(0 0 0)
(0 0 0)
(0 0 0)
(0 0 0)
(0 0 0)
(0 0 0)
(0 0 0)
(0 0 0)
(0 0 0)
(0 0 0)
(0 0 0)
(0 0 0)
(0 0 0)
(0 0 0)
(0 0 0)
(0 0 0)
(0 0 0)
(0 0 0)
(0 0 0)
(0 0 0)
(0 0 0)
(0 0 0)
(0 0 0)
(0 0 0)
(0 0 0)
(0 0 0)
(0 0 0)
(0 0 0)
(0 0 0)
(0 0 0)
(0 0 0)
(0 0 0)
(0 0 0)
(0 0 0)
(0 0 0)
(0 0 0)
(0 0 0)
(0 0 0)
(0 0 0)
(0 0 0)
(0 0 0)
(0 0 0)
(0 0 0)
(0 0 0)
(0 0 0)
(0 0 0)
(0 0 0)
(0 0 0)
(0 0 0)
(0 0 0)
(0 0 0)
(0 0 0)
(0 0 0)
(0 0 0)
(0 0 0)
(0 0 0)
(0 0 0)
(0 0 0)
(0 0 0)
(0 0 0)
(0 0 0)
(0 0 0)
(0 0 0)
(0 0 0)
(0 0 0)
(0 0 0)
(0 0 0)
(0 0 0)
(0 0 0)
(0 0 0)
(0 0 0)
(0 0 0)
(0 0 0)
(0 0 0)
(0 0 0)
(0 0 0)
(0 0 0)
(0 0 0)
(0 0 0)
(0 0 0)
(0 0 0)
(0 0 0)
(0 0 0)
(0 0 0)
(0 0 0)
(0 0 0)
(0 0 0)
(0 0 0)
(0 0 0)
(0 0 0)
(0 0 0)
(0 0 0)
(0 0 0)
(0 0 0)
(0 0 0)
(0 0 0)
(0 0 0)
(0 0 0)
(0 0 0)
(0 0 0)
(0 0 0)
(0 0 0)
(0 0 0)
(0 0 0)
(0 0 0)
(0 0 0)
(0 0 0)
(0 0 0)
(0 0 0)
(0 0 0)
(0 0 0)
(0 0 0)
(0 0 0)
(0 0 0)
(0 0 0)
(0 0 0)
(0 0 0)
(0 0 0)
(0 0 0)
(0 0 0)
(0 0 0)
(0 0 0)
(0 0 0)
(0 0 0)
(0 0 0)
(0 0 0)
(0 0 0)
(0 0 0)
(0 0 0)
(0 0 0)
(0 0 0)
(0 0 0)
(0 0 0)
(0 0 0)
(0 0 0)
(0 0 0)
(0 0 0)
(0 0 0)
(0 0 0)
(0 0 0)
(0 0 0)
(0 0 0)
(0 0 0)
(0 0 0)
(0 0 0)
(0 0 0)
(0 0 0)
(0 0 0)
(0 0 0)
(0 0 0)
(0 0 0)
(0 0 0)
(0 0 0)
(0 0 0)
(0 0 0)
(0 0 0)
(0 0 0)
(0 0 0)
(0 0 0)
(0 0 0)
(0 0 0)
(0 0 0)
(0 0 0)
(0 0 0)
(0 0 0)
(0 0 0)
(0 0 0)
(0 0 0)
(0 0 0)
(0 0 0)
(0 0 0)
(0 0 0)
(0 0 0)
(0 0 0)
(0 0 0)
(0 0 0)
(0 0 0)
(0 0 0)
(0 0 0)
(0 0 0)
(0 0 0)
(0 0 0)
(0 0 0)
(0 0 0)
(0 0 0)
(0 0 0)
(0 0 0)
(0 0 0)
(0 0 0)
(0 0 0)
(0 0 0)
(0 0 0)
(0 0 0)
(0 0 0)
(0 0 0)
(0 0 0)
(0 0 0)
(0 0 0)
(0 0 0)
(0 0 0)
(0 0 0)
(0 0 0)
(0 0 0)
(0 0 0)
(0 0 0)
(0 0 0)
(0 0 0)
(0 0 0)
(0 0 0)
(0 0 0)
(0 0 0)
(0 0 0)
(0 0 0)
(0 0 0)
(0 0 0)
(0 0 0)
(0 0 0)
(0 0 0)
(0 0 0)
(0 0 0)
(0 0 0)
(0 0 0)
(0 0 0)
(0 0 0)
(0 0 0)
(0 0 0)
(0 0 0)
(0 0 0)
(0 0 0)
(0 0 0)
(0 0 0)
(0 0 0)
(0 0 0)
(0 0 0)
(0 0 0)
(0 0 0)
(0 0 0)
(0 0 0)
(0 0 0)
(0 0 0)
(0 0 0)
(0 0 0)
(0 0 0)
(0 0 0)
(0 0 0)
(0 0 0)
(0 0 0)
(0 0 0)
(0 0 0)
(0 0 0)
(0 0 0)
(0 0 0)
(0 0 0)
(0 0 0)
(0 0 0)
(0 0 0)
(0 0 0)
(0 0 0)
(0 0 0)
(0 0 0)
(0 0 0)
(0 0 0)
(0 0 0)
(0 0 0)
(0 0 0)
(0 0 0)
(0 0 0)
(0 0 0)
(0 0 0)
(0 0 0)
(0 0 0)
(0 0 0)
(0 0 0)
(0 0 0)
(0 0 0)
(0 0 0)
(0 0 0)
(0 0 0)
(0 0 0)
(0 0 0)
(0 0 0)
(0 0 0)
(0 0 0)
(0 0 0)
(0 0 0)
(0 0 0)
(0 0 0)
(0 0 0)
(0 0 0)
(0 0 0)
(0 0 0)
(0 0 0)
(0 0 0)
(0 0 0)
(0 0 0)
(0 0 0)
(0 0 0)
(0 0 0)
(0 0 0)
(0 0 0)
(0 0 0)
(0 0 0)
(0 0 0)
(0 0 0)
(0 0 0)
(0 0 0)
(0 0 0)
(0 0 0)
(0 0 0)
(0 0 0)
(0 0 0)
(0 0 0)
(0 0 0)
(0 0 0)
(0 0 0)
(0 0 0)
(0 0 0)
(0 0 0)
(0 0 0)
(0 0 0)
(0 0 0)
(0 0 0)
(0 0 0)
(0 0 0)
(0 0 0)
(0 0 0)
(0 0 0)
(0 0 0)
(0 0 0)
(0 0 0)
(0 0 0)
(0 0 0)
(0 0 0)
(0 0 0)
(0 0 0)
(0 0 0)
(0 0 0)
(0 0 0)
(0 0 0)
(0 0 0)
(0 0 0)
(0 0 0)
(0 0 0)
(0 0 0)
(0 0 0)
(0 0 0)
(0 0 0)
(0 0 0)
(0 0 0)
(0 0 0)
(0 0 0)
(0 0 0)
(0 0 0)
(0 0 0)
(0 0 0)
(0 0 0)
(0 0 0)
(0 0 0)
(0 0 0)
(0 0 0)
(0 0 0)
(0 0 0)
(0 0 0)
(0 0 0)
(0 0 0)
(0 0 0)
(0 0 0)
(0 0 0)
(0 0 0)
(0 0 0)
(0 0 0)
(0 0 0)
(0 0 0)
(0 0 0)
(0 0 0)
(0 0 0)
(0 0 0)
(0 0 0)
(0 0 0)
(0 0 0)
(0 0 0)
(0 0 0)
(0 0 0)
(0 0 0)
(0 0 0)
(0 0 0)
(0 0 0)
(0 0 0)
(0 0 0)
(0 0 0)
(0 0 0)
(0 0 0)
(0 0 0)
(0 0 0)
(0 0 0)
(0 0 0)
(0 0 0)
(0 0 0)
(0 0 0)
(0 0 0)
(0 0 0)
(0 0 0)
(0 0 0)
(0 0 0)
(0 0 0)
(0 0 0)
(0 0 0)
(0 0 0)
(0 0 0)
(0 0 0)
(0 0 0)
(0 0 0)
(0 0 0)
(0 0 0)
(0 0 0)
(0 0 0)
(0 0 0)
(0 0 0)
(0 0 0)
(0 0 0)
(0 0 0)
(0 0 0)
(0 0 0)
(0 0 0)
(0 0 0)
(0 0 0)
(0 0 0)
(0 0 0)
(0 0 0)
(0 0 0)
(0 0 0)
(0 0 0)
(0 0 0)
(0 0 0)
(0 0 0)
(0 0 0)
(0 0 0)
(0 0 0)
(0 0 0)
(0 0 0)
(0 0 0)
(0 0 0)
(0 0 0)
(0 0 0)
(0 0 0)
(0 0 0)
(0 0 0)
(0 0 0)
(0 0 0)
(0 0 0)
(0 0 0)
(0 0 0)
(0 0 0)
(0 0 0)
(0 0 0)
(0 0 0)
(0 0 0)
(0 0 0)
(0 0 0)
(0 0 0)
(0 0 0)
(0 0 0)
(0 0 0)
(0 0 0)
(0 0 0)
(0 0 0)
(0 0 0)
(0 0 0)
(0 0 0)
(0 0 0)
(0 0 0)
(0 0 0)
(0 0 0)
(0 0 0)
(0 0 0)
(0 0 0)
(0 0 0)
(0 0 0)
(0 0 0)
(0 0 0)
(0 0 0)
(0 0 0)
(0 0 0)
(0 0 0)
(0 0 0)
(0 0 0)
(0 0 0)
(0 0 0)
(0 0 0)
(0 0 0)
(0 0 0)
(0 0 0)
(0 0 0)
(0 0 0)
(0 0 0)
(0 0 0)
(0 0 0)
(0 0 0)
(0 0 0)
(0 0 0)
(0 0 0)
(0 0 0)
(0 0 0)
(0 0 0)
(0 0 0)
(0 0 0)
(0 0 0)
(0 0 0)
(0 0 0)
(0 0 0)
(0 0 0)
(0 0 0)
(0 0 0)
(0 0 0)
(0 0 0)
(0 0 0)
(0 0 0)
(0 0 0)
(0 0 0)
(0 0 0)
(0 0 0)
(0 0 0)
(0 0 0)
(0 0 0)
(0 0 0)
(0 0 0)
(0 0 0)
(0 0 0)
(0 0 0)
(0 0 0)
(0 0 0)
(0 0 0)
(0 0 0)
(0 0 0)
(0 0 0)
(0 0 0)
(0 0 0)
(0 0 0)
(0 0 0)
(0 0 0)
(0 0 0)
(0 0 0)
(0 0 0)
(0 0 0)
(0 0 0)
(0 0 0)
(0 0 0)
(0 0 0)
(0 0 0)
(0 0 0)
(0 0 0)
(0 0 0)
(0 0 0)
(0 0 0)
(0 0 0)
(0 0 0)
(0 0 0)
(0 0 0)
(0 0 0)
(0 0 0)
(0 0 0)
(0 0 0)
(0 0 0)
(0 0 0)
(0 0 0)
(0 0 0)
(0 0 0)
(0 0 0)
(0 0 0)
(0 0 0)
(0 0 0)
(0 0 0)
(0 0 0)
(0 0 0)
(0 0 0)
(0 0 0)
(0 0 0)
(0 0 0)
(0 0 0)
(0 0 0)
(0 0 0)
(0 0 0)
(0 0 0)
(0 0 0)
(0 0 0)
(0 0 0)
(0 0 0)
(0 0 0)
(0 0 0)
(0 0 0)
(0 0 0)
(0 0 0)
(0 0 0)
(0 0 0)
(0 0 0)
(0 0 0)
(0 0 0)
(0 0 0)
(0 0 0)
(0 0 0)
(0 0 0)
(0 0 0)
(0 0 0)
(0 0 0)
(0 0 0)
(0 0 0)
(0 0 0)
(0 0 0)
(0 0 0)
(0 0 0)
(0 0 0)
(0 0 0)
(0 0 0)
(0 0 0)
(0 0 0)
(0 0 0)
(0 0 0)
(0 0 0)
(0 0 0)
(0 0 0)
(0 0 0)
(0 0 0)
(0 0 0)
(0 0 0)
(0 0 0)
(0 0 0)
(0 0 0)
(0 0 0)
(0 0 0)
(0 0 0)
(0 0 0)
(0 0 0)
(0 0 0)
(0 0 0)
(0 0 0)
(0 0 0)
(0 0 0)
(0 0 0)
(0 0 0)
(0 0 0)
(0 0 0)
(0 0 0)
(0 0 0)
(0 0 0)
(0 0 0)
(0 0 0)
(0 0 0)
(0 0 0)
(0 0 0)
(0 0 0)
(0 0 0)
(0 0 0)
(0 0 0)
(0 0 0)
(0 0 0)
(0 0 0)
(0 0 0)
(0 0 0)
(0 0 0)
(0 0 0)
(0 0 0)
(0 0 0)
(0 0 0)
(0 0 0)
(0 0 0)
(0 0 0)
(0 0 0)
(0 0 0)
(0 0 0)
(0 0 0)
(0 0 0)
(0 0 0)
(0 0 0)
(0 0 0)
(0 0 0)
(0 0 0)
(0 0 0)
(0 0 0)
(0 0 0)
(0 0 0)
(0 0 0)
(0 0 0)
(0 0 0)
(0 0 0)
(0 0 0)
(0 0 0)
(0 0 0)
(0 0 0)
(0 0 0)
(0 0 0)
(0 0 0)
(0 0 0)
(0 0 0)
(0 0 0)
(0 0 0)
(0 0 0)
(0 0 0)
(0 0 0)
(0 0 0)
(0 0 0)
(0 0 0)
(0 0 0)
(0 0 0)
(0 0 0)
(0 0 0)
(0 0 0)
(0 0 0)
(0 0 0)
(0 0 0)
(0 0 0)
(0 0 0)
(0 0 0)
(0 0 0)
(0 0 0)
(0 0 0)
(0 0 0)
(0 0 0)
(0 0 0)
(0 0 0)
(0 0 0)
(0 0 0)
(0 0 0)
(0 0 0)
(0 0 0)
(0 0 0)
(0 0 0)
(0 0 0)
(0 0 0)
(0 0 0)
(0 0 0)
(0 0 0)
(0 0 0)
(0 0 0)
(0 0 0)
(0 0 0)
(0 0 0)
(0 0 0)
(0 0 0)
(0 0 0)
(0 0 0)
(0 0 0)
(0 0 0)
(0 0 0)
(0 0 0)
(0 0 0)
(0 0 0)
(0 0 0)
(0 0 0)
(0 0 0)
(0 0 0)
(0 0 0)
(0 0 0)
(0 0 0)
(0 0 0)
(0 0 0)
(0 0 0)
(0 0 0)
(0 0 0)
(0 0 0)
(0 0 0)
(0 0 0)
(0 0 0)
(0 0 0)
(0 0 0)
(0 0 0)
(0 0 0)
(0 0 0)
(0 0 0)
(0 0 0)
(0 0 0)
(0 0 0)
(0 0 0)
(0 0 0)
(0 0 0)
(0 0 0)
(0 0 0)
(0 0 0)
(0 0 0)
(0 0 0)
(0 0 0)
(0 0 0)
(0 0 0)
(0 0 0)
(0 0 0)
(0 0 0)
(0 0 0)
(0 0 0)
(0 0 0)
(0 0 0)
(0 0 0)
(0 0 0)
(0 0 0)
(0 0 0)
(0 0 0)
(0 0 0)
(0 0 0)
(0 0 0)
(0 0 0)
(0 0 0)
(0 0 0)
(0 0 0)
(0 0 0)
(0 0 0)
(0 0 0)
(0 0 0)
(0 0 0)
(0 0 0)
(0 0 0)
(0 0 0)
(0 0 0)
(0 0 0)
(0 0 0)
(0 0 0)
(0 0 0)
(0 0 0)
(0 0 0)
(0 0 0)
(0 0 0)
(0 0 0)
(0 0 0)
(0 0 0)
(0 0 0)
(0 0 0)
(0 0 0)
(0 0 0)
(0 0 0)
(0 0 0)
(0 0 0)
(0 0 0)
(0 0 0)
(0 0 0)
(0 0 0)
(0 0 0)
(0 0 0)
(0 0 0)
(0 0 0)
(0 0 0)
(0 0 0)
(0 0 0)
(0 0 0)
(0 0 0)
(0 0 0)
(0 0 0)
(0 0 0)
(0 0 0)
(0 0 0)
(0 0 0)
(0 0 0)
(0 0 0)
(0 0 0)
(0.0555308 0.0215499 -0.0375332)
(0.00189681 0.025595 -0.0156258)
(0.100213 0.0411019 -0.031675)
(0.0879899 0.0576968 -0.00498781)
(0.00920445 0.02823 -0.0178057)
(0.030092 0.0605095 -0.0136929)
(-0.0267684 0.0303033 -0.0306637)
(-0.0407338 -0.0254081 -0.0243025)
(-0.00493004 0.0512465 -9.70395e-05)
(-0.00153055 0.0291947 -0.00493533)
(0.050237 0.0782276 -0.0274928)
(0.0111886 0.0550861 -0.00432196)
(0.104249 0.155798 -0.00370297)
(0.135181 0.116565 -0.0266503)
(0.137942 0.14147 -0.00956333)
(0.15685 0.187843 -0.0212409)
(0.13471 0.188453 -0.00212393)
(0.00515788 0.123745 -0.0343333)
(-0.106615 -0.0119371 0.00438733)
(-0.096412 0.109916 -0.00626702)
(-0.167154 0.0142537 0.032594)
(-0.0847547 -0.0598288 0.0158481)
(-0.0741628 -0.0530889 0.00582357)
(-0.165656 -0.018515 0.0921661)
(-0.136065 -0.0162524 0.049865)
(-0.0584437 -0.0145682 -0.0180959)
(-0.00295127 0.0123442 -0.00439378)
(-0.00544356 0.00653899 0.00278128)
(-0.00261569 -0.00657624 -0.0242527)
(0.0417403 0.0032186 0.000618913)
(0.156576 0.081637 0.0117628)
(0.123509 0.0156772 -0.0384237)
(0.232644 0.0683134 -0.0296464)
(0.223137 0.170878 -0.00863082)
(0.0597335 0.100782 0.0104792)
(0.213265 0.105636 0.0026429)
(0.0920293 0.0811129 0.00844487)
(-0.0302102 0.0932584 0.00951326)
(-0.147796 0.0706708 0.0620757)
(0.0275738 0.0933076 0.00658505)
(-0.0870174 0.127666 0.0668042)
(-0.140163 0.0940437 0.107736)
(-0.192281 0.0887164 0.0984802)
(-0.121848 0.151894 0.107588)
(-0.188012 0.114693 0.103735)
(-0.0854545 0.0238245 -0.00326627)
(-0.0922611 0.080927 0.02328)
(-0.0167659 0.0646036 0.00329057)
(-0.00189507 0.00605834 -0.00183293)
(0.0142853 0.022876 -0.0170456)
(0.100668 0.105335 -0.0299656)
(0.156279 0.0952923 -0.0348313)
(0.258989 0.155006 -0.00839472)
(0.208713 0.148982 -0.0208762)
(0.301227 0.197741 0.0158787)
(0.176624 0.144884 -0.00735317)
(0.125433 0.129333 -0.0167708)
(0.0938895 0.161017 0.01113)
(0.107788 0.150426 0.00338887)
(0.0601163 0.121116 -0.00537915)
(-0.0685351 0.152276 0.0587052)
(0.100967 0.14261 0.0342008)
(-0.0228892 0.156701 0.0483369)
(-0.151024 0.178256 0.125141)
(-0.20893 0.154103 0.117924)
(-0.114764 0.19766 0.095706)
(-0.200819 0.250045 0.10936)
(-0.106867 0.16391 0.0206219)
(-0.0383819 0.0783486 0.0145719)
(-0.128783 0.233745 0.0204478)
(0.115662 0.114167 -0.024284)
(0.220398 0.186548 -0.00363798)
(0.312524 0.251204 0.038685)
(0.147972 0.137514 0.0161769)
(0.158462 0.165581 0.0480749)
(0.0907008 0.197651 0.0766755)
(0.0614294 0.201784 0.089032)
(0.0832276 0.142404 0.0565877)
(0.0459032 0.126878 0.0555153)
(0.0696232 0.152489 0.0857351)
(0.018936 0.130132 0.0475677)
(0.0257994 0.110674 0.0442676)
(-0.00558063 0.0762424 0.0325117)
(-0.0732815 0.151424 0.0560039)
(-0.150198 0.198598 0.0721387)
(-0.0568359 0.0608738 0.0256731)
(-0.0733824 0.0767741 0.0275698)
(-0.138016 0.202759 0.0266829)
(0.0765865 0.0690993 0.0279819)
(0.0642016 0.0768276 0.0275197)
(0.027991 0.0586362 0.0215132)
(0.00912412 0.0238875 0.0146278)
(-0.00236218 0.0415489 0.0183925)
(-0.0149688 0.0229866 0.0111161)
(0.00171547 0.0116552 0.00977235)
(-0.0207114 0.0198095 0.011308)
(0.0293479 0.0169068 -0.100194)
(-0.0144945 0.0369651 -0.146836)
(0.0655192 0.0219386 -0.0770775)
(0.0620963 0.043524 -0.0660933)
(0.09124 0.0799963 -0.0342226)
(0.0385631 0.0217893 -0.0660279)
(0.00108881 0.0420402 -0.0622656)
(0.0393921 0.0722491 -0.0267054)
(0.0799011 0.0852741 -0.0341693)
(0.0946688 0.0908108 -0.0317164)
(0.0577116 0.0186262 -0.0876722)
(0.0932783 0.0790352 -0.0503066)
(0.118805 0.0800814 -0.0428909)
(0.0675184 0.0514835 -0.016759)
(0.0905435 0.0624991 -0.014516)
(-0.0244797 0.045678 0.0330389)
(-0.0406274 0.0864451 0.0244677)
(0.0367342 0.0688008 -0.0667766)
(-0.0210667 0.0843658 0.0530581)
(0.0542619 0.129666 0.006652)
(-0.0186946 0.0676008 -0.123359)
(0.00470344 0.102858 -0.131199)
(-0.0180577 0.128603 0.0147968)
(0.0253819 0.154475 0.00501921)
(-0.00499019 0.0267435 -0.0114873)
(-0.11735 0.0333265 0.141264)
(-0.0804318 0.0693018 0.00676099)
(0.0783656 0.100015 0.0477443)
(0.0641122 0.0807278 -0.0526918)
(0.0294917 0.096044 0.138851)
(0.0342099 0.127154 -0.0786659)
(-0.00429079 0.0604929 -0.0934242)
(0.0393718 0.0976863 -0.173168)
(-0.0135714 0.0675966 0.0617043)
(0.0321021 0.099151 0.0335477)
(0.0993645 0.0628925 -0.0484378)
(-0.0236263 0.143788 0.0595665)
(0.031871 0.0624659 -0.0376802)
(0.0753111 0.0986533 -0.0469728)
(-0.0628579 0.130954 -0.0477887)
(-0.00197149 0.104479 -0.0302365)
(0.00402585 0.118583 -0.156478)
(-0.0364525 0.128263 -0.146957)
(0.0169617 0.104807 -0.102751)
(0.134214 0.143158 -0.0064613)
(0.138887 0.16424 -0.0447023)
(0.0556774 0.0909339 -0.0437999)
(0.140878 0.171844 -0.051234)
(0.116807 0.154865 -0.0910643)
(-0.0314386 0.123161 -0.0151003)
(-0.137971 0.229859 -0.0490667)
(-0.106943 0.160997 -0.151151)
(-0.025924 0.12666 -0.105826)
(-0.105432 0.162287 -0.145501)
(0.104153 0.140531 -0.0762077)
(0.0730342 0.106244 -0.120574)
(0.282929 0.280432 0.143066)
(0.186972 0.184744 0.000950208)
(0.264056 0.269862 0.136007)
(0.105489 0.107788 -0.0659252)
(0.21322 0.253991 0.175972)
(0.0785558 0.0541296 -0.109309)
(0.21547 0.158981 0.0793373)
(-0.205022 0.294265 0.143073)
(-0.10589 0.0994865 0.0485109)
(-0.111923 0.117821 0.0662757)
(0.0650464 0.415362 0.0814941)
(-0.156394 0.238484 -0.0351715)
(-0.15798 0.172027 -0.107308)
(-0.0629507 0.0559079 -0.267832)
(-0.108683 0.161458 -0.125551)
(0.217769 0.174838 0.108055)
(0.190467 0.104899 0.0704374)
(0.14646 0.192662 0.0751416)
(0.215682 0.0582934 -0.270618)
(0.290581 0.212482 0.00287002)
(0.279955 0.22608 -0.0436315)
(0.222029 0.0464444 -0.220927)
(-0.0715038 0.0737852 0.110561)
(0.232053 -0.0234581 -0.227151)
(0.0521727 0.120555 0.083436)
(-0.061181 0.09757 0.106113)
(0.253682 0.0248725 -0.174467)
(-0.0543975 0.0891198 0.034677)
(-0.0438663 0.0635443 -0.23099)
(-0.0397576 0.0591203 -0.330364)
(0.0131195 0.0133004 -0.108195)
(-0.0362761 0.0658912 -0.121724)
(0.00611838 0.0632554 -0.0672246)
(0.0186072 0.0185115 -0.185877)
(-0.0542623 0.077332 -0.212808)
(-0.00188781 0.0680015 -0.144297)
(0.0519179 0.0644411 -0.0956782)
(0.0582406 0.0559368 -0.0713848)
(0.0261249 0.0175874 -0.18848)
(0.0280891 0.062214 -0.13424)
(0.00707937 0.0482732 -0.120034)
(0.0549969 0.0437338 -0.0464228)
(0.0198778 0.0336613 -0.102191)
(-0.0203165 0.0851284 -0.0496417)
(0.00217061 -0.00267112 -0.273685)
(-0.0286886 0.124852 -0.188121)
(0.000401085 0.119584 -0.0533453)
(-0.0226666 0.132362 -0.00610309)
(-0.00987905 0.0491367 -0.352611)
(-0.0529725 0.0884055 -0.24146)
(-0.0115727 0.0243921 -0.18883)
(-0.0753281 0.0468474 0.000326805)
(0.0918476 0.102111 -0.103063)
(0.109814 0.12707 0.122764)
(0.0880988 0.143463 -0.137436)
(0.06414 0.104165 -0.0297894)
(0.0781314 0.101976 -0.178111)
(0.153805 0.120749 0.156207)
(0.0904404 0.130218 -0.154432)
(0.0542549 0.100626 -0.230208)
(0.0565345 0.0890922 -0.290352)
(-0.0255757 0.126071 0.0462543)
(-0.00696148 -0.0179154 -0.0852574)
(-0.0155972 0.0242428 -0.101176)
(-0.0342638 -0.0456624 -0.123793)
(-0.00789609 -0.0535528 -0.285639)
(-0.0338231 -0.00594193 -0.251792)
(-0.00919857 0.110727 -0.236607)
(0.024872 0.101249 -0.208374)
(0.04997 0.100726 -0.275641)
(0.000826185 0.100154 -0.284389)
(0.00958156 0.0977927 -0.256796)
(0.0480129 0.100532 -0.143344)
(0.0619898 0.0990977 -0.234694)
(-0.0159236 0.00463749 -0.295663)
(-0.0161479 0.0450095 -0.306051)
(0.0240225 0.0583765 -0.378462)
(-0.02588 0.116096 -0.19003)
(-0.0804059 0.096971 -0.214051)
(-0.0708473 0.0890635 -0.280949)
(-0.0279306 0.101057 -0.248547)
(-0.0372853 0.0165585 -0.223774)
(0.0457149 0.0567367 -0.327444)
(0.0362227 0.0670301 -0.419832)
(0.158753 0.203686 0.186997)
(0.0450139 0.0370338 -0.315509)
(0.081818 0.00976223 -0.0890547)
(0.0422106 0.0237801 -0.306561)
(0.0637028 0.175992 0.17917)
(0.0711748 0.0578992 -0.352087)
(0.0512138 0.0554757 -0.111544)
(-0.0319777 0.0282879 -0.209042)
(-0.171753 0.1772 -0.0936652)
(-0.00926672 0.010021 -0.265016)
(-0.157314 0.2005 0.0190758)
(0.0379835 -0.0586061 -0.220053)
(-0.128251 0.112058 -0.00380157)
(0.0506853 -0.0521788 -0.243566)
(0.017227 -0.032717 -0.224429)
(0.0552982 0.0240554 -0.0317548)
(0.0391218 0.0281402 -0.212122)
(0.249168 0.0970379 -0.178922)
(0.167803 0.0321444 -0.191335)
(0.0950571 0.0783172 -0.130511)
(0.129903 0.0439287 -0.214882)
(0.126014 0.0279574 -0.151838)
(0.300848 0.0675962 -0.0771872)
(0.25078 0.0406893 -0.120022)
(0.247186 0.0356123 -0.0540099)
(0.288267 0.083784 0.0185018)
(0.239239 0.0244167 -0.0584799)
(-0.104129 0.0846993 -0.0198221)
(0.0014354 -0.0188894 -0.543877)
(0.0270042 -0.0180583 -0.610403)
(0.0165451 0.0233238 -0.311667)
(-0.0369009 -0.01019 -0.277153)
(0.0131145 0.0238382 -0.183283)
(0.0370974 0.000784311 -0.606297)
(0.00181298 -0.0753277 -0.362107)
(0.0242506 -0.101055 -0.176769)
(0.0317646 0.0360958 -0.137689)
(-0.0137751 0.0541143 -0.170323)
(0.0429097 0.0104391 -0.596563)
(0.0629296 -0.0580408 -0.218959)