/*--------------------------------*- C++ -*----------------------------------*\
| =========                 |                                                 |
| \\      /  F ield         | OpenFOAM: The Open Source CFD Toolbox           |
|  \\    /   O peration     | Version:  5.x                                   |
|   \\  /    A nd           | Web:      www.OpenFOAM.org                      |
|    \\/     M anipulation  |                                                 |
\*---------------------------------------------------------------------------*/
FoamFile
{
    version     2.0;
    format      ascii;
    class       volVectorField;
    location    "4.65";
    object      Us;
}
// * * * * * * * * * * * * * * * * * * * * * * * * * * * * * * * * * * * * * //

dimensions      [0 1 -1 0 0 0 0];

internalField   nonuniform List<vector> 
10571
(
(-0.0466079 0.00435119 -0.0201436)
(0.008232 0.035285 -0.125403)
(0.0839613 0.133874 0.0745422)
(0.0414707 0.201106 0.0814176)
(-0.152081 -0.0249513 -0.0932197)
(0.164955 0.0900933 0.0954738)
(-0.103713 0.126988 0.0750116)
(-0.0475017 0.324981 0.10134)
(-0.131549 -0.321039 -0.059093)
(-0.0657841 -0.30275 -0.12914)
(0.0150759 -0.0988814 -0.0757692)
(-0.0477769 -0.222712 0.0571165)
(-0.213117 -0.207782 -0.0326764)
(-0.141891 -0.210022 -0.065916)
(-0.157516 -0.166032 -0.142347)
(-0.0234867 -0.0462311 -0.266734)
(-0.00609843 -0.0404047 -0.0410341)
(-0.061274 -0.157826 -0.0359693)
(-0.149122 -0.0831934 -0.0986264)
(-0.128292 -0.0620383 -0.177841)
(-0.020456 0.00786644 -0.230353)
(-0.00141555 -0.0581446 -0.0845326)
(-0.145197 0.0111533 -0.118984)
(-0.111939 0.0466944 -0.185121)
(-0.037918 0.0203102 -0.0990282)
(0.0284206 -0.0152339 -0.171546)
(0.01717 0.0962521 -0.032399)
(-0.0251988 0.127237 0.112822)
(-0.149889 -0.128786 -0.089696)
(0.118887 -0.0273972 0.0241265)
(-0.18585 -0.246967 0.172772)
(-0.16567 -0.290206 0.147321)
(-0.108881 -0.139746 0.00339968)
(-0.0904768 -0.119673 -0.0906749)
(-0.000653843 -0.0190691 -0.150916)
(-0.190849 -0.219633 0.0755888)
(-0.176737 -0.204095 0.133429)
(-0.121734 -0.139223 0.0266847)
(0.0669871 0.0311754 -0.206824)
(0.00359056 0.0501782 -0.263566)
(0.0413276 0.0504927 -0.180798)
(-0.231312 -0.158484 0.0959668)
(-0.121391 -0.0670884 0.0139422)
(-0.0273122 0.0146322 -0.139672)
(0.00249628 0.0276783 -0.129864)
(-0.0631017 -0.0542846 -0.146553)
(-0.0487419 -0.0660148 -0.124572)
(-0.0237064 0.0119509 -0.113003)
(-0.0496255 -0.00647986 -0.118464)
(0.00981406 -0.0222228 -0.163282)
(-0.095077 -0.0613535 0.00409275)
(-0.156827 -0.237778 0.223221)
(-0.116143 -0.134111 0.0171271)
(0.00755246 -0.15031 0.03411)
(-0.211685 -0.232442 0.299682)
(-0.160471 -0.225408 0.259186)
(-0.00564011 -0.0397883 0.100212)
(-0.0134843 -0.00530129 -0.195285)
(0.0060621 0.0256023 -0.222352)
(-0.170192 -0.162587 0.133009)
(-0.151504 -0.146232 0.166586)
(0.00352438 -0.00957479 -0.0135959)
(0.157906 0.107212 -0.163575)
(0.0349966 0.120119 -0.301757)
(0.0125004 0.0452275 -0.0942379)
(-0.153954 -0.171339 0.156115)
(-0.000239071 -0.0588057 0.0375087)
(0.130228 0.0624041 -0.105765)
(-0.00125402 0.0124649 -0.0513341)
(0.0397319 -0.01694 -0.107502)
(0.0443955 -0.0667055 -0.048062)
(0.0604162 -0.0487158 -0.0540207)
(-0.0219595 0.000478994 -0.0882756)
(0.0133394 -0.0140038 -0.135606)
(-0.0252089 0.0116703 -0.0241507)
(-0.120754 -0.080122 0.167861)
(-0.0537734 -0.0894805 0.0651591)
(0.0300849 -0.0813852 0.0760997)
(-0.19795 -0.165873 0.423301)
(-0.119099 -0.146437 0.418006)
(0.112876 0.029915 0.0227404)
(0.0681412 0.0349066 -0.156277)
(0.00247697 0.0107278 -0.253706)
(-0.115864 -0.106753 0.178163)
(-0.0705779 -0.0672866 0.26922)
(0.175455 0.161832 0.0495185)
(0.201839 0.162029 -0.0686984)
(-0.0144613 0.0452482 -0.375655)
(0.0213105 0.0107185 -0.125531)
(0.0108399 -0.0174806 0.144996)
(0.0972503 -0.0268616 0.101368)
(0.25708 0.157725 -0.159161)
(0 0 0)
(0.119607 0.0330571 -0.0403758)
(0.185248 0.0741012 -0.0531254)
(0.150288 -0.0381619 -0.016453)
(-0.0144204 0.00192164 -0.0905671)
(0.0120254 -0.00703958 -0.142356)
(-0.00845161 0.00389545 -0.013545)
(-0.0140166 0.00631286 0.123662)
(-0.0299816 -0.0851322 0.0364919)
(0.0135312 -0.058519 0.0581961)
(-0.178948 -0.111744 0.520023)
(0.01943 -0.00226018 0.443749)
(0.156112 0.0372076 -0.0150214)
(0.0963463 0.0766528 -0.206136)
(-0.00992743 -0.0253171 -0.166005)
(-0.0910706 -0.0357925 0.247807)
(0.0484033 0.0727374 0.04637)
(0.16253 0.149162 0.0468067)
(0.186582 0.149071 0.0213807)
(-0.0676209 0.00915811 -0.285121)
(-0.00888405 0.0629704 0.0137048)
(0.0644837 0.138685 -0.00976491)
(0.154239 0.13188 -0.0175934)
(0.320211 0.139533 -0.0805694)
(0 0 0)
(0.131837 0.0980701 -0.0553851)
(0.130977 0.224145 -0.0776234)
(0.307991 0.226674 0.000471647)
(-0.0165762 9.52377e-05 -0.0847247)
(-0.00846148 -0.00513981 -0.119584)
(-0.00304987 -0.0187016 0.0450898)
(-0.0130911 -0.0420578 0.217521)
(0.0320064 -0.0354904 -0.0856538)
(-0.0646563 -0.0846703 0.121837)
(-0.0736878 -0.0354857 0.510647)
(0.0948561 0.0359772 0.250665)
(0.151751 0.0390759 0.0961161)
(0.0367913 0.125435 -0.175722)
(-0.00954324 0.00533682 -0.00460229)
(-0.276184 0.0172188 0.0222359)
(-0.0924662 0.0326592 0.155894)
(0.0477193 0.0934988 0.0727819)
(0.113459 0.148718 0.0692756)
(0.154927 0.153021 0.0181866)
(-0.0441244 0.0594524 -0.186584)
(-0.0109005 -0.00414134 -0.0041336)
(-0.0054972 0.0564948 -0.0168554)
(0.0490342 0.122839 0.0742055)
(0.115898 0.12987 -0.0371765)
(0 0 0)
(0 0 0)
(0 0 0)
(0 0 0)
(0 0 0)
(0.00543166 -0.00668514 -0.0344866)
(-0.0596483 0.0469466 -0.0939369)
(-0.0104313 -0.0607588 0.0970011)
(0.0194046 -0.141087 0.132961)
(0.105051 -0.0802974 0.0262255)
(-0.119145 -0.0251405 0.184144)
(0.0174304 0.0108035 0.333687)
(0.083162 0.0425503 0.183639)
(0.0651827 0.0991182 -0.00121691)
(0.0400143 0.117354 -0.222505)
(0 0 0)
(0 0 0)
(-0.0475903 0.121637 0.240637)
(0.0492977 0.102325 0.256265)
(0.0995686 0.143497 0.29805)
(-0.00964365 0.246265 -0.0677485)
(0 0 0)
(0 0 0)
(0 0 0)
(0 0 0)
(0 0 0)
(0 0 0)
(0 0 0)
(0 0 0)
(0 0 0)
(0 0 0)
(0 0 0)
(-0.0136868 0.00734749 -0.165091)
(-0.108315 0.115142 -0.302869)
(-0.0686551 0.0561363 -0.119774)
(-0.0340673 0.0738397 -0.185297)
(-0.00105052 0.0563453 -0.166683)
(-0.157212 0.196783 -0.203948)
(-0.0293526 0.0355473 0.201429)
(-0.062085 0.187255 -0.0710287)
(-0.00936095 0.170717 -0.142462)
(0.0187232 0.129056 -0.168364)
(0 0 0)
(0 0 0)
(0 0 0)
(0 0 0)
(-0.113995 0.221765 -0.0933001)
(-0.00964365 0.246265 -0.0677485)
(0 0 0)
(0.0936374 0.103791 -0.253699)
(0 0 0)
(0 0 0)
(0 0 0)
(0 0 0)
(0 0 0)
(0 0 0)
(0 0 0)
(0 0 0)
(0 0 0)
(-0.0273453 0.00300113 -0.141382)
(-0.123907 0.0848964 -0.229231)
(-0.0792009 0.0837794 -0.200512)
(-0.0514075 0.0902399 -0.109981)
(0.0143722 0.0628965 -0.197103)
(0 0 0)
(-0.133489 0.0906356 -0.29563)
(-0.105693 0.187574 -0.0161928)
(0.0030886 0.153612 -0.0666752)
(-0.0167858 0.162265 -0.102202)
(0 0 0)
(0 0 0)
(0 0 0)
(0 0 0)
(0 0 0)
(0 0 0)
(0 0 0)
(0 0 0)
(0 0 0)
(0 0 0)
(0 0 0)
(0 0 0)
(0 0 0)
(0 0 0)
(0 0 0)
(0 0 0)
(-0.0424231 -0.00643998 -0.117736)
(-0.110336 0.114789 -0.204105)
(-0.0874778 0.0855681 -0.179946)
(-0.0318847 0.0994414 -0.059621)
(0.0311083 0.0593726 -0.146275)
(0 0 0)
(-0.0453664 0.191262 -0.159395)
(-0.0855021 0.192953 -0.0410069)
(0.00185183 0.143717 -0.0564748)
(-0.0182916 0.113526 -0.127682)
(0 0 0)
(0 0 0)
(0 0 0)
(0 0 0)
(0 0 0)
(0 0 0)
(0 0 0)
(0 0 0)
(0 0 0)
(0 0 0)
(0 0 0)
(0 0 0)
(0 0 0)
(0 0 0)
(-0.0738669 0.00751732 -0.123379)
(-6.32798e-15 1.26637e-14 -1.31145e-14)
(-0.0941742 0.101769 -0.14172)
(-0.0242207 0.0831759 -0.0512306)
(0.0452869 0.0666943 -0.144043)
(0 0 0)
(0 0 0)
(-0.0529259 0.157929 -0.126298)
(-0.00388177 0.218822 -0.029725)
(0.0766669 0.123691 0.029503)
(0 0 0)
(0 0 0)
(0 0 0)
(0 0 0)
(0 0 0)
(0 0 0)
(0 0 0)
(0 0 0)
(0 0 0)
(0 0 0)
(0 0 0)
(0 0 0)
(0 0 0)
(0 0 0)
(0.016242 -0.0296027 -0.0889483)
(0 0 0)
(0 0 0)
(-0.0527699 0.0789797 -0.052862)
(0.0273212 0.0709562 -0.094356)
(0 0 0)
(0 0 0)
(-0.00766248 0.171332 0.0216724)
(0.0153493 0.144362 0.0634616)
(0.0672251 0.16402 -0.0578273)
(0 0 0)
(0 0 0)
(0 0 0)
(0 0 0)
(0 0 0)
(0 0 0)
(0 0 0)
(0 0 0)
(0 0 0)
(0 0 0)
(0 0 0)
(0 0 0)
(0 0 0)
(0 0 0)
(-0.00441281 -0.0105133 -0.0934396)
(0 0 0)
(-0.100573 0.0514335 0.0728419)
(-0.0361655 0.0796757 0.00961033)
(0.0384062 0.0597858 0.00975006)
(0 0 0)
(0 0 0)
(-0.0475652 0.158437 0.0806123)
(0 0 0)
(0 0 0)
(0 0 0)
(0 0 0)
(0 0 0)
(0 0 0)
(0 0 0)
(0 0 0)
(0 0 0)
(0 0 0)
(0 0 0)
(0 0 0)
(0 0 0)
(0 0 0)
(0 0 0)
(0 0 0)
(0 0 0)
(0 0 0)
(0 0 0)
(0 0 0)
(0 0 0)
(0 0 0)
(0 0 0)
(0 0 0)
(0 0 0)
(0 0 0)
(0 0 0)
(0 0 0)
(0 0 0)
(0 0 0)
(0 0 0)
(0 0 0)
(0 0 0)
(0 0 0)
(0 0 0)
(0 0 0)
(0 0 0)
(0 0 0)
(0 0 0)
(0 0 0)
(-0.00117716 0.0451573 0.0867326)
(0 0 0)
(0 0 0)
(0 0 0)
(0 0 0)
(0 0 0)
(0 0 0)
(0 0 0)
(0 0 0)
(0 0 0)
(0 0 0)
(0 0 0)
(0 0 0)
(0 0 0)
(0 0 0)
(0 0 0)
(0 0 0)
(0 0 0)
(0 0 0)
(0 0 0)
(0 0 0)
(0 0 0)
(0 0 0)
(0 0 0)
(0 0 0)
(0 0 0)
(0 0 0)
(0 0 0)
(0 0 0)
(0 0 0)
(0 0 0)
(0 0 0)
(0 0 0)
(0 0 0)
(0 0 0)
(0 0 0)
(0 0 0)
(0 0 0)
(0 0 0)
(0 0 0)
(0 0 0)
(0 0 0)
(0 0 0)
(0 0 0)
(0 0 0)
(0 0 0)
(0 0 0)
(0 0 0)
(0 0 0)
(0 0 0)
(0 0 0)
(0 0 0)
(0 0 0)
(0 0 0)
(0 0 0)
(0 0 0)
(0 0 0)
(0 0 0)
(0 0 0)
(0 0 0)
(0 0 0)
(0 0 0)
(0 0 0)
(0 0 0)
(0 0 0)
(0 0 0)
(0 0 0)
(0 0 0)
(0 0 0)
(0 0 0)
(0 0 0)
(0 0 0)
(0 0 0)
(0 0 0)
(0 0 0)
(0 0 0)
(0 0 0)
(0 0 0)
(0 0 0)
(0 0 0)
(0 0 0)
(0 0 0)
(0 0 0)
(0 0 0)
(0 0 0)
(0 0 0)
(0 0 0)
(0 0 0)
(0 0 0)
(0 0 0)
(0 0 0)
(0 0 0)
(0 0 0)
(0 0 0)
(0 0 0)
(0 0 0)
(0 0 0)
(0 0 0)
(0 0 0)
(0 0 0)
(0 0 0)
(0 0 0)
(0 0 0)
(0 0 0)
(0 0 0)
(0 0 0)
(0 0 0)
(0 0 0)
(0 0 0)
(0 0 0)
(0 0 0)
(0 0 0)
(0 0 0)
(0 0 0)
(0 0 0)
(0 0 0)
(0 0 0)
(0 0 0)
(0 0 0)
(0 0 0)
(0 0 0)
(0 0 0)
(0 0 0)
(0 0 0)
(0 0 0)
(0 0 0)
(0 0 0)
(0 0 0)
(0 0 0)
(0 0 0)
(0 0 0)
(0 0 0)
(0 0 0)
(0 0 0)
(0 0 0)
(0 0 0)
(0 0 0)
(0 0 0)
(0 0 0)
(0 0 0)
(0 0 0)
(0 0 0)
(0 0 0)
(0 0 0)
(0 0 0)
(0 0 0)
(0 0 0)
(0 0 0)
(0 0 0)
(0 0 0)
(0 0 0)
(0 0 0)
(0 0 0)
(0 0 0)
(0 0 0)
(0 0 0)
(0 0 0)
(0 0 0)
(0 0 0)
(0 0 0)
(0 0 0)
(0 0 0)
(0 0 0)
(0 0 0)
(0 0 0)
(0 0 0)
(0 0 0)
(0 0 0)
(0 0 0)
(0 0 0)
(0 0 0)
(0 0 0)
(0 0 0)
(0 0 0)
(0 0 0)
(0 0 0)
(0 0 0)
(0 0 0)
(0 0 0)
(0 0 0)
(0 0 0)
(0 0 0)
(0 0 0)
(0 0 0)
(0 0 0)
(0 0 0)
(0 0 0)
(0 0 0)
(0 0 0)
(0 0 0)
(0 0 0)
(0 0 0)
(0 0 0)
(0 0 0)
(0 0 0)
(0 0 0)
(0 0 0)
(0 0 0)
(0 0 0)
(0 0 0)
(0 0 0)
(0 0 0)
(0 0 0)
(0 0 0)
(0 0 0)
(0 0 0)
(0 0 0)
(0 0 0)
(0 0 0)
(0 0 0)
(0 0 0)
(0 0 0)
(0 0 0)
(0 0 0)
(0 0 0)
(0 0 0)
(0 0 0)
(0 0 0)
(0 0 0)
(0 0 0)
(0 0 0)
(0 0 0)
(0 0 0)
(0 0 0)
(0 0 0)
(0 0 0)
(0 0 0)
(0 0 0)
(0 0 0)
(0 0 0)
(0 0 0)
(0 0 0)
(0 0 0)
(0 0 0)
(0 0 0)
(0 0 0)
(0 0 0)
(0 0 0)
(0 0 0)
(0 0 0)
(0 0 0)
(0 0 0)
(0 0 0)
(0 0 0)
(0 0 0)
(0 0 0)
(0 0 0)
(0 0 0)
(0 0 0)
(0 0 0)
(0 0 0)
(0 0 0)
(0 0 0)
(0 0 0)
(0 0 0)
(0 0 0)
(0 0 0)
(0 0 0)
(0 0 0)
(0 0 0)
(0 0 0)
(0 0 0)
(0 0 0)
(0 0 0)
(0 0 0)
(0 0 0)
(0 0 0)
(0 0 0)
(0 0 0)
(0 0 0)
(0 0 0)
(0 0 0)
(0 0 0)
(0 0 0)
(0 0 0)
(0 0 0)
(0 0 0)
(0 0 0)
(0 0 0)
(0 0 0)
(0 0 0)
(0 0 0)
(0 0 0)
(0 0 0)
(0 0 0)
(0 0 0)
(0 0 0)
(0 0 0)
(0 0 0)
(0 0 0)
(0 0 0)
(0 0 0)
(0 0 0)
(0 0 0)
(0 0 0)
(0 0 0)
(0 0 0)
(0 0 0)
(0 0 0)
(0 0 0)
(0 0 0)
(0 0 0)
(0 0 0)
(0 0 0)
(0 0 0)
(0 0 0)
(0 0 0)
(0 0 0)
(0 0 0)
(0 0 0)
(0 0 0)
(0 0 0)
(0 0 0)
(0 0 0)
(0 0 0)
(0 0 0)
(0 0 0)
(0 0 0)
(0 0 0)
(0 0 0)
(0 0 0)
(0 0 0)
(0 0 0)
(0 0 0)
(0 0 0)
(0 0 0)
(0 0 0)
(0 0 0)
(0 0 0)
(0 0 0)
(0 0 0)
(0 0 0)
(0 0 0)
(0 0 0)
(0 0 0)
(0 0 0)
(0 0 0)
(0 0 0)
(0 0 0)
(0 0 0)
(0 0 0)
(0 0 0)
(0 0 0)
(0 0 0)
(0 0 0)
(0 0 0)
(0 0 0)
(0 0 0)
(0 0 0)
(0 0 0)
(0 0 0)
(0 0 0)
(0 0 0)
(0 0 0)
(0 0 0)
(0 0 0)
(0 0 0)
(0 0 0)
(0 0 0)
(0 0 0)
(0 0 0)
(0 0 0)
(0 0 0)
(0 0 0)
(0 0 0)
(0 0 0)
(0 0 0)
(0 0 0)
(0 0 0)
(0 0 0)
(0 0 0)
(0 0 0)
(0 0 0)
(0 0 0)
(0 0 0)
(0 0 0)
(0 0 0)
(0 0 0)
(0 0 0)
(0 0 0)
(0 0 0)
(0 0 0)
(0 0 0)
(0 0 0)
(0 0 0)
(0 0 0)
(0 0 0)
(0 0 0)
(0 0 0)
(0 0 0)
(0 0 0)
(0 0 0)
(0 0 0)
(0 0 0)
(0 0 0)
(0 0 0)
(0 0 0)
(0 0 0)
(0 0 0)
(0 0 0)
(0 0 0)
(0 0 0)
(0 0 0)
(0 0 0)
(0 0 0)
(0 0 0)
(0 0 0)
(0 0 0)
(0 0 0)
(0 0 0)
(0 0 0)
(0 0 0)
(0 0 0)
(0 0 0)
(0 0 0)
(0 0 0)
(0 0 0)
(0 0 0)
(0 0 0)
(0 0 0)
(0 0 0)
(0 0 0)
(0 0 0)
(0 0 0)
(0 0 0)
(0 0 0)
(0 0 0)
(0 0 0)
(0 0 0)
(0 0 0)
(0 0 0)
(0 0 0)
(0 0 0)
(0 0 0)
(0 0 0)
(0 0 0)
(0 0 0)
(0 0 0)
(0 0 0)
(0 0 0)
(0 0 0)
(0 0 0)
(0 0 0)
(0 0 0)
(0 0 0)
(0 0 0)
(0 0 0)
(0 0 0)
(0 0 0)
(0 0 0)
(0 0 0)
(0 0 0)
(0 0 0)
(0 0 0)
(0 0 0)
(0 0 0)
(0 0 0)
(0 0 0)
(0 0 0)
(0 0 0)
(0 0 0)
(0 0 0)
(0 0 0)
(0 0 0)
(0 0 0)
(0 0 0)
(0 0 0)
(0 0 0)
(0 0 0)
(0 0 0)
(0 0 0)
(0 0 0)
(0 0 0)
(0 0 0)
(0 0 0)
(0 0 0)
(0 0 0)
(0 0 0)
(0 0 0)
(0 0 0)
(0 0 0)
(0 0 0)
(0 0 0)
(0 0 0)
(0 0 0)
(0 0 0)
(0 0 0)
(0 0 0)
(0 0 0)
(0 0 0)
(0 0 0)
(0 0 0)
(0 0 0)
(0 0 0)
(0 0 0)
(0 0 0)
(0 0 0)
(0 0 0)
(0 0 0)
(0 0 0)
(0 0 0)
(0 0 0)
(0 0 0)
(0 0 0)
(0 0 0)
(0 0 0)
(0 0 0)
(0 0 0)
(0 0 0)
(0 0 0)
(0 0 0)
(0 0 0)
(0 0 0)
(0 0 0)
(0 0 0)
(0 0 0)
(0 0 0)
(0 0 0)
(0 0 0)
(0 0 0)
(0 0 0)
(0 0 0)
(0 0 0)
(0 0 0)
(0 0 0)
(0 0 0)
(0 0 0)
(0 0 0)
(0 0 0)
(0 0 0)
(0 0 0)
(0 0 0)
(0 0 0)
(0 0 0)
(0 0 0)
(0 0 0)
(0 0 0)
(0 0 0)
(0 0 0)
(0 0 0)
(0 0 0)
(0 0 0)
(0 0 0)
(0 0 0)
(0 0 0)
(0 0 0)
(0 0 0)
(0 0 0)
(0 0 0)
(0 0 0)
(0 0 0)
(0 0 0)
(0 0 0)
(0 0 0)
(0 0 0)
(0 0 0)
(0 0 0)
(0 0 0)
(0 0 0)
(0 0 0)
(0 0 0)
(0 0 0)
(0 0 0)
(0 0 0)
(0 0 0)
(0 0 0)
(0 0 0)
(0 0 0)
(0 0 0)
(0 0 0)
(0 0 0)
(0 0 0)
(0 0 0)
(0 0 0)
(0 0 0)
(0 0 0)
(0 0 0)
(0 0 0)
(0 0 0)
(0 0 0)
(0 0 0)
(0 0 0)
(0 0 0)
(0 0 0)
(0 0 0)
(0 0 0)
(0 0 0)
(0 0 0)
(0 0 0)
(0 0 0)
(0 0 0)
(0 0 0)
(0 0 0)
(0 0 0)
(0 0 0)
(0 0 0)
(0 0 0)
(0 0 0)
(0 0 0)
(0 0 0)
(0 0 0)
(0 0 0)
(0 0 0)
(0 0 0)
(0 0 0)
(0 0 0)
(0 0 0)
(0 0 0)
(0 0 0)
(0 0 0)
(0 0 0)
(0 0 0)
(0 0 0)
(0 0 0)
(0 0 0)
(0 0 0)
(0 0 0)
(0 0 0)
(0 0 0)
(0 0 0)
(0 0 0)
(0 0 0)
(0 0 0)
(0 0 0)
(0 0 0)
(0 0 0)
(0 0 0)
(0 0 0)
(0 0 0)
(0 0 0)
(0 0 0)
(0 0 0)
(0 0 0)
(0 0 0)
(0 0 0)
(0 0 0)
(0 0 0)
(0 0 0)
(0 0 0)
(0 0 0)
(0 0 0)
(0 0 0)
(0 0 0)
(0 0 0)
(0 0 0)
(0 0 0)
(0 0 0)
(0 0 0)
(0 0 0)
(0 0 0)
(0 0 0)
(0 0 0)
(0 0 0)
(0 0 0)
(0 0 0)
(0 0 0)
(0 0 0)
(0 0 0)
(0 0 0)
(0 0 0)
(0 0 0)
(0 0 0)
(0 0 0)
(0 0 0)
(0 0 0)
(0 0 0)
(0 0 0)
(0 0 0)
(0 0 0)
(0 0 0)
(0 0 0)
(0 0 0)
(0 0 0)
(0 0 0)
(0 0 0)
(0 0 0)
(0 0 0)
(0 0 0)
(0 0 0)
(0 0 0)
(0 0 0)
(0 0 0)
(0 0 0)
(0 0 0)
(0 0 0)
(0 0 0)
(0 0 0)
(0 0 0)
(0 0 0)
(0 0 0)
(0 0 0)
(0 0 0)
(0 0 0)
(0 0 0)
(0 0 0)
(0 0 0)
(0 0 0)
(0 0 0)
(0 0 0)
(0 0 0)
(0 0 0)
(0 0 0)
(0 0 0)
(0 0 0)
(0 0 0)
(0 0 0)
(0 0 0)
(0 0 0)
(0 0 0)
(0 0 0)
(0 0 0)
(0 0 0)
(0 0 0)
(0 0 0)
(0 0 0)
(0 0 0)
(0 0 0)
(0 0 0)
(0 0 0)
(0 0 0)
(0 0 0)
(0 0 0)
(0 0 0)
(0 0 0)
(0 0 0)
(0 0 0)
(0 0 0)
(0 0 0)
(0 0 0)
(0 0 0)
(0 0 0)
(0 0 0)
(0 0 0)
(0 0 0)
(0 0 0)
(0 0 0)
(0 0 0)
(0 0 0)
(0 0 0)
(0 0 0)
(0 0 0)
(0 0 0)
(0 0 0)
(0 0 0)
(0 0 0)
(0 0 0)
(0 0 0)
(0 0 0)
(0 0 0)
(0 0 0)
(0 0 0)
(0 0 0)
(0 0 0)
(0 0 0)
(0 0 0)
(0 0 0)
(0 0 0)
(0 0 0)
(0 0 0)
(0 0 0)
(0 0 0)
(0 0 0)
(0 0 0)
(0 0 0)
(0 0 0)
(0 0 0)
(0 0 0)
(0 0 0)
(0 0 0)
(0 0 0)
(0 0 0)
(0 0 0)
(0 0 0)
(0 0 0)
(0 0 0)
(0 0 0)
(0 0 0)
(0 0 0)
(0 0 0)
(0 0 0)
(0 0 0)
(0 0 0)
(0 0 0)
(0 0 0)
(0 0 0)
(0 0 0)
(0 0 0)
(0 0 0)
(0 0 0)
(0 0 0)
(0 0 0)
(0 0 0)
(0 0 0)
(0 0 0)
(0 0 0)
(0 0 0)
(0 0 0)
(0 0 0)
(0 0 0)
(0 0 0)
(0 0 0)
(0 0 0)
(0 0 0)
(0 0 0)
(0 0 0)
(0 0 0)
(0 0 0)
(0 0 0)
(0 0 0)
(0 0 0)
(0 0 0)
(0 0 0)
(0 0 0)
(0 0 0)
(0 0 0)
(0 0 0)
(0 0 0)
(0 0 0)
(0 0 0)
(0 0 0)
(0 0 0)
(0 0 0)
(0 0 0)
(0 0 0)
(0 0 0)
(0 0 0)
(0 0 0)
(0 0 0)
(0 0 0)
(0 0 0)
(0 0 0)
(0 0 0)
(0 0 0)
(0 0 0)
(0 0 0)
(0 0 0)
(0 0 0)
(0 0 0)
(0 0 0)
(0 0 0)
(0 0 0)
(0 0 0)
(0 0 0)
(0 0 0)
(0 0 0)
(0 0 0)
(0 0 0)
(0 0 0)
(0 0 0)
(0 0 0)
(0 0 0)
(0 0 0)
(0 0 0)
(0 0 0)
(0 0 0)
(0 0 0)
(0 0 0)
(0 0 0)
(0 0 0)
(0 0 0)
(0 0 0)
(0 0 0)
(0 0 0)
(0 0 0)
(0 0 0)
(0 0 0)
(0 0 0)
(0 0 0)
(0 0 0)
(0 0 0)
(0 0 0)
(0 0 0)
(0 0 0)
(0 0 0)
(0 0 0)
(0 0 0)
(0 0 0)
(0 0 0)
(0 0 0)
(0 0 0)
(0 0 0)
(0 0 0)
(0 0 0)
(0 0 0)
(0 0 0)
(0 0 0)
(0 0 0)
(0 0 0)
(0 0 0)
(0 0 0)
(0 0 0)
(0 0 0)
(0 0 0)
(0 0 0)
(0 0 0)
(0 0 0)
(0 0 0)
(0 0 0)
(0 0 0)
(0 0 0)
(0 0 0)
(0 0 0)
(0 0 0)
(0 0 0)
(0 0 0)
(0 0 0)
(0 0 0)
(0 0 0)
(0 0 0)
(0 0 0)
(0 0 0)
(0 0 0)
(0 0 0)
(0 0 0)
(0 0 0)
(0 0 0)
(0 0 0)
(0 0 0)
(0 0 0)
(0 0 0)
(0 0 0)
(0 0 0)
(0 0 0)
(0 0 0)
(0 0 0)
(0 0 0)
(0 0 0)
(0 0 0)
(0 0 0)
(0 0 0)
(0 0 0)
(0 0 0)
(0 0 0)
(0 0 0)
(0 0 0)
(0 0 0)
(0 0 0)
(0 0 0)
(0 0 0)
(0 0 0)
(0 0 0)
(0 0 0)
(0 0 0)
(0 0 0)
(0 0 0)
(0 0 0)
(0 0 0)
(0 0 0)
(0 0 0)
(0 0 0)
(0 0 0)
(0 0 0)
(0 0 0)
(0 0 0)
(0 0 0)
(0 0 0)
(0 0 0)
(0 0 0)
(0 0 0)
(0 0 0)
(0 0 0)
(0 0 0)
(0 0 0)
(0 0 0)
(0 0 0)
(0 0 0)
(0 0 0)
(0 0 0)
(0 0 0)
(0 0 0)
(0 0 0)
(0 0 0)
(0 0 0)
(0 0 0)
(0 0 0)
(0 0 0)
(0 0 0)
(0 0 0)
(0 0 0)
(0 0 0)
(0 0 0)
(0 0 0)
(0 0 0)
(0 0 0)
(0 0 0)
(0 0 0)
(0 0 0)
(0 0 0)
(0 0 0)
(0 0 0)
(0 0 0)
(0 0 0)
(0 0 0)
(0 0 0)
(0 0 0)
(0 0 0)
(0 0 0)
(0 0 0)
(0 0 0)
(0 0 0)
(0 0 0)
(0 0 0)
(0 0 0)
(0 0 0)
(0 0 0)
(0 0 0)
(0 0 0)
(0 0 0)
(0 0 0)
(0 0 0)
(0 0 0)
(0 0 0)
(0 0 0)
(0 0 0)
(0 0 0)
(0 0 0)
(0 0 0)
(0 0 0)
(0 0 0)
(0 0 0)
(0 0 0)
(0 0 0)
(0 0 0)
(0 0 0)
(0 0 0)
(0 0 0)
(0 0 0)
(0 0 0)
(0 0 0)
(0 0 0)
(0 0 0)
(0 0 0)
(0 0 0)
(0 0 0)
(0 0 0)
(0 0 0)
(0 0 0)
(0 0 0)
(0 0 0)
(0 0 0)
(0 0 0)
(0 0 0)
(0 0 0)
(0 0 0)
(0 0 0)
(0 0 0)
(0 0 0)
(0 0 0)
(0 0 0)
(0 0 0)
(0 0 0)
(0 0 0)
(0 0 0)
(0 0 0)
(0 0 0)
(0 0 0)
(0 0 0)
(0 0 0)
(0 0 0)
(0 0 0)
(0 0 0)
(0 0 0)
(0 0 0)
(0 0 0)
(0 0 0)
(0 0 0)
(0 0 0)
(0 0 0)
(0 0 0)
(0 0 0)
(0 0 0)
(0 0 0)
(0 0 0)
(0 0 0)
(0 0 0)
(0 0 0)
(0 0 0)
(0 0 0)
(0 0 0)
(0 0 0)
(0 0 0)
(0 0 0)
(0 0 0)
(0 0 0)
(0 0 0)
(0 0 0)
(0 0 0)
(0 0 0)
(0 0 0)
(0 0 0)
(0 0 0)
(0 0 0)
(0 0 0)
(0 0 0)
(0 0 0)
(0 0 0)
(0 0 0)
(0 0 0)
(0 0 0)
(0 0 0)
(0 0 0)
(0 0 0)
(0 0 0)
(0 0 0)
(0 0 0)
(0 0 0)
(0 0 0)
(0 0 0)
(0 0 0)
(0 0 0)
(0 0 0)
(0 0 0)
(0 0 0)
(0 0 0)
(0 0 0)
(0 0 0)
(0 0 0)
(0 0 0)
(0 0 0)
(0 0 0)
(0 0 0)
(0 0 0)
(0 0 0)
(0 0 0)
(0 0 0)
(0 0 0)
(0 0 0)
(0 0 0)
(0 0 0)
(0 0 0)
(0 0 0)
(0 0 0)
(0 0 0)
(0 0 0)
(0 0 0)
(0 0 0)
(0 0 0)
(0 0 0)
(0 0 0)
(0 0 0)
(0 0 0)
(0 0 0)
(0 0 0)
(0 0 0)
(0 0 0)
(0 0 0)
(0 0 0)
(0 0 0)
(0 0 0)
(0 0 0)
(0 0 0)
(0 0 0)
(0 0 0)
(0 0 0)
(0 0 0)
(0 0 0)
(0 0 0)
(0 0 0)
(0 0 0)
(0 0 0)
(0 0 0)
(0 0 0)
(0 0 0)
(0 0 0)
(0 0 0)
(0 0 0)
(0 0 0)
(0 0 0)
(0 0 0)
(0 0 0)
(0 0 0)
(0 0 0)
(0 0 0)
(0 0 0)
(0 0 0)
(0 0 0)
(0 0 0)
(0 0 0)
(0 0 0)
(0 0 0)
(0 0 0)
(0 0 0)
(0 0 0)
(0 0 0)
(0 0 0)
(0 0 0)
(0 0 0)
(0 0 0)
(0 0 0)
(0 0 0)
(0 0 0)
(0 0 0)
(0 0 0)
(0 0 0)
(0 0 0)
(0 0 0)
(0 0 0)
(0 0 0)
(0 0 0)
(0 0 0)
(0 0 0)
(0 0 0)
(0 0 0)
(0 0 0)
(0 0 0)
(0 0 0)
(0 0 0)
(0 0 0)
(0 0 0)
(0 0 0)
(0 0 0)
(0 0 0)
(0 0 0)
(0 0 0)
(0 0 0)
(0 0 0)
(0 0 0)
(0 0 0)
(0 0 0)
(0 0 0)
(0 0 0)
(0 0 0)
(0 0 0)
(0 0 0)
(0 0 0)
(0 0 0)
(0 0 0)
(0 0 0)
(0 0 0)
(0 0 0)
(0 0 0)
(0 0 0)
(0 0 0)
(0 0 0)
(0 0 0)
(0 0 0)
(0 0 0)
(0 0 0)
(0 0 0)
(0 0 0)
(0 0 0)
(0 0 0)
(0 0 0)
(0 0 0)
(0 0 0)
(0 0 0)
(0 0 0)
(0 0 0)
(0 0 0)
(0 0 0)
(0 0 0)
(0 0 0)
(0 0 0)
(0 0 0)
(0 0 0)
(0 0 0)
(0 0 0)
(0 0 0)
(0 0 0)
(0 0 0)
(0 0 0)
(0 0 0)
(0 0 0)
(0 0 0)
(0 0 0)
(0 0 0)
(0 0 0)
(0 0 0)
(0 0 0)
(0 0 0)
(0 0 0)
(0 0 0)
(0 0 0)
(0 0 0)
(0 0 0)
(0 0 0)
(0 0 0)
(0 0 0)
(0 0 0)
(0 0 0)
(0 0 0)
(0 0 0)
(0 0 0)
(0 0 0)
(0 0 0)
(0 0 0)
(0 0 0)
(0 0 0)
(0 0 0)
(0 0 0)
(0 0 0)
(0 0 0)
(0 0 0)
(0 0 0)
(0 0 0)
(0 0 0)
(0 0 0)
(0 0 0)
(0 0 0)
(0 0 0)
(0 0 0)
(0 0 0)
(0 0 0)
(0 0 0)
(0 0 0)
(0 0 0)
(0 0 0)
(0 0 0)
(0 0 0)
(0 0 0)
(0 0 0)
(0 0 0)
(0 0 0)
(0 0 0)
(0 0 0)
(0 0 0)
(0 0 0)
(0 0 0)
(0 0 0)
(0 0 0)
(0 0 0)
(0 0 0)
(0 0 0)
(0 0 0)
(0 0 0)
(0 0 0)
(0 0 0)
(0 0 0)
(0 0 0)
(0 0 0)
(0 0 0)
(0 0 0)
(0 0 0)
(0 0 0)
(0 0 0)
(0 0 0)
(0 0 0)
(0 0 0)
(0 0 0)
(0 0 0)
(0 0 0)
(0 0 0)
(0 0 0)
(0 0 0)
(0 0 0)
(0 0 0)
(0 0 0)
(0 0 0)
(0 0 0)
(0 0 0)
(0 0 0)
(0 0 0)
(0 0 0)
(0 0 0)
(0 0 0)
(0 0 0)
(0 0 0)
(0 0 0)
(0 0 0)
(0 0 0)
(0 0 0)
(0 0 0)
(0 0 0)
(0 0 0)
(0 0 0)
(0 0 0)
(0 0 0)
(0 0 0)
(0 0 0)
(0 0 0)
(0 0 0)
(0 0 0)
(0 0 0)
(0 0 0)
(0 0 0)
(0 0 0)
(0 0 0)
(0 0 0)
(0 0 0)
(0 0 0)
(0 0 0)
(0 0 0)
(0 0 0)
(0 0 0)
(0 0 0)
(0 0 0)
(0 0 0)
(0 0 0)
(0 0 0)
(0 0 0)
(0 0 0)
(0 0 0)
(0 0 0)
(0 0 0)
(0 0 0)
(0 0 0)
(0 0 0)
(0 0 0)
(0 0 0)
(0 0 0)
(0 0 0)
(0 0 0)
(0 0 0)
(0 0 0)
(0 0 0)
(0 0 0)
(0 0 0)
(0 0 0)
(0 0 0)
(0 0 0)
(0 0 0)
(0 0 0)
(0 0 0)
(0 0 0)
(0 0 0)
(0 0 0)
(0 0 0)
(0 0 0)
(0 0 0)
(0 0 0)
(0 0 0)
(0 0 0)
(0 0 0)
(0 0 0)
(0 0 0)
(0 0 0)
(0 0 0)
(0 0 0)
(0 0 0)
(0 0 0)
(0 0 0)
(0 0 0)
(0 0 0)
(0 0 0)
(0 0 0)
(0 0 0)
(0 0 0)
(0 0 0)
(0 0 0)
(0 0 0)
(0 0 0)
(0 0 0)
(0 0 0)
(0 0 0)
(0 0 0)
(0 0 0)
(0 0 0)
(0 0 0)
(0 0 0)
(0 0 0)
(0 0 0)
(0 0 0)
(0 0 0)
(0 0 0)
(0 0 0)
(0 0 0)
(0 0 0)
(0 0 0)
(0 0 0)
(0 0 0)
(0 0 0)
(0 0 0)
(0 0 0)
(0 0 0)
(0 0 0)
(0 0 0)
(0 0 0)
(0 0 0)
(0 0 0)
(0 0 0)
(0 0 0)
(0 0 0)
(0 0 0)
(0.0129831 0.0319789 -0.0460705)
(0.0121775 0.00591525 -0.0104927)
(0.0793602 0.0800889 -0.0459992)
(0.101979 0.0762357 -0.0290057)
(0.00122641 -0.011343 0.00169572)
(-0.0273989 0.0530607 -0.0047922)
(-0.116884 0.076572 -0.0168882)
(-0.109182 0.0230849 -0.0415532)
(0.0188723 0.00756966 0.000660931)
(0.0343546 0.0310722 -0.0321022)
(0.0486453 0.0828955 0.0262017)
(0.0680231 0.0736347 0.0292367)
(0.115053 0.031442 0.0435009)
(0.080228 0.0914121 0.0341021)
(0.12812 0.173007 0.000173852)
(0.0367772 0.0692572 0.0166188)
(-0.0226911 0.134577 0.0227096)
(0.0122645 0.16455 0.0130298)
(-0.090669 0.156146 0.0420989)
(-0.0685045 0.114075 0.0226034)
(-0.101714 0.0364576 0.031674)
(-0.124635 0.0697557 -0.000781894)
(-0.0839987 0.00675287 -0.030779)
(-0.0911981 -0.0138203 0.0298055)
(-0.0946501 -0.029154 0.000117612)
(-0.0731977 -0.107313 0.00178979)
(0.101309 0.00341169 0.0320825)
(0.0348183 -0.0486827 -0.0312229)
(0.0809359 0.0200316 0.0294026)
(0.133291 0.0669232 0.0287305)
(0.112343 0.00312553 0.0281639)
(0.10943 0.0179375 0.019017)
(0.0494216 -0.0467938 0.0224521)
(-0.0935951 0.0148229 0.0182833)
(-0.0552483 -0.0526824 0.0196215)
(-0.17184 -0.210037 -0.0174437)
(-0.125789 -0.200424 0.0102984)
(-0.1144 -0.248861 -0.0081916)
(-0.10051 -0.244884 -0.0126999)
(-0.102236 -0.21519 -0.00568335)
(-0.0715913 -0.208331 -0.00761211)
(-0.07217 -0.225662 -0.00723104)
(-0.0661041 -0.26846 -0.0394429)
(-0.0949903 -0.236829 -0.0725373)
(-0.0665745 -0.239823 -0.0790494)
(-0.0523581 -0.169486 0.0017609)
(-0.0337181 -0.170783 -0.0269408)
(-0.0313891 -0.119213 -0.0158418)
(0.0314952 -0.0679998 -0.0191624)
(0.0509431 -0.0701175 0.0247816)
(-0.000463117 -0.118364 0.00349013)
(0.0315247 -0.12597 0.0368489)
(-0.173635 -0.185495 0.000965452)
(-0.0516192 -0.270889 0.00275279)
(-0.0745897 -0.269009 -0.0146595)
(-0.165478 -0.156575 -0.004908)
(-0.140264 -0.15721 -0.012685)
(-0.149428 -0.130452 -0.0178038)
(-0.141336 -0.108011 -0.00548385)
(-0.104366 -0.157151 -0.000837207)
(-0.0931844 -0.176587 -0.0461894)
(-0.10504 -0.109624 -0.00190255)
(-0.0957636 -0.13232 -0.0764041)
(-0.0770529 -0.181375 -0.065938)
(-0.0570984 -0.178114 -0.0949306)
(-0.0764945 -0.127292 -0.0672564)
(-0.0269697 -0.100146 -0.0280708)
(-0.00840261 -0.113664 -0.0712343)
(-0.00978807 -0.0929023 -0.0133954)
(0.00503402 -0.0605508 -0.0321345)
(-0.00960236 -0.0948012 -0.0123006)
(-0.0108873 -0.168389 -0.0160748)
(0.00198383 -0.251156 -0.0154231)
(-0.00021432 -0.0733925 -0.0391514)
(0.041724 -0.126844 -0.0204122)
(0.0456609 -0.222252 -0.0170048)
(-0.0548583 -0.113756 0.0016525)
(0.0950953 -0.162767 -0.0234978)
(0.0917157 -0.11781 -0.0049861)
(-0.110095 -0.061143 -0.00861341)
(-0.0909977 -0.0692069 -0.0399016)
(-0.0900737 -0.0227063 0.00047511)
(-0.0855993 -0.0173179 -0.027509)
(-0.0548063 -0.0732719 -0.058074)
(-0.0152765 -0.0289332 -0.00496266)
(-0.0353997 -0.00846042 -0.0225074)
(-0.0180512 -0.00143495 -0.00244888)
(0.013446 -0.0351664 -0.0112163)
(0.0436811 -0.0468758 -0.047347)
(0.0965085 -0.0664722 -0.0366711)
(0.123102 -0.0407332 -0.00833055)
(0.0551483 -0.00180587 -0.00574511)
(-0.0329055 -0.00356353 -0.00888456)
(-0.0523853 -0.00894126 -0.00844941)
(0.00686562 0.00109447 0.00129998)
(-0.0264473 -0.00439248 -0.0128734)
(0.0376761 -0.0021247 -0.159185)
(0.0319781 -0.00582541 -0.178811)
(0.0179685 0.0186527 -0.113281)
(0.0514729 0.0557985 -0.142223)
(0.0593655 0.116278 -0.086039)
(-0.0328813 0.0247819 -0.114916)
(0.0206554 0.0327232 -0.177067)
(-0.0439054 0.107723 -0.0989796)
(-0.0931818 0.0801674 -0.00456749)
(-0.127979 0.00846783 -0.0642988)
(-0.0130245 0.0445545 -0.0440645)
(-0.0607764 0.0711949 -0.0137679)
(-0.0995482 -0.0278048 -0.0904783)
(-0.116704 -0.0352679 -0.114104)
(-0.099376 -0.0426871 -0.140834)
(0.0253228 0.000637625 -0.0533703)
(0.0381493 -0.0379227 -0.0802308)
(0.0592912 0.0766354 -0.0586387)
(0.0615879 0.0925735 -0.0463144)
(0.11241 0.106165 0.0906306)
(0.0218663 -0.00371559 -0.161254)
(0.0452063 0.0202354 -0.129119)
(0.079033 0.0102864 -0.0969743)
(0.122539 0.0762888 0.0354915)
(-0.103595 -0.0727322 -0.113354)
(-0.124268 -0.266951 -0.000313054)
(-0.110045 -0.177829 -0.0805971)
(-0.146203 -0.0969734 -0.127406)
(-0.114825 -0.113172 -0.1437)
(-0.149074 -0.333373 0.055497)
(-0.135127 -0.237114 -0.0406321)
(-0.115249 -0.205282 -0.0815622)
(-0.120852 -0.253322 -0.0591861)
(0.111564 -0.088507 -0.00736559)
(0.0341137 -0.113281 -0.104193)
(0.0965609 -0.119033 -0.0109755)
(0.0585064 -0.0675623 -0.0670793)
(0.00779359 -0.077107 -0.135762)
(0.0489711 -0.113432 -0.081826)
(-0.0529151 -0.185702 -0.20288)
(-0.0127136 -0.190489 -0.164218)
(-0.0929708 -0.224861 -0.104587)
(-0.0646664 -0.0719141 -0.21134)
(-0.0155271 -0.0421602 -0.21046)
(0.0316009 -0.13104 -0.0204251)
(-0.0193238 -0.0967369 -0.0437434)
(-0.00105039 -0.0594516 -0.12147)
(-0.00855559 -0.10784 -0.0685121)
(-0.0143407 -0.0224761 -0.0888632)
(0.0160787 -0.10357 -0.207479)
(-0.0271545 -0.0057586 -0.244265)
(0.000603568 0.0156721 -0.271531)
(-0.00310497 0.0075787 -0.2162)
(-0.00403613 0.039508 -0.225801)
(-0.0041283 -0.0323655 -0.0988616)
(0.00213156 0.0363176 -0.139441)
(-0.065331 -0.121369 -0.0381672)
(0.032248 0.0228001 -0.119439)
(0.00514796 -0.0193267 -0.061065)
(-0.0455078 0.012264 -0.0898721)
(-0.160406 -0.0818935 -0.0437707)
(0.0881806 0.0979712 -0.283932)
(-0.053211 0.0271119 -0.164133)
(-0.0689364 -0.0165496 -0.203433)
(-0.103029 0.0237154 -0.191459)
(-0.0586165 0.0337173 -0.221335)
(-0.106027 -0.0238753 -0.152626)
(-0.034323 0.0262897 -0.177659)
(-0.0974343 0.0225105 -0.134163)
(-0.0365425 0.0246368 -0.148316)
(-0.0151591 0.0390128 -0.179677)
(0.0544707 0.00686852 -0.13974)
(0.0658723 0.0566991 -0.308529)
(-0.0523304 -0.067881 -0.136014)
(-0.0824998 -0.0326374 -0.230278)
(-0.116669 -0.08088 -0.139499)
(-0.112209 -0.0976137 -0.176729)
(-0.0616594 -0.0296062 -0.277788)
(-0.118802 0.0364703 -0.158961)
(-0.155485 0.0241624 -0.114966)
(-0.0737376 -0.0482885 -0.184749)
(-0.12738 0.032267 -0.112429)
(-0.0378404 -0.0233248 -0.276818)
(-0.0689275 0.0299332 -0.143732)
(0.0248875 -0.00654669 -0.190492)
(0.0163969 -0.013961 -0.189438)
(-0.040062 0.0161657 -0.123366)
(0.00737474 0.0201981 -0.186525)
(-0.0491241 0.0719802 -0.110754)
(-0.038167 0.00772362 -0.131572)
(-0.00745664 0.00887889 -0.180146)
(-0.0392043 0.0404245 -0.131291)
(-0.0648204 0.0448968 -0.0524773)
(-0.0965726 -0.0655611 -0.120603)
(-0.046567 0.00208085 -0.116416)
(-0.0687748 0.0105764 -0.0956756)
(-0.0949092 -0.0591995 -0.0984643)
(-0.0792368 -0.0513171 -0.152314)
(-0.0683094 -0.0493428 -0.129046)
(0.0314392 -0.0347263 -0.111054)
(0.0283181 -0.0317731 -0.134166)
(0.0375131 -0.00252403 -0.164739)
(0.0617977 -0.014881 -0.126391)
(0.0517497 0.00946888 -0.0119004)
(0.025737 -0.0227067 -0.17351)
(0.0166239 -0.0258453 -0.168942)
(0.0442229 -0.0290556 -0.144363)
(-0.0577701 -0.10053 0.0642123)
(-0.117739 -0.112655 -0.102155)
(-0.180631 -0.294824 0.10216)
(-0.156527 -0.181184 -0.0114212)
(-0.139701 -0.133175 -0.0427778)
(-0.100072 -0.110277 -0.0551678)
(-0.192674 -0.283821 0.154556)
(-0.139131 -0.190109 0.010632)
(-0.109044 -0.151396 -0.0531486)
(-0.0694914 -0.118317 -0.0791413)
(0.0367843 -0.0547478 -0.115546)
(0.00426527 -0.0448146 -0.148137)
(0.0113676 -0.113852 -0.107665)
(0.0299098 -0.0500485 -0.139353)
(0.00191961 -0.0170475 -0.169288)
(0.00410675 -0.0831337 -0.119732)
(-0.0254154 0.0157484 -0.242707)
(-0.0026711 0.047477 -0.259853)
(-0.0438641 -0.0496987 -0.149384)
(0.00416365 0.0542436 -0.265717)
(0.000471998 0.0748811 -0.285861)
(-0.0147516 -0.0664984 -0.106006)
(0.0156719 0.0363728 -0.164082)
(0.00414673 0.0147181 -0.18689)
(0.00293041 -0.0148543 -0.144497)
(0.0268405 0.0444567 -0.208741)
(-0.0104025 0.0678536 -0.241391)
(0.000118148 0.0520106 -0.192023)
(-0.0112499 0.10353 -0.267508)
(-0.0186207 0.10377 -0.256004)
(0.00226734 0.0498294 -0.126852)
(0.0526068 0.0697027 -0.241067)
(0.0369577 0.0553361 -0.282147)
(-0.164924 -0.0793047 0.0123904)
(0.0959097 0.0912537 -0.301715)
(-0.063631 0.0141084 -0.111452)
(0.0393509 0.0589962 -0.137358)
(-0.168155 -0.0983857 0.0670277)
(0.0649226 0.050355 -0.268058)
(-0.000684832 0.0379035 -0.162376)
(0.014916 0.0340519 -0.154752)
(-0.0583591 0.0194546 -0.106723)
(-0.0119625 0.020321 -0.127802)
(0.0722746 0.0534206 -0.126563)
(0.0475296 0.034193 -0.117619)
(0.00757229 -0.00469282 -0.0630557)
(0.0120786 0.00356601 -0.0765137)
(0.0055987 0.0161864 -0.0780024)
(0.0833558 0.0432362 -0.282355)
(0.0721949 0.0378235 -0.222497)
(-0.0952966 -0.0781078 -0.122537)
(0.0124253 -0.00897168 -0.30182)
(-0.0162108 -0.000758683 -0.119425)
(-0.0796641 -0.0366972 -0.0432896)
(0.0715589 -0.000150307 -0.284998)
(-0.0755064 0.00649382 -0.0529564)
(0.0144604 -0.00658282 -0.264563)
(-0.0168416 -0.0615279 -0.0715582)
(0.0261094 -0.04446 -0.0094652)
(0.0664527 -0.00727318 -0.240572)
(0.0333426 -0.0298171 -0.0734237)
(0.00628766 -0.0158251 -0.158987)
(0.00739257 -0.00761661 -0.127247)
(-0.0343807 0.00464189 -0.135472)
(-0.0128 -0.00841609 -0.156938)
(-0.0364104 0.0169191 -0.138803)
(-0.0228698 0.00396999 -0.122215)
(-0.0029464 -0.00882185 -0.132146)
(-0.0298065 0.00790758 -0.125367)
(-0.0830958 -0.0238475 -0.0851083)
(-0.0857276 -0.0476625 -0.073438)
(-0.0373682 -0.00425894 -0.0975863)
(-0.0660423 -0.0163204 -0.0605006)
(-0.0677423 -0.0281894 -0.060881)
(-0.05487 -0.037885 -0.0893044)
(-0.0324255 -0.0290699 -0.0651903)
(0.0173031 -0.026891 -0.146334)
(0.00797312 -0.0165596 -0.143845)
(-0.00179497 -0.0376835 -0.127572)
(0.0163026 -0.0401965 -0.12813)
(-0.0609597 -0.120208 0.102237)
(0.0112713 -0.0177369 -0.140877)
(0.00324167 -0.0143969 -0.10247)
(0.0119574 -0.0361011 -0.0974085)
(0.0218223 -0.0444226 0.0473478)
(-0.0590922 -0.0875612 -0.023521)