/*--------------------------------*- C++ -*----------------------------------*\
| =========                 |                                                 |
| \\      /  F ield         | OpenFOAM: The Open Source CFD Toolbox           |
|  \\    /   O peration     | Version:  5.x                                   |
|   \\  /    A nd           | Web:      www.OpenFOAM.org                      |
|    \\/     M anipulation  |                                                 |
\*---------------------------------------------------------------------------*/
FoamFile
{
    version     2.0;
    format      ascii;
    class       volScalarField;
    location    "3.85";
    object      Ksl;
}
// * * * * * * * * * * * * * * * * * * * * * * * * * * * * * * * * * * * * * //

dimensions      [1 -3 -1 0 0 0 0];

internalField   nonuniform List<scalar> 
10571
(
194.265
2155.64
110.637
31.4762
5259.15
95.8801
85.3559
85.0231
331.93
1661
5421.11
698.74
580.035
1131.63
1974.23
1421.64
8460.74
6102.56
6356.05
10674.8
9782.62
11336.3
7101.4
5543.37
1448.53
2247.26
92.0262
24.7716
507.202
153.612
278.885
95.1515
714.843
267.825
4890.58
215.729
114.129
64.7992
423.639
61.661
336.896
508.258
517.688
700.919
4652.52
10935.5
3298.17
6146.84
5112.5
3308.65
122.688
7.3432
462.536
230.264
70.7739
21.0819
652.877
31.575
1163.56
46.1719
35.1065
7.43323
668.864
76.8632
154.215
49.9352
91.9214
938.063
3616.43
4126
2301.33
2900.47
7689.7
2292.97
616.896
0
357.06
141.171
23.9349
9.68548
473.514
111.769
1072.86
30.5736
9.47281
10.8643
602.939
1311.34
220.662
89.1406
69.2235
370.053
4951.57
3662.3
3300.81
4958.79
6429.3
1373.56
13.3571
762.45
539.078
205.741
48.4254
15.8306
749.876
615.604
1310.94
32.2827
3.61028
14.8851
1157.73
6969.11
339.71
1934.58
1271.03
233.147
6992.79
7669.92
7382.65
7929.17
703.626
1332.33
43.8947
409.974
322.648
152.234
159.602
213.203
613.011
3170.67
11843
1010.21
25.9287
1514.55
1166.72
1722.41
5944.47
10923.6
361.14
3067.83
4140.74
1796.13
8554.11
854.65
7983.75
10436
165.527
1460.75
1222.76
913.074
2257.49
57.232
1013.85
955.76
1194.3
98.4073
0.594461
693.625
36.0072
665.605
477.216
1029.9
30.8724
0.0459681
424.246
92.5557
902.906
5536.89
6.01206
0
31.2671
15.1642
53.5534
22.6728
1056.19
34.0277
41.4573
23.177
109.817
61.2533
119.93
213.713
21.0542
0
771.441
144.861
25.0042
126.67
89.7642
5.89651
2.90837
418.993
13.0227
20.6713
77.4324
0
0
15.5935
-2.38242e-13
15.0808
7.71924
756.48
71.7083
0
6.46706
162.843
70.2979
4.08088
1.92904
5.58035
0
670.961
119.501
21.6007
3.59944
1.12493
0
0
415.85
9.98421
1.54308
3.84712
-4.96538e-13
2.49835
3.4478
0
30.8407
258.745
23.7894
0
7.36159
118.21
54.6109
2.52031
2.87454
9.55677
360.522
59.4153
39.8186
6.65326
3.17116
4.54254
169.605
2.15427
3.04211
2.73396
0
6.42479
8.09232
6.93747
122.22
14.0762
0
0
5.6236
156.224
1.72524
0.798414
2.5772
1.63785
154.425
123.488
5.29227
2.75937
2.8761
2.08561
69.2609
1.31064
3.64387
-1.39655e-14
0
7.65244
0.79202
0
25.7332
8.39775
0
0
0
12.6671
0
3.17865
1.83715
-2.70405e-14
15.7701
125.772
0.361011
1.41477
1.48093
0
27.5273
3.41479
2.33274
0
0
0
0
-2.3496e-13
19.1542
0
0
0
17.383
0
0.740096
0.920047
2.64198
9.51575
14.973
22.6041
2.70763
-7.85171e-14
2.5387
4.59773
2.20837
1.87907
1.41123
0
0
0
2.8324
0
0
0
0
0
11.7649
8.01718
0
3.01448
1.29431
0
14.7963
0
2.12906
2.7778
3.60316
4.42622
8.37601
0.00777934
1.67242
0
0
3.80576
0
0
0
0
0
0
1.9967
0
1.45472
0.719346
2.02219
4.66465
0
0
1.36377
2.13982
2.50124
0
3.15161
1.16082
0.568169
0
0
1.36475
0
0
0
0
0
0
6.2704
0
0
1.38189
1.3768
4.13506
-5.86066e-14
0
0.667544
2.69183
-1.14316e-14
1.12511
9.31863
0.547476
0
0
0
0
0
0
0
0
0
0
0
0
0
0.711381
1.35719
4.09238
14.6153
0
0.661835
2.66156
2.1122
7.79526
6.14887
1.16293
0.579994
0.503099
0
0
3.35397
0
22.4013
0
0
0
6.55096
0
0
0.67079
6.0051
-2.68834e-13
0
0
0.63939
3.75458
2.38668
0
15.8234
0.024783
0.365437
0
0
0
0
0
0
0
0
0
1.96884
0
0.697604
0
1.79261
0.207745
0
0
0
0
1.40015
0
5.04686
2.16129
0
0
0
0
3.13721
6.6965
0
0
0
0
5.86891
0
0
0
1.67305
0
0
0
0.634273
0
0.550267
0
4.55983
0.254908
2.24675
0
0
-3.31716e-13
0
0
0
0
0
0
0
0
0
0
2.94453
0
0
0
0.634312
0.151236
0.560752
3.79451
0
0.507063
-8.11112e-14
0
6.76625
4.09255
2.12812
0
0
0
0
0
0
0
0
0.251882
0.711786
0
0
0
0
1.15448
0.0301504
0
0
2.15788
1.05297
0
0
0
0
0
0
0
0
0
2.16999
0
0
0.454244
0.469444
10.8732
0
0
0
0
0
0
0
0.528355
1.14786
0
0
0
0
0
0
0
0
0
6.74574
0
0
0.710144
1.28423
0
0
0
0
0
1.25426
0
0
0.0529781
1.34376
0
0
0
3.45389
0
0
0
0
0
6.11587
0
0
0
0.855735
8.90762
0
0
0
0
1.86225
2.5318
0.17785
0.5376
0.969514
0
0
0
7.18945
0
0
0
0
0
5.71654
0
0
0
0.659926
0
0
0
0
0
0
0
5.72716
0
0.568643
4.51947
0
0
2.04517
0
0
0
0
0
0
0
0
0
0
5.44873
0
0
0
0
0
3.98755
0
0.536927
1.15333
0
0
0
3.61085
0
0
0
0
0
0
0
0
0
0
5.36218
0
0
0
0
0.0118796
0
0
0
1.9813
0
0
0
0
0
0
0
0
0
0
0
0
0
0
0
0
0
0
0
0
0
0
1.0794
0
0
0
0
3.39627
0
0
0
0
0
0
0
0
0
0
6.06395
0
0
0
0
0.558794
0
0
0
0.481917
0
0
0
0
0
0
0
0
0
0
0
0
0
0
7.47884
0
0
0
0
0.535607
0
0
0.514548
0.505366
4.13449
0
1.29551
0
7.44088
0
0
0
0
0
0
0
0
0
12.0143
0
0
0
0
0.729033
0
0
0.522298
0
0
0
7.54217
0
7.33641
0
0
0
0
0
0
0
0
0
0
0
0
0
0
0.357339
0.152816
0
0
0
0
0
8.16713
2.05404
0
0
0
0
0
0
0
0
0
0
5.2315
0
0
0
0
1.64976
0.736454
0
0.50708
0
0
0
0
0
0
0
0
0
0
0
0
0
0
0
0
0
0
0
0
0
0
0
0
0
0
0
0
0
4.82997
0
0
0
0
0
0
0
0
0
0
0
0
0
0
1.11194
2.95292
0
0
0.964838
0
0
0
3.17752
0
0
0
0
0
0
0
0
0
0
0
0
0
0
0
0
3.70956
0
0
0
0
0
0
0
0
0
0
0
0
0
0
0
0
0
0
0
0
0
0
0
3.19119
0
0
0
0
0
0
0
0
0
0
0
0
0
0
0
0
0
0
0
0
0
0
0.563407
0
0
0
0
0
0
0
0
0
0
0
0
0
0
0
0
0
0
0
0
0
0
0
0.564825
0
0
0
0
0
0
0
0
0
0
0
0
0
0
0
0
0
0
0
0
0
0
0
0
0
0
0
0.330638
0
0
0
0
0
0
0
0
0
0
0
0
0
0
0
0
0
0
0
0.579371
0
0
0
0
0.0892516
0
0
0
0
0
0
0
0
0
0
0
0
0
0
0
0
0
0
0.585352
0
0
0
0
0
0
0
0
0
0
0
0
0
0
0
0
0
0
0
0
0
0
0
0
0
0
0
0
0
0
0
0
0
0
0
0
0
0
0
0
0
0
0
0
0
0
0
0
0
0
0
0
0
0
0
0
0
0
0
0
0
0
0
0
0
0
0
0
0
0
0
0
0
0
0
0
0
0
0
0
0
0
0
0
0
0
0
0
0
0
0
0
0
0
0
0
0
0
0
0
0
0
0
0
0
0
0
0
0
0
0
0
0
0
0
0
0
0
0
0
0
0
0
0
0
0
0
0
0
0
0
0
0
0
0
0
0
0
0
0
0
0
0
0
0
0
0
0
0
0
0
0
0
0
0
0
0
0
0
0
0
0
0
0
0
0
0
0
0
0
0
0
0
0
0
0
0
0
0
0
0
0
0
0
0
0
0
0
0
0
0
0
0
0
0
0
0
0
0
0
0
0
0
0
0
0
0
0
0
0
0
0
0
0
0
0
0
0
0
0
0
0
0
0
0
0
0
0
0
0
0
0
0
0
0
0
0
0
0
0
0
0
0
0
0
0
0
0
0
0
0
0
0
0
0
0
0
0
0
0
0
0
0
0
0
0
0
0
0
0
0
0
0
0
0
0
0
0
0
0
0
0
0
0
0
0
0
0
0
0
0
0
0
0
0
0
0
0
0
0
0
0
0
0
0
0
0
0
0
0
0
0
0
0
0
0
0
0
0
0
0
0
0
0
0
0
0
0
0
0
0
0
0
0
0
0
0
0
0
0
0
0
0
0
0
0
0
0
0
0
0
0
0
0
0
0
0
0
0
0
0
0
0
0
0
0
0
0
0
0
0
0
0
0
0
0
0
0
0
0
0
0
0
0
0
0
0
0
0
0
0
0
0
0
0
0
0
0
0
0
0
0
0
0
0
0
0
0
0
0
0
0
0
0
0
0
0
0
0
0
0
0
0
0
0
0
0
0
0
0
0
0
0
0
0
0
0
0
0
0
0
0
0
0
0
0
0
0
0
0
0
0
0
0
0
0
0
0
0
0
0
0
0
0
0
0
0
0
0
0
0
0
0
0
0
0
0
0
0
0
0
0
0
0
0
0
0
0
0
0
0
0
0
0
0
0
0
0
0
0
0
0
0
0
0
0
0
0
0
0
0
0
0
0
0
0
0
0
0
0
0
0
0
0
0
0
0
0
0
0
0
0
0
0
0
0
0
0
0
0
0
0
0
0
0
0
0
0
0
0
0
0
0
0
0
0
0
0
0
0
0
0
0
0
0
0
0
0
0
0
0
0
0
0
0
0
0
0
0
0
0
0
0
0
0
0
0
0
0
0
0
0
0
0
0
0
0
0
0
0
0
0
0
0
0
0
0
0
0
0
0
0
0
0
0
0
0
0
0
0
0
0
0
0
0
0
0
0
0
0
0
0
0
0
0
0
0
0
0
0
0
0
0
0
0
0
0
0
0
0
0
0
0
0
0
0
0
0
0
0
0
0
0
0
0
0
0
0
0
0
0
0
0
0
0
0
0
0
0
0
0
0
0
0
0
0
0
0
0
0
0
0
0
0
0
0
0
0
0
0
0
0
0
0
0
0
0
0
0
0
0
0
0
0
0
0
0
0
0
0
0
0
0
0
0
0
0
0
0
0
0
0
0
0
0
0
0
0
0
0
0
0
0
0
0
0
0
0
0
0
0
0
0
0
0
0
0
0
0
0
0
0
0
0
0
0
0
0
0
0
0
0
0
0
0
0
0
0
0
0
0
0
0
0
0
0
5988.59
7028.77
7636.92
5994.36
2730.85
1468.99
2957.24
7210.48
4266.7
4815.92
2880.97
2188.23
713.295
2460.56
1202.58
687.925
903.05
700.885
4075.86
618.611
2330.2
7603.89
8171.8
4466.37
6611.81
6570.19
4334.62
7536.16
5446.23
402.712
783.542
3522.09
4765.73
2003
2302.36
3665.75
3898.94
2281.86
2640.19
2974.4
4266.21
2925.01
4661.55
5151.87
7067.1
5256.28
6903.93
5595.61
7581.57
7351.34
7780.23
6741.15
3391.01
6229.24
807.425
1127.95
5280.74
456.027
3828.72
4078.16
2804.75
555.333
1819.38
1202.09
4395.74
3812.33
4261.86
9157.85
6937.95
5978.76
8077.36
7015.53
3980.64
8306.59
7409.2
1254.25
3186.75
5428.47
4682.06
2772.07
2155.45
4334.62
6543.41
4867.94
5616.38
7523.24
7426.38
3673.98
8112.1
7618.99
6919.32
6734.34
5368.37
5420.14
5539.95
5825.81
1608
1454.48
4080.11
1617.52
1240.78
3209.12
953.902
611.761
20.1902
31.4208
483
40.7087
0.258727
3003.85
482.196
1375.42
3356.75
289.161
207.273
170.875
1578.84
496.689
487.373
271.782
10878.3
1089.27
5063.58
796.492
5591.9
20.2548
843.694
4652.78
1308.13
1674.28
7208.67
1814.73
2464.58
2841.01
1086.58
275.601
679.39
318.085
72.572
67.9062
2035
7659.01
3714.82
1039.52
3368.44
868.124
7146.11
301.151
217.056
1671.59
11347.7
4112.29
6873.71
12035.3
11544.6
1060.03
1205.72
5102.74
6354.84
10670.6
11341.7
10878.7
4524.28
10569
10941.3
11827.8
8200.82
11682.5
12537.8
9259.41
10089.2
11759.6
9077.96
10934.9
8147.02
6749.92
5655.84
6181.3
6632.23
9233.72
2757.75
3253.53
3607.71
1140.58
655.737
3723.19
1129.34
753.074
42.3158
0
2824.06
238.755
522.15
874.468
3128.82
4796.54
3638.04
718.533
1011.71
165.95
2964.44
850.359
1139.68
164.008
3448.88
0
595.235
644.345
2650.24
3.85902
956.395
1538.38
616.668
1610.77
2673.16
686.713
720.266
3088.68
558.811
59.2902
85.0258
151.76
26.5863
86.815
986.192
1143.47
2698.2
535.628
580.395
164.586
98.3673
58.7796
91.3735
522.942
1086.12
858.504
192.958
1177.73
2027.3
236.126
185.2
974.892
909.044
8907.49
4174.97
10645.5
696.911
7787.24
1689.13
6873.35
4203.37
11943.8
11450.9
7382.25
10778.5
6390.65
4290.56
8041.94
3085.74
6140.32
2513.65
2026.12
5922.27
3349.22
3951.11
3279.46
4848.53
1109.53
1000.6
4941.6
952.101
986.155
911.41
2134.36
5894.66
900.328
1165
3691.35
1258.03
3233.71
2809.12
764.185
953.713
86.3216
3046.13
614.151
783.914
101.791
2515.7
18.4913
883.05
348.791
2420.21
70.5257
710.569
272.423
206.595
578.06
1696.94
510.255
596.048
1572.58
388.431
45.733
107.36
101.495
11.5697
102.189
341.591
531.907
916.278
262.649
439.732
24.7055
2175.12
267.482
43.0921
5077.7
669.477
678.621
156.191
1188.16
722.709
180.109
83.347
1584.03
1095.34
5739.01
1178.57
4015.72
638.092
3800.29
907.705
4788.02
3963.12
7116.35
6605.79
2962.01
7623.63
3230.16
2663.19
6992.47
1735.32
5935
2486.13
2312.04
6254.22
3878.84
2334.82
1632.92
3539.39
815.969
677.614
2936.41
555.638
513.409
642.939
498.026
5757.33
523.822
482.79
1037.49
1108.7
2885.62
2422.2
410
596.503
67.3728
1929.59
336.104
511.3
44.73
1818.66
143.104
886.257
416.58
1512.23
166.738
822.422
222.829
254.298
647.313
1210.11
327.441
560.446
1092.14
319.557
25.8922
15.5027
67.2084
240.603
377.482
246.43
371.629
988.915
256.303
420.59
255.114
5811.77
4019.78
1524.05
6567.14
833.21
949.884
78.831
2624.77
1664.21
274.665
103.836
4722.59
2555.75
3789.44
1073.69
4730.39
259.588
4008.91
1650.31
5170.01
5656.83
6396.05
7250.39
3523.75
7038.13
5644.1
5028.62
5955.55
3951.51
5585.5
4568.68
6747.02
6230.79
6624.88
1249.13
1224.39
2254.89
465.489
373.249
1919.28
487.285
350.772
881.841
603.46
2617.75
1163.33
665.027
1215.32
1206.25
2219.97
2014.92
234.842
461.638
44.109
1523.75
253.813
502.359
144.969
1824.28
205.704
1074.8
463.14
3789.41
277.378
2229.01
245.841
3230.86
783.194
1214.35
327.248
631.057
1443.63
366.84
2602.17
3924.87
4878.39
8370.53
3307.6
325.07
470.961
1032.24
259.718
490.595
4873.22
7600.56
8996.94
2675.95
8407.34
965.516
728.386
43.4923
5635.84
3742.89
413.267
321.755
4933.12
5991.19
5470.32
3145.96
6366.17
595.061
6019.6
6298.08
7914.69
8272.01
7735.11
9435.44
8032.11
8789.9
9069.58
9347.53
7626.97
8378.15
7397.47
8882.64
8594.34
8908.28
8554.09
1188.47
1589
1655.59
649.478
620.778
974.035
1162.23
923.725
822.656
766.282
328.695
699.326
1201.23
1567.41
2627.33
1657.73
1988.03
235.37
434.249
94.8462
1327.75
238.236
444.638
19.7256
3603.39
85.5418
1250.4
490.883
2334.93
9.86208
604.923
1575.29
410.633
593.591
1303.05
392.102
643.274
1390.51
505.996
1578.02
6897.19
6162.22
361.502
51.5783
383.973
100.754
21795.4
11333.3
12426.1
645.529
6986.76
1764.35
8650.4
318.485
506.755
761.699
219.047
385.123
6731.97
6138.8
3432.18
182.545
139.279
317.286
264.862
11170.6
11166.3
12844.5
2875.53
12083.1
3602.19
14448.8
880.363
734.456
790.305
3741.64
5705.38
387.145
616.653
2226.67
1068.15
7061.08
8037.98
9451.76
4616.98
5268.02
8229.17
6893.53
908.82
3024.7
794.62
2041.69
2351.63
45.2848
76.0688
0.358482
8978.7
6893.34
829.429
4490.67
332.827
7893.13
2672.13
1786.09
367.823
1103.19
430.444
369.826
339.371
120.683
187.412
261.52
77.9048
76.5673
80.2031
1007.24
69.9855
1983.08
1846.64
535.027
383.819
254.012
1429.98
549.075
408.73
519.573
1473.27
1145.91
1390.46
368.571
176.511
1675.82
416.445
212.305
15.3331
38.8805
20.6467
0
0
0
0
698.137
1013.88
459.059
695.023
1418.85
550.289
17.4979
79.5586
11.6538
40.7991
4.4403
21.2321
3.53139
13.1355
1.37919
15.7859
0
0
0
0
325.405
360.24
766.399
283.373
364.438
3.10638
11.0056
0
0.702
3.82676
-4.84377e-13
0
136.073
8.29282
379.404
2.94934
0
0
0
899.163
793.527
348.62
1570.64
334.505
499.945
124.735
1066.64
170.912
557.934
1189.1
93.8065
1124.97
32.9898
32.5594
5.71565
0
0
0
17.6372
0
0
461.462
329.491
3.72717
0
41.3233
3.00161
0
146.318
-1.51246e-12
4.94451
0.118993
0
0
943.402
586.688
211.929
288.595
102.135
67.6452
219.198
130.1
18.0146
23.0757
46.2159
8.03974
5.10405
30.6826
4.39323
1377.61
1101.67
319.369
343.499
286.221
858.509
164.17
264.021
119.14
54.9157
81.2106
35.7002
15.3592
0
0
5.57095
2.20914
0
8.03284
0
0
0
0
0
729.517
1219.2
411.317
774.051
1368.03
391.351
0
8.20696
1.7901
25.4148
0
5.53417
0
0
0
0
0
0
0
0
354.353
453.71
722.773
416.016
507.459
6.50175
0
0
5.03866
5.29852
0
0
0
0
0
0
0
0
0
1057.21
687.843
79.8263
1210.66
164.811
369.028
39.2243
1246.15
188.069
3.52284
0
-4.34004e-13
8.27749
-1.36553e-13
0
0
0
11.4958
0
0
0
0
235.28
82.4312
0.249381
0
3.80267
2.19828
0
0
0
10.1117
4.166
0
-1.98496e-13
741.329
445.975
117.531
230.836
118.754
87.2119
215.934
49.206
6.39475
18.8384
15.7388
1.34852
7.71983
20.6053
40.8272
732.732
673.885
252.91
220.778
55.4857
392.547
259.528
224.996
264.306
0.315111
0
4.61168
0
0
4.69206
4.58161
0
0
550.178
1104.91
374.489
388.515
909.791
212.618
0
6.68893
5.19753
0
0
4.53865
-3.85949e-13
0
0
0
0
0
0
0
382.972
591.469
572.26
275.499
370.125
0
0
0
0
0
0
0
0
0
0
0
0
0
0
569.235
487.814
82.0315
934.236
115.581
217.352
35.1813
529.532
75.2318
0
0
0
3.75043
4.15849
3.03874
3.49602
0
62.8773
9.19813
2.7957
0
2.77058
0
0
4.06413
0
0.10761
3.80284
0
0
128.879
11.0636
68.2453
45.3383
9.22973
0
8.83824
12.8351
16.6946
8.47132
28.1056
10.4525
24.3218
5.11384
23.5867
454.761
255.037
121.404
149.243
169.825
68.5349
25.2539
204.94
37.1358
19.6503
10.7108
-1.66175e-13
0
20.2478
10.143
1.59981
11.097
9.55489
311.668
518.339
206.583
224.464
240.092
202.253
0
0
11.7001
0
0
175.701
274.868
335.782
172.874
162.309
0
0
8.3006
0
4.93321
276.106
164.37
44.6181
206.019
33.402
79.7557
67.8802
42.9487
3.23282
6.82475
4.32989
-2.97017e-13
6.13461
2.543
2.9901
0
6.43294
15.0074
0
0
0
6.40806
8.95631
0
4.94661
0
3.15369
10.2127
0
6.66965
0
0
59.9333
0.60504
11.6265
30.0534
6.11851
0.185358
7.0126
58.6973
114.192
14.1509
43.5786
22.8646
28.7808
72.5681
2.17586
0
70.1574
0.240009
0
0
5.59509
0
10.1311
0
0
0
17.2219
5.41029
6.28922
0
12.8015
163.785
132.464
196.83
34.9156
37.678
88.292
9.66644
0
26.72
4.83943
0
142.65
187.778
81.8557
137.453
166.156
0
3.03368
5.52618
33.5437
3.66861
101.041
105.43
46.8607
5.86627
3.95089
69.6292
10.3991
15.4846
5.19861
2.03775
0.309993
0
0
3.06708
2.64305
18.922
0
0.505097
0
3.26542
0
0
-1.29284e-14
0
0.680686
6.0397
0
0
0
6.1527
0
0
20.0974
0
5.48608
20.1872
0
0
12.3075
27.27
3.92051
12.3293
22.2988
33.5457
66.485
0
0
0
0.103789
0
0
0
5.48047
0
14.0468
0
2.40551
5.80268
21.0138
0
0
0
4.7083
1.57635
15.2246
6.74953
0
0
0
0
0
4.98053
0
0
59.7022
101.586
0
11.8884
44.5056
0
0
0
0
0
134.723
18.6523
0
0.391907
8.58982
11.1457
0.383708
0
1.87136
0.204936
2.86799
3.21543
0
2.91094
2.48518
0
0
0
0
0
0
0
2.71301
0
4.08647
0
1.02672
0
0
5.98292
0
0
0
0
0
0
0
5.66275
13.7924
22.9384
22.1228
0
68.1603
38.2912
4.87224
0
0
0
6.06113
0
0
0
0
0
0
11.5574
12.7018
0.785807
9.33474
0
3.62314
8.32815
0.403726
0
0
0
3.43964
0
1.57394
0
0
13.3089
-2.5459e-14
0
4.60702
13.0681
0
13.3703
6.93262
0
0.249484
0
0
4.55954
24.1765
0.662868
0
0
0
7.79448
6.2511
0
4.50886
2.90264
-9.02435e-15
0
0
0
0
0
0
0
0
0
0
0
3.07197
0
4.0318
0
0.895482
2.41063
9.7772
0
0
0
0
0
3.54943
0
0
1.87669
0
20.9029
0
0
9.77354
42.4843
19.7253
0
0
0
0
0
0
0
6.08293
0
10.7409
4.61032
1.88344
3.57514
0
7.00004
9.00594
0
0
0
0
0
0
0
0
0
0
0
0
0
-1.68853e-13
12.5044
14.8982
0
6.10525
0
0
4.64728
0
0
10.3419
11.6793
0
0
0
10.1829
0
0
0
0
2.96833
8.69216
3.43961
0
0
3.57543
0
0.426821
14.9084
0.263476
0
5.90682
3.03698
0
0
0
0
0
0
0
0
0
0
0
0
0
0
0
0
8.13836
0
0
-1.87247e-13
27.8351
0
0
0
0
0
0
0
0
0
0
10.8441
0
5.47032
9.17908
0.74702
5.72707
5.56949
0
0
0
0
4.36036
0
0
0
2.18335
0
0
2.01343
0
0
0
15.1594
0
10.7428
0
0
0
0
0
11.7179
-8.57002e-13
0
13.6352
0
6.46852
0
3.66452
1.96726
3.81603
0
0
0
0.969242
0
0
0
0
0
-1.46728e-14
0
0
2.88071
0
0
0
0
0
0
0
0
0
0
0
0
0
0
0
0
10.567
0
0
12.4783
23.5171
36.576
0
0
0
0
0
0
0
0
0
17.7332
5.82696
5.62928
0
3.82234
0
5.56814
13.1092
0
0
0
0
5.61815
0
0
4.68265
0
0.980145
0.420513
0
0
2.20457
0
0
2.59878
0
0
3.63234
0
0
0
0
0
17.4733
2.72847
-1.88504e-14
0
-1.0056e-13
3.83533
2.97944
0
0
0
-6.55115e-14
0
0
0
0
0
2.99783
0
0
0
0
0
0
6.56957
0
10.168
0
0
0
0
0
0
0
0
0
0
14.4295
0
0
8.12804
0
0
0
0
0
0
0
0
0
0
0
29.7387
6.02532
0
17.8628
14.9297
0
0
13.3238
0
0
0
0
0
0
4.66807
2.44936
0
20.7626
-2.85567e-13
0
0.112903
4.22647
0
5.05419
0
0
3.28235
-5.34125e-14
0
-2.41682e-13
0
2.99923
0.202879
3.9048
0
5.2114
0
1.70426
0
0
2.349
0
0
0
0
0
0
0
0
0
0
2.65999
0
10.9137
0
0
0
0
0
0
0
0
0
0
0
0
0
0
0
10.6041
0
0
5.60206
28.1569
0
0
0
0
0
0
0
0
0
0
22.3843
0
0.476473
0
18.2767
0
1.18754
12.896
35.0455
0
0
0
0
0
4.76289
0
0
6.86295
0
17.8645
5.03887
0
0
-1.96806e-13
6.17616
0
0
0
0
0
-3.44665e-14
10.5333
0
14.0546
0
0.148424
0
-5.08166e-13
3.97932
0
0
0
0
-3.07042e-14
0
5.79259
0
8.14348
0
0
0
4.24801
3.07773
0
3.78304
10.6204
0
0
0
0
0
0
0
0
0
0
0
0
0
8.06281
0
0
8.07361
27.6518
28.0376
0
0
0
0
0
0
0
0
0
0.350596
0
12.798
15.056
14.556
0.293973
3.67378
4.47532
0
0
0
0
0
0
0
0
17.1427
6.66823
5.00358
0
0
0
0
4.89865
0
0
0
0
0
0
0
0
0
13.2136
8.02567
4.40548
0
7.59249
7.15849
0
0
0
4.09253
0
0
0
0
8.45854
3.07369
0
0
4.43306
3.067
0
0
0
0
0
0
0
0
0
0
0
0
0
0
0
0
15.8599
0
0
0
27.3728
13.5912
0
0
0
0
0
0
0
0
0
0
1.13711
0
0
11.2635
0
5.80046
0
0
0
0
0
0
0
0
0.189727
0
0
0
16.3411
0
0
0
0
0
0
0
0
0
0
0
0
0
15.4489
5.1966
4.78216
5.14724
7.75919
0
0
0
2.34681
0
0.101674
3.42052
4.89889
7.18779
0
0
1.9735
0
0
0.971511
0
0
0
1.4915
0
0
0
0
0
0
0
0
0
0
0
0
0
0
0
0
52.7525
0.967114
0
0
0
0
0
0
0
0
0
22.1597
0
5.79571
17.6016
0
6.10907
5.4981
0
12.9472
0
0
0
0
0
0
0
0
0
8.96373
0
0
6.06273
0
0
0
0
0
0
0
0
10.6384
0
0
0
0
0
0
0
0.118849
0
0
0
0
0
0
0
0
0
0
0
0
1.53642
0
0
0
0
0
0
0
0
0
0
0
0
0
0
0
0
0
0
0
0
0
26.3517
13.3938
0
0
0
0
0
0
0
0
0
11.097
0
0
1.15664
11.3363
5.01948
0
0
0
0
0
0
0
0
0
0.154571
15.2704
5.70043
4.09097
0
0
0
0
0
0
0
0
0
0
0
0
0
0
8.35475
0
0
0
3.45749
4.1742
0
0
0
0
0
0
0
0
0
0
0
0
0
0
0
0
0
0.211672
0
12.2612
0
0
0
0
0
0
0
0
0
0
0
0
0
0
0
0
0
0
0
0
0
0
0
0
0
7.47453
6.06184
0.23615
0
30.3656
-2.49264e-13
5.33319
0
0
0
0
0
0
0
0
11.9645
0
0
0
0
0
0
0
0
0
0
0
3.58583
0
0
11.4384
0
10.1017
5.60663
0
0
5.12768
0
0
0
0
0
0
0
0
0
0
9.06859
-3.77149e-14
0
0
0
0
0
0
12.2601
0
0
0
0
0
0
0
0
0
0
0
0
0
0
0
0
0
2.84578
10.8432
0
0
0
0
0
0
0
0
0
4.77682
4.96749
-3.10453e-14
0
0
0
0
0
0
0
0
0
0
0
0
0
0
2.01019
0
0
0
0
0
0
0
0
0
0
0
0
0
0
0
8.32565
0
0
0
8.25082
0
0
0
0
0
0
0
0
0
0
0
0
0
4.61047
3.12669
12.702
4.61247
0
3.1052
3.61372
0
0
0
0
0
0
0
0
0
0
0
0
0
0
0
0
0
0
0
0
0
0
0
0
0
0
0
0
5.196
4.02195
4.36296
0
5.06788
0
0
0
0
0
0
0
0
0
0
5.31463
0
0
0
0
0
0
0
0
0
1.326
0
0
20.1036
0
0
8.08205
4.07318
0
2.17036
0
0
0
0
0
0
0
0
0
0
0
0
0
0
0
0
0
-1.23203e-13
0
3.59924
0
0
0
0
0
0
0
0
0
0
0
0
0
0
0
0
0
0
0
0
0
0
0
0
0
0
0
30.4317
0
0
0.209116
21.9754
0
2.30024
0
0
0
0
0
0
0
0
0
0
0
4.02688
0
0
0
0
0
0
0
0
0
0
0
0
0
3.51642
0
0
0
0
0
0
0
0
0
0
0
0
0
0
0
0
0
0
4.69767
3.68991
0
0
5.65542
3.56086
0
0
0
0
0
0
0
0
0
0
0
0
0
0
0
0
0
0
0
0
0
0
0
0
0
0
0
18.2371
0
0
0
7.76542
0
4.74814
10.3093
10.9745
0
0
0
0
0
0
4.13781
0
5.52436
0
15.1817
0
0
0
0
0
4.96195
0
0
9.43959
0
0
0
0
0
3.91466
0
0
0
0
0
0
0
0
0
0
0
0
0
0
0
0
0
0
0
0
0
0
1.03325
0
0
0
0
0
0
0
0
0
0
0
0
0
0
0
0
0
0
0
0
0
0
0
0
0
0
28.1675
0
0
0
0.328037
0
0
0
21.1905
0
0
0
0
0
0
0
14.805
0
0
4.37595
0
0
0
0
0
0.588213
0
0
9.65329
0
0
0
0
0
3.82908
0
0
0
-1.49851e-13
0
0
0
0
7.22572
0
0
0
0
0
3.60237
0
0
0
0
3.62035
0
2.25454
4.37057
0
0
0
0
0
0
0
0
0
0
0
0
0
0
0
0
0
0
0
0
0
0
0
0
0
0
0
0
5.06096
0
0
0
0
-3.36568e-13
10.9189
0
0
0
0
0
0
4.33157
0
5.88151
13.4585
31.8538
0
0
0
0
0
0
0
0
0
0
0
0
0
0
0
0
0
0
0.208366
2.83692
0
1.36223
0
0
10.5898
0.237121
0
0
4.63629
0
0
0
3.57079
0
0
0
3.31926
0
0
0.323662
0
0
0
0
0
0
0
0
0
0
0
0
0
0
0
0
0
0
0
0
0
0
0
0
0
0
5.20344
0
0
0
0
43.8553
10.9409
0
0
0
0
0
0
4.4955
0.494539
8.76814
1.31859
14.8904
0
0
0
0
0
0
0
0
0
0
0
0
0
0
-1.09255e-14
0
0
0
0
0
0
0
0
3.45617
0
0
0
2.8464
7.51481
0
0
0
0
0
0
0
3.71508
4.21504
0
0
0
0
0
0
0
0
0
0
0
0
0
0
0
0
0
0
0
0
0
0
0
0
0
0
0
0
0
0
0
0
0
10.8221
10.9281
0
0
0
0
0
0
5.34515
0
0.191443
4.7505
30.5691
0
0
0
0
0
11.5093
0
4.31896
3.43605
0
0
0
0
0
0.188327
0
0
0
0
0
0
0
0
0
0
0
0
0.358036
0.975756
0
0
2.37772
0
12.43
0
0
0
0
0
0
0
0
0
0
0
0
0
0
0
0
0
0
0
0
0
0
0
0
0
0
0
0
0
0
0
0
0
0
0
0
5.12079
10.5481
0
0
0
0
0
0
0
3.48046
0
2.20196
3.14723
0
0
0
0
0
0
13.9092
5.0448
4.1926
0
0
0
0
0
0
0
0
0
0
0
0
-1.2484e-13
0
0
0
6.43343
0
0
0
7.11697
0
0
0.877349
3.31348
0
0
0
1.08433
4.07186
0
0.29418
0
0
0
0
0
0
0
0
0
0
0
0
0
0
0
0
0
0
0
0
0
0
0
0
0
0
0
0
0
0
0
0
0
0
0
0
0
0
0
1.72119
0
0
0
15.426
0
0
0
0
0
14.2064
0
0
0
0
0
0
0
0
0
0
0
0
0
0
0
0
0
0
0
5.77748
0
0
0
0
7.69932
0.324895
6.31076
4.14014
0
0
0
0
0
0
0
0
0
0
0
0
0
0
0
0
0
0
0
0
0
0
0
0
0
0
0
0
0
0
0
0
0
0
0
0
0
0
0
0
0
0
0
0
0
0.124458
0
0
5.19259
0
0
0
0
0
0
11.3999
0
0
0
0
0
0
0
0
0
0
0
0
0
0
0
0
0
0
0
0
0
0
0
6.48259
0
0
6.36727
11.3823
0
11.6485
3.23479
2.61757
11.4729
5.03288
0
0
0
0
0
0
0
0
0
0
0
0
0
0
0
0
0
0
0
0
0
0
0
0
0
0
0
0
0
0
0
0
0
0
0
0
0
0
0
2.58856
13.4881
0
3.86519
0
0
0
0
0
0
0
0
4.60982
0
0
0
0
0
0
0
0
0
0
0
0
0
0
0
0
0
0
0
0
0
6.32708
11.3887
0
3.15341
11.2969
0
33.9096
3.2076
0
11.0013
0
0
0
0
0
0
0
0
0
0
0
0
0
0
0
0
0
0
0
0
0
0
0
0
0
0
0
0
0
0
0
0
0
0
0
0
0
0
0
0
0
0
0
3.73774
0
0
0
0
0
0
13.5443
0
0
0
0
0
0
0
0
0
0
0
0
0
0
0
0
0
0
0
0
0
0
0
0
0
0
0
0
0
10.8171
0
0
0
0
0
0
0
0
0
0
0
0
0
0
0
0
0
0
0
0
0
0
0
0
0
0
0
0
0
0
0
0
0
0
0
0
0
0
0
0
0
0
0
0
0
0
0
0
0
0
0
0
0
0
0
0
0
0
0
0
0
0
0
0
0
0
0
0
0
0
0
0
0
0
0
0
0
0
0
0
0
0
0
0
0
0
0
0
0
0
0
0
0
0
0
0
0
0
0
0
0
0
0
0
0
0
0
0
0
0
0
0
0
0
0
0
0
0
0
0
0
0
0
0
0
0
0
0
0
0
0
0
0
0
0
0
0
2.01123
0
0
0
0
0
0
0
0
0
0
0
0
0
0
0
6.10171
0
0
0
0
0
0
0
0
0
0
0
0
0
0
0
0
0
0
0
0
0
0
0
0
0
0
0
0
0
0
0
0
0
0
0
0
0
0
0
0
0
0
0
0
0
0
0
0
0
0
0
0
0
0
0
0
0
0
0
0
0.121606
0
0
0
0
0
0
0
0
0
0
-1.76315e-13
0
0
0
0
0
0
0
0
0
0
0
0
0
0
0
0
0
0
0
0
0
0
0
0
0
0
0
0
0
0
0
0
0
0
0
0
0
0
0
0
0
0
0
0
0
0
0
0
0
0
0
0
0
0
0
0
0
0
0
0
0
0
0
0
0
0
0
0
0
6.85329
0
0
0
0
0
0
0
0
0
0
8.96504
0
0
0
0
0
0
0
0
0
0
0
0
1.2816
0
0
0
9.55943
0
0
0
0
0
0
0
0
0
0
0
0
0
0
0
0
0
0
0
0
0
0
0
0
0
0
0
0
0
0
0
0
0
0
0
0
0
0
0
0
0
0
0
0
0
0
0
0
0
0
0
0
0
0
0
0
0
0
0
0
0
0
0
0
0
0
4.63954
0
0
3.01484
0
0
0
0
0
0
0
0
0
0
-3.4443e-14
0
4.16248
7.28257
2.55035
0.477032
0
0
0
0
0
0
0
0
0
0
0
0
0
0
0
0
0
0
0
0
0
0
0
0
0
0
0
0
0
0
0
0
0
0
0
0
0
0
0
0
0
0
0
0
0
0
0
0
0
0
0
0
0
0
0
0
0
0
0
0
0
0
0
0
1.23159
0
-9.61468e-13
0
0
0
0
0
0
0
0
0
0
0
1.31187
0.709762
0
0
3.51143
0
0
0
0
0
0
0
0
0
0
0
0
0
0
0
0
0
0
0
0
0
0
0
0
0
0
0
0
0
0
0
0
0
0
0
0
0
0
0
0
0
0
0
0
0
0
0
0
0
0
0
0
0
0
0
0
0
0
0
0
0
0
0
0
13.0823
4.6842
0
0
0
0
0
0
0
0
0
0
0
0
0
3.51869
0
0
0
0
0
0
0
0
0
0
0
0
0
0
0
0
0
0
0
0
0
0
0
0
0
0
0
0
0
0
0
0
0
0
0
0
0
0
0
0
0
0
0
0
0
0
0
0
0
0
0
0
0
0
0
0
0
0
0
0
0
0
0
0
0
0
0
0
0
0
3.70684
0
0
0
0
0
0
0
0
0
0
0
0
3.53571
0
0
0
0
0
0
0
0
0
0
0
0
0
0
0
0
0
0
0
0
0
0
0
0
0
0
0
0
0
0
0
0
0
0
0
0
0
0
0
0
0
0
0
0
0
0
0
0
0
0
0
0
0
0
0
0
0
0
0
0
0
0
0
0
0
0
0
0
0
0
0
0
0
0
0
0
0
0
0
0
0
0
0
0
0
0
0
0
0
0
0
0
0
0
0
0
0
0
0
0
0
0
0
0
0
0
0
0
0
0
0
0
0
0
0
0
0
0
0
0
0
0
0
0
0
0
0
0
0
0
0
0
0
0
0
0
0
0
0
0
0
0
0
0
0
0
0
0
0
0
0
0
0
0
0
0
0
0
0
0
0
0
0
0
0
0
0
0
0
0
0
0
0
0
0
0
0
0
0
0
0
0
0
0
0
0
0
0
0
0
0
0
0
0
0
0
0
0
0
0
0
0
0
0
0
0
0
0
0
0
0
0
0
0
0
0
0
0
0
0
0
0
0
0
0
0
0
0
0
0
0
0
0
0
0
0
0
0
0
0
0
0
0
0
0
0
0
0
0
0
0
0
0
0
0
0
0
0
0
0
0
0
0
0
0
0
0
0
0
0
0
0
0
0
0
0
0
0
0
0
0
0
0
0
0
0
0
0
0
0
0
0
0
0
0
0
0
0
0
0
0
0
0
0
0
0
0
0
0
0
0
0
0
0
0
0
0
0
0
0
0
0
0
0
0
0
0
0
0
0
0
0
0
0
0
0
0
0
0
0
0
0
0
0
0
0
0
0
0
0
0
0
0
0
0
0
0
0
0
0
0
0
0
0
0
0
0
0
0
0
0
0
0
0
0
0
0
0
0
0
0
0
0
0
0
0
0
0
0
0
0
0
0
0
0
0
0
0
0
0
0
0
0
0
0
0
0
0
0
0
0
0
0
0
0
0
0
0
0
0
0
0
0
0
0
0
0
0
0
0
0
0
0
0
0
0
0
0
0
0
0
0
0
0
0
0
0
0
0
0
0
0
0
0
0
0
0
0
0
0
0
0
0
0
0
0
0
0
0
0
0
0
0
0
0
0
0
0
0
0
0
0
0
0
0
0
0
0
0
0
0
0
0
0
0
0
0
0
0
0
0
0
0
0
0
0
0
0
0
0
0
0
0
0
0
0
0
0
0
0
0
0
0
0
0
0
0
0
0
0
0
0
0
0
0
0
0
0
0
0
0
0
0
0
0
0
0
0
0
0
0
0
0
0
0
0
0
0
0
0
0
0
0
0
0
0
0
0
0
0
0
0
0
0
0
0
0
0
0
0
0
0
0
0
0
0
0
0
0
0
0
0
0
0
0
0
0
0
0
0
0
0
0
0
0
0
0
0
0
0
0
0
0
0
0
0
0
0
0
0
0
0
0
0
0
0
0
0
0
0
0
0
0
0
0
0
0
0
0
0
0
0
0
0
0
0
0
0
0
0
0
0
0
0
0
0
0
0
0
0
0
0
0
0
0
0
0
0
0
0
0
0
0
0
0
0
0
0
0
0
0
0
0
0
0
0
0
0
0
0
0
0
0
0
0
0
0
0
0
0
0
0
0
0
0
0
0
0
0
0
0
0
0
0
0
0
0
0
0
0
0
0
0
0
0
0
0
0
0
0
0
0
0
0
0
0
0
0
0
0
0
0
0
0
0
0
0
0
0
0
0
0
0
0
0
0
0
0
0
0
0
0
0
0
0
0
0
0
0
0
0
0
0
0
0
0
0
0
0
0
0
0
0
0
0
0
0
0
0
0
0
0
0
0
0
0
0
0
0
0
0
0
0
0
0
0
0
0
0
0
0
0
0
0
0
0
0
0
0
0
0
0
0
0
0
0
0
0
0
0
0
0
0
0
0
0
0
0
0
0
0
0
0
0
0
0
0
0
0
0
0
0
0
0
0
0
0
0
0
0
0
0
0
0
0
0
0
0
0
0
0
0
0
0
0
0
0
0
0
0
0
0
0
0
0
0
0
0
0
0
0
0
0
0
0
0
0
0
0
0
0
0
0
0
0
0
0
0
0
0
0
0
0
0
0
0
0
0
0
0
0
0
0
0
0
0
0
0
0
0
0
0
0
0
0
0
0
0
0
0
0
0
0
0
0
0
0
0
0
0
0
0
0
0
0
0
0
0
0
0
0
0
0
0
0
0
0
0
0
0
0
0
0
0
0
0
0
0
0
0
0
0
0
0
0
0
0
0
0
0
0
0
0
0
0
0
0
0
0
0
0
0
0
0
0
0
0
0
0
0
0
0
0
0
0
0
0
0
0
0
0
0
0
0
0
0
0
0
0
0
0
0
0
0
0
0
0
0
0
0
0
0
0
0
0
0
0
0
0
0
0
0
0
0
0
0
0
0
0
0
0
0
0
0
0
0
0
0
0
0
0
0
0
0
0
0
0
0
0
0
0
0
0
0
0
0
0
0
0
0
0
0
0
0
0
0
0
0
0
0
0
0
0
0
0
0
0
0
0
0
0
0
0
0
0
0
0
0
0
0
0
0
0
0
0
0
0
0
0
0
0
0
0
0
0
0
0
0
0
0
0
0
0
0
0
0
0
0
0
0
0
0
0
0
0
0
0
0
0
0
0
0
0
0
0
0
0
0
0
0
0
0
0
0
0
0
0
0
0
0
0
0
0
0
0
0
0
0
0
0
0
0
0
0
0
0
0
0
0
0
0
0
0
0
0
0
0
0
0
0
0
0
0
0
0
0
0
0
0
0
0
0
0
0
0
0
0
0
0
0
0
0
0
0
0
0
0
0
0
0
0
0
0
0
0
0
0
0
0
0
0
0
0
0
0
0
0
0
0
0
0
0
0
0
0
0
0
0
0
0
0
0
0
0
0
0
0
0
0
0
0
0
0
0
0
0
0
0
0
0
0
0
0
0
0
0
0
0
0
0
0
0
0
0
0
0
0
0
0
0
0
0
0
0
0
0
0
0
0
0
0
0
0
0
0
0
0
0
0
0
0
0
0
0
0
0
0
0
0
0
0
0
0
0
0
0
0
0
0
0
0
0
0
0
0
0
0
0
0
0
0
0
0
0
0
0
0
0
0
0
0
0
0
0
0
0
0
0
0
0
0
0
0
0
0
0
0
0
0
0
0
0
0
0
0
0
0
0
0
0
0
0
0
0
0
0
0
0
0
0
0
0
0
0
0
0
0
0
0
0
0
0
0
0
0
0
0
0
0
0
0
0
0
0
0
0
0
0
0
0
0
0
0
0
0
0
0
0
0
0
0
0
0
0
0
0
0
0
0
0
0
0
0
0
0
0
0
0
0
0
0
0
0
0
0
0
0
0
0
0
0
0
0
0
0
0
0
0
0
0
0
0
0
0
0
0
0
0
0
0
0
0
0
0
0
0
0
0
0
0
0
0
0
0
0
0
0
0
0
0
0
0
0
0
0
0
0
0
0
0
0
0
0
0
0
0
0
0
0
0
0
0
0
0
0
0
0
0
0
0
0
0
0
0
0
0
0
0
0
0
0
0
0
0
0
0
0
0
0
0
0
0
0
0
0
0
0
0
0
0
0
0
0
0
0
0
0
0
0
0
0
0
0
0
0
0
0
0
0
0
0
0
0
0
0
0
0
0
0
0
0
0
0
0
0
0
0
0
0
0
0
0
0
0
0
0
0
0
0
0
0
0
0
0
0
0
0
0
0
0
0
0
0
0
0
0
0
0
0
0
0
0
0
0
0
0
0
0
0
0
0
0
0
0
0
0
0
0
0
0
0
0
0
0
0
0
0
0
0
0
0
0
0
0
0
0
0
0
0
0
0
0
0
0
0
0
0
0
0
0
0
0
0
0
0
0
0
0
0
0
0
0
0
0
0
0
0
0
0
0
0
0
0
0
0
0
0
0
0
0
0
0
0
0
0
0
0
0
0
0
0
0
0
0
0
0
0
0
0
0
0
0
0
0
0
0
0
0
0
0
0
0
0
0
0
0
0
0
0
0
0
0
0
0
0
0
0
0
0
0
0
0
0
0
0
0
0
0
0
0
0
0
0
0
0
0
0
0
0
0
0
0
0
0
0
0
0
0
0
0
0
0
0
0
0
0
0
0
0
0
0
0
0
0
0
0
0
0
0
0
0
0
0
0
0
0
0
0
0
0
0
0
0
0
0
0
0
0
0
0
0
0
0
0
0
0
0
0
0
0
0
0
0
0
0
0
0
0
0
0
0
0
0
0
0
0
0
0
0
0
0
0
0
0
0
0
0
0
0
0
0
0
0
0
0
0
0
0
0
0
0
0
0
0
0
0
0
0
0
0
0
0
0
0
0
0
0
0
0
0
0
0
0
0
0
0
0
0
0
0
0
0
0
0
0
0
0
0
0
0
0
0
0
0
0
0
0
0
0
0
0
0
0
0
0
0
0
0
0
0
0
0
0
0
0
0
0
0
0
0
0
0
0
0
0
0
0
0
0
0
0
0
0
0
0
0
0
0
0
0
0
0
0
0
0
0
0
0
0
0
0
0
0
0
0
0
0
0
0
0
0
0
0
0
0
0
0
0
0
0
0
0
0
0
0
0
0
0
0
0
0
0
0
0
0
0
0
0
0
0
0
0
0
0
0
0
0
0
0
0
0
0
0
0
0
0
0
0
0
0
0
0
0
0
0
0
0
0
0
0
0
0
0
0
0
0
0
0
0
0
0
0
0
0
0
0
0
0
0
0
0
0
0
0
0
0
0
0
0
0
0
0
0
0
0
0
0
0
0
0
0
0
0
0
0
0
0
0
0
0
0
0
0
0
0
0
0
0
0
0
0
0
0
0
0
0
0
0
0
0
0
0
0
0
0
0
0
0
0
0
0
0
0
0
0
0
0
0
0
0
0
0
0
0
0
0
0
0
0
0
0
0
0
0
0
0
0
0
0
0
0
0
0
0
0
0
0
0
0
0
0
0
0
0
0
0
0
0
0
0
0
0
0
0
0
0
0
0
0
0
0
0
0
0
0
0
0
0
0
0
0
0
0
0
0
0
0
0
0
0
0
0
0
0
0
0
0
0
0
0
0
0
0
0
0
0
0
0
0
0
0
0
0
0
0
0
0
0
0
0
0
0
0
0
0
0
0
0
0
0
0
0
0
0
0
0
0
0
0
0
0
0
0
0
0
0
0
0
0
0
0
0
0
0
0
0
0
0
0
0
0
0
0
0
0
0
0
0
0
0
0
0
0
0
0
0
0
0
0
0
0
0
0
0
0
0
0
0
0
0
0
0
0
0
0
0
0
0
0
0
0
0
0
0
0
0
0
0
0
0
0
0
0
0
0
0
0
0
0
0
0
0
0
0
0
0
0
0
0
0
0
0
0
0
0
0
0
0
0
0
0
0
0
0
0
0
0
0
0
0
0
0
0
0
0
0
0
0
0
0
0
0
0
0
0
0
0
0
0
0
0
0
0
0
0
0
0
0
0
0
0
0
0
0
0
0
0
0
0
0
0
0
0
0
0
0
0
0
0
0
0
0
0
0
0
0
0
0
0
0
0
0
0
0
0
0
0
0
0
0
0
0
0
0
0
0
0
0
0
0
0
0
0
0
0
0
0
0
0
0
0
0
0
0
0
0
0
0
0
0
0
0
0
0
0
0
0
0
0
0
0
0
0
0
0
0
0
0
0
0
0
0
0
0
0
0
0
0
0
0
0
0
0
0
0
0
0
0
0
0
0
0
0
0
0
0
0
0
0
0
0
0
0
0
0
0
0
0
0
0
0
0
0
0
0
0
0
0
0
0
0
0
0
0
0
0
0
0
0
0
0
0
0
0
0
0
0
0
0
0
0
0
0
0
0
0
0
0
0
0
0
0
0
0
0
0
0
0
0
0
0
0
0
0
0
0
0
0
0
0
0
0
0
0
0
0
0
0
0
0
0
0
0
0
0
0
0
0
0
0
0
0
0
0
0
0
0
0
0
0
0
0
0
0
0
0
0
0
0
0
0
0
0
0
0
0
0
0
0
0
0
0
0
0
0
0
0
0
0
0
0
0
0
0
0
0
0
0
0
0
0
0
0
0
0
0
0
0
0
0
0
0
0
0
0
0
0
0
0
0
0
63.3909
134.828
274.862
85.0998
88.1235
555.968
712.1
212.16
52.6847
53.3574
25.2663
0
82.2671
0
221.611
104.803
1065.02
116.429
543.509
516.235
1677.24
102.659
80.5625
45.9489
522.141
342.746
521.088
124.9
221.412
226.387
721.946
196.541
113.302
422.604
331.377
1269.17
1551.38
921.095
145.353
729.826
416.805
792.548
3064.43
3665.01
2087.89
1162.48
2985.29
718.522
1951.52
1035.82
4209.09
4744.38
1248.84
685.447
3937.07
1471.69
1018.15
5216.13
4017
364.587
106.302
1016.66
321.35
5439.58
5366.2
7732.52
253.908
884.382
65.8373
915.295
4199.2
10108.1
4858.35
4041.08
4141.85
7157.6
2459.36
7235.26
4420.69
8898.38
4198.6
3444.29
962.427
1312.6
51.4582
241.818
133.333
80.3141
32.6572
111.129
139.018
0
46.5208
6.37515
46.0077
9.47348
32.5715
0
399.296
128.181
373.025
181.183
174.799
66.5717
167.264