/*--------------------------------*- C++ -*----------------------------------*\
| =========                 |                                                 |
| \\      /  F ield         | OpenFOAM: The Open Source CFD Toolbox           |
|  \\    /   O peration     | Version:  5.x                                   |
|   \\  /    A nd           | Web:      www.OpenFOAM.org                      |
|    \\/     M anipulation  |                                                 |
\*---------------------------------------------------------------------------*/
FoamFile
{
    version     2.0;
    format      ascii;
    class       volVectorField;
    location    "0.15";
    object      U;
}
// * * * * * * * * * * * * * * * * * * * * * * * * * * * * * * * * * * * * * //

dimensions      [0 1 -1 0 0 0 0];

internalField   nonuniform List<vector> 
10571
(
(0.117219 0.690971 2.71101)
(0.124766 0.128286 1.02552)
(0.254838 0.158008 2.21528)
(-0.120121 0.287567 2.50631)
(-0.225094 0.0816936 1.7558)
(0.116639 0.266999 2.23228)
(-0.135496 -0.112163 2.07688)
(0.0934777 -0.049808 1.83762)
(-0.248058 0.151559 2.4263)
(-0.278614 0.0492839 1.76537)
(0.671266 0.085027 2.68868)
(0.328646 -0.0984932 2.5086)
(-0.062068 0.0921105 1.78523)
(0.0328271 0.055494 1.79337)
(-0.102657 -0.026277 2.44179)
(-0.2421 -0.0582748 1.88402)
(0.0826435 -0.233626 1.72327)
(0.164423 -0.154466 2.397)
(0.0131193 0.0713125 2.20317)
(-0.176985 -0.124398 1.87146)
(-0.211185 -0.0171144 1.35495)
(0.106432 -0.255433 1.87199)
(-0.0114954 -0.0450268 2.09715)
(-0.0923007 -0.127417 1.60751)
(-0.0197274 -0.429377 1.32162)
(-0.00999095 -0.00256259 -0.107005)
(0.1429 0.164805 1.05638)
(0.0140636 0.274948 1.43754)
(0.0321706 0.0979874 0.579075)
(0.135936 0.111045 1.11576)
(0.0903726 0.138159 1.17655)
(0.00959378 0.0702858 1.142)
(-0.119672 0.113767 1.28407)
(-0.232612 0.00713077 0.238289)
(-0.417747 -0.0657912 1.27311)
(0.289539 0.0673168 1.47585)
(0.104357 0.0167907 1.18077)
(0.0414996 0.0254386 1.2448)
(-0.170728 -0.0334516 1.33222)
(-0.179079 -0.0708664 0.725018)
(0.0511922 -0.0359432 0.45112)
(0.0880849 -0.122177 1.2917)
(0.0143593 -0.0759761 1.22405)
(-0.228636 -0.254949 0.971361)
(-0.00684609 0.0195038 0.0314686)
(0.136839 -0.224274 0.376472)
(-0.0272439 0.10135 0.903852)
(0.101505 0.0107805 0.284094)
(0.0394198 -0.0780253 1.32996)
(-0.0123801 -0.0292325 -0.170874)
(0.0894473 0.0213891 1.38742)
(0.0724697 0.0918759 1.29787)
(0.0816646 0.0327597 0.575749)
(0.0489253 0.0899268 1.45539)
(0.135795 0.158159 1.3402)
(0.0588716 0.0949042 1.26643)
(-0.110264 0.116669 1.58936)
(-0.0973811 -0.000541583 0.166639)
(-0.0779108 0.0131011 1.31887)
(0.099935 0.0826889 1.23318)
(0.11994 0.0259451 1.33167)
(0.0615871 0.015986 1.43026)
(-0.140662 -0.0319723 1.56283)
(-0.0720941 -0.0212743 0.763099)
(0.0504903 -0.0166272 0.369723)
(0.0838689 -0.120727 1.55782)
(0.0549869 -0.0729337 1.35772)
(-0.153208 -0.240232 1.24328)
(0.0271814 -0.0168873 -0.0605087)
(0.0596825 -0.074227 0.254446)
(0.00877924 -0.136682 0.761797)
(0.120909 -0.0489443 0.249146)
(0.0432157 -0.036949 1.68434)
(-0.00108319 -0.0181997 -0.205446)
(0.0651661 -0.021886 1.48938)
(0.077032 -0.0142812 1.26057)
(0.0787514 -0.00645585 0.463862)
(-0.0208481 0.0873514 1.61702)
(0.132853 0.146263 1.31402)
(0.0797542 0.125811 1.45212)
(-0.106275 0.17475 1.74311)
(-0.0324819 0.101218 0.118429)
(-0.0333187 0.00990823 1.58716)
(-0.0119904 0.0707747 1.19506)
(0.187176 0.00932369 1.46189)
(0.0629238 -0.0507889 1.63457)
(-0.141972 -0.0771149 1.73119)
(-0.00236689 -0.00195544 0.604695)
(-0.0223834 -0.000997223 0.30531)
(0.0585139 -0.126086 1.55649)
(0.0648625 -0.0478658 1.40837)
(-0.0564003 -0.246985 1.3657)
(0.00951661 -0.121934 -0.128338)
(0.0390618 -0.0623831 0.101131)
(-0.0345401 -0.0772695 0.733049)
(0.0948094 -0.0409318 0.119326)
(0.0663105 -0.02628 1.81388)
(-0.0151753 -0.0196092 -0.146241)
(0.0192425 -0.0455426 1.56661)
(0.0756091 -0.0892015 1.34179)
(0.0663026 0.0249875 0.452625)
(-0.0369064 0.0582281 1.68619)
(0.117387 0.125061 1.32428)
(0.0545558 0.0881291 1.51085)
(-0.0300943 0.167909 1.77579)
(0.0717085 0.114091 0.219524)
(-0.0315269 0.00305302 1.68141)
(-0.0905986 0.0376221 1.21546)
(0.10507 -0.0462229 1.57254)
(0.083402 -0.0538322 1.75578)
(-0.0150391 -0.0730425 1.83509)
(0.0361406 0.0477029 0.644922)
(-0.0413356 0.00297518 0.284309)
(0.0185753 -0.0713975 1.5517)
(0.0715851 -0.021581 1.37278)
(0.0432428 -0.250049 1.39058)
(0.0446246 -0.140298 -0.219289)
(0.0177448 0.0213991 -0.017322)
(-0.0765075 -0.0302206 0.666319)
(0.0814607 -0.00209289 0.0793257)
(0.0592391 -0.00253462 1.91639)
(0.0113355 0.0012382 -0.0773407)
(0.0122625 -0.0436582 1.51408)
(0.0436882 -0.126648 1.26783)
(0.0254573 -0.0896129 0.400379)
(-0.0412304 0.0401124 1.67692)
(0.0636076 0.033958 1.32181)
(0.0411312 0.00113873 1.45559)
(0.0158974 0.0607401 1.75509)
(0.0321761 0.0324555 0.552978)
(-0.00545355 0.0329682 -0.00182674)
(-0.00517103 0.0152741 1.7791)
(-0.140224 0.00280384 1.16347)
(0.0242176 -0.0553525 1.4542)
(0.0789112 -0.0682645 1.72502)
(0.0655019 -0.0708344 1.8251)
(0.0678535 0.0176534 0.849408)
(-0.0139393 0.00907438 -0.0114358)
(-0.0823593 -0.0247203 0.351798)
(-0.0529303 -0.0282279 1.38489)
(0.081541 0.0229112 1.24857)
(0.118036 -0.157687 1.36516)
(0.0767398 -0.0321452 -0.107447)
(-0.0532033 0.017901 0.0262707)
(-0.071418 0.0393142 0.669393)
(0.0699441 -0.00580941 0.151727)
(0.0308241 -0.0142272 1.98643)
(-0.0343646 -0.0268728 0.0437726)
(-0.0397903 -0.0632879 1.52636)
(0.0211429 -0.136221 1.27134)
(0.0196609 -0.0530877 0.374739)
(-0.0625636 -0.0201178 1.66237)
(-0.0329401 -0.0585367 1.3614)
(0.0587121 -0.0564519 1.51917)
(0.0162069 0.0492352 1.80753)
(-0.0470235 -0.0420185 0.596889)
(-0.0880924 -0.13694 0.0931957)
(-0.0216083 0.0105382 1.86434)
(-0.143403 -0.0167028 1.17994)
(-0.0376637 -0.0585092 1.4815)
(0.0659093 -0.0921943 1.70332)
(0.0943229 -0.0712848 1.89371)
(0.0604066 -0.0162258 0.996774)
(0.0185114 0.0023607 -0.113464)
(-0.0961226 -0.0147439 0.404954)
(-0.0818609 -0.0111855 1.3701)
(0.0736803 0.0789809 1.03696)
(0.128318 -0.0809565 1.36743)
(0.028844 -0.0583596 -0.035803)
(-0.157387 0.0940005 0.211721)
(-0.0443789 0.02539 0.0911766)
(-0.0820367 0.0660548 0.659616)
(0.0300986 -0.0246842 0.189111)
(-0.0215164 -0.000628882 2.05817)
(-0.00615761 0.0134126 0.25691)
(-0.0738963 -0.0805372 1.46911)
(-0.0307134 -0.159724 1.18721)
(0.0145283 -0.0776078 0.437511)
(-0.0945747 -0.0539741 1.62832)
(-0.068291 -0.0918007 1.24704)
(0.0524694 -0.18031 1.46458)
(0.0211963 -0.027234 1.85827)
(-0.118959 -0.179517 0.693147)
(0.165187 -0.0238886 -0.0345798)
(0.00238356 -0.0307585 1.94947)
(-0.180942 -0.0568451 1.11766)
(-0.119994 -0.0623024 1.38228)
(0.0470381 -0.0693894 1.58913)
(0.0825639 -0.101225 1.90509)
(-0.0200485 -0.0314743 0.908332)
(0.105735 -0.0119343 -0.354148)
(-0.133895 -0.00848584 0.483236)
(-0.151855 0.0333953 1.27781)
(0.068901 0.140262 1.03907)
(0.0930552 -0.0519089 1.39672)
(0.0320943 0.0525769 0.0133496)
(-0.0458084 0.0313699 0.369223)
(-0.0818224 0.0424285 0.157491)
(-0.0803487 0.0722289 0.658952)
(0.00558535 -0.0160877 0.188584)
(-0.0430879 -0.0125538 2.12446)
(-0.0119129 -0.00318498 0.315833)
(-0.0893112 -0.0910329 1.4432)
(-0.0557017 -0.156408 1.09439)
(-0.00706765 -0.0936993 0.523095)
(-0.104294 -0.0995696 1.53038)
(-0.196069 -0.176633 1.12881)
(0.000905358 -0.287326 1.28512)
(-0.0619334 -0.0708327 1.88557)
(-0.194156 -0.36072 0.567055)
(0.0323444 0.120275 0.119768)
(-0.0117407 -0.0587609 1.99745)
(-0.155783 -0.0741609 1.03826)
(-0.253527 -0.125626 1.16616)
(0.0254492 -0.0566441 1.25223)
(0.0153206 -0.133161 1.92624)
(-0.0412983 -0.0732355 0.664723)
(0.119843 -0.189936 -0.0107173)
(-0.163911 -0.0244275 0.580875)
(-0.191054 0.0568523 1.07253)
(0.0522017 0.150264 0.904203)
(0.0630724 -0.0250843 1.42488)
(-0.109668 0.168683 0.100669)
(-0.0814533 0.0622307 0.225322)
(-0.111866 0.0706393 0.686706)
(-0.0128547 0.0214788 0.247423)
(-0.0693011 -0.00233997 2.16305)
(-0.00194762 -0.020687 0.487569)
(-0.108903 -0.0751326 1.37626)
(-0.0727429 -0.125054 1.12952)
(-0.0491476 -0.0732174 0.738195)
(-0.10129 -0.0913514 1.39341)
(-0.326539 -0.30491 1.30252)
(-0.0514636 -0.383825 1.32793)
(-0.0861115 -0.213681 1.93382)
(-0.124469 -0.276093 0.281787)
(-0.00150035 -0.103726 2.05554)
(-0.103527 -0.0912803 0.900256)
(-0.378184 -0.16042 1.23068)
(-0.0722279 -0.0760057 1.1711)
(-0.0531677 -0.170434 1.83167)
(-0.0115281 -0.0913311 0.197375)
(-0.144724 0.00112932 0.69076)
(-0.290152 0.0528175 0.994873)
(-0.00358483 0.146334 0.780899)
(0.0647304 0.010768 1.40295)
(-0.0581761 0.0945764 0.0467288)
(-0.150179 0.0592352 0.368198)
(-0.148656 0.0908514 0.783571)
(-0.0329531 0.0252204 0.291367)
(-0.11541 0.00157107 2.17491)
(-0.0176505 -0.00437798 0.772986)
(-0.108762 -0.0866474 1.44921)
(-0.139167 -0.128798 1.22461)
(-0.0570468 -0.122776 0.787295)
(-0.086221 -0.0987165 1.46089)
(-0.37518 -0.361129 1.1827)
(-0.060085 -0.370054 1.02876)
(-0.0610766 -0.318235 1.85722)
(0.048724 -0.142248 0.147952)
(-0.000306462 -0.113686 2.04462)
(-0.148159 -0.125827 1.17928)
(-0.390801 -0.107154 0.963912)
(-0.123815 -0.0721942 0.782288)
(-0.048935 -0.217971 1.69324)
(0.0412194 -0.0616803 -0.00824283)
(-0.155413 -0.0828938 0.863735)
(-0.326751 0.0888267 0.755993)
(-0.123135 0.124477 0.666933)
(0.0146649 0.0856462 1.26219)
(-0.010036 0.00886824 0.00646471)
(-0.166645 0.0621149 0.398639)
(-0.184724 0.0974637 0.814134)
(-0.185678 0.0894061 0.353343)
(-0.154195 -0.0136005 2.12706)
(-0.00584097 0.0130965 0.933628)
(-0.117187 -0.0575856 1.53564)
(-0.150395 -0.133283 1.27382)
(-0.156186 -0.154315 0.950994)
(-0.0821966 -0.124817 1.57276)
(-0.311036 -0.301525 0.902318)
(-0.230731 -0.47165 1.00105)
(-0.0652697 -0.642111 1.8193)
(0.132416 -0.122147 0.215694)
(-0.00747262 -0.0914981 2.03597)
(-0.170826 -0.134087 1.35285)
(-0.439864 -0.0837623 0.780833)
(-0.462877 -0.148698 0.680359)
(-0.107272 -0.189747 1.39514)
(0.0615233 -0.0620543 -0.0324848)
(-0.151656 -0.0644969 1.00142)
(-0.374438 0.064812 0.690481)
(-0.325772 0.161141 0.534255)
(-0.0108542 0.285131 0.939155)
(-0.020977 -0.0136197 -0.0139423)
(-0.245711 0.0579819 0.603093)
(-0.276834 0.130057 0.875925)
(-0.213063 0.159667 0.340536)
(-0.186255 -0.0230035 2.12007)
(0.00958698 0.0456059 1.00829)
(-0.130027 0.0179834 1.53931)
(-0.163175 -0.0766001 1.4086)
(-0.236337 -0.199664 1.21867)
(-0.0216857 -0.118254 1.59585)
(-0.199416 -0.162815 0.856936)
(-0.322676 -0.418065 0.81217)
(0.0744052 -0.898627 1.43504)
(0.173223 -0.124312 0.310593)
(-0.0178783 -0.0961293 2.12873)
(-0.0705373 -0.0864311 1.40711)
(-0.392229 -0.0987249 0.72406)
(-0.420965 -0.131894 0.411536)
(-0.0369856 -0.0388828 0.640753)
(0.054093 -0.0145661 -0.0325092)
(-0.129655 -0.0342114 1.16084)
(-0.267871 0.0237757 0.557513)
(-0.202525 0.123244 0.328474)
(-0.10741 0.464918 0.448233)
(-0.00507738 -0.00410106 0.0483284)
(-0.240439 0.0373126 0.731148)
(-0.328538 0.203482 0.941121)
(-0.363735 0.322758 0.488994)
(-0.209462 -0.0288415 2.19229)
(0.0308161 0.0416714 1.06129)
(-0.0824462 0.089459 1.46555)
(-0.249227 -0.0178513 1.69745)
(-0.280277 -0.272599 1.55338)
(0.0412104 -0.0356856 1.49749)
(-0.0175218 0.00240788 0.79013)
(-0.207813 -0.215461 0.645767)
(0.0859302 -0.50616 0.900912)
(0.183309 -0.0879628 0.496265)
(-0.00328578 -0.0739637 2.22409)
(-0.00482551 -0.116304 1.52085)
(-0.20922 -0.0797397 0.604856)
(-0.0694531 -0.0199667 0.163934)
(0.0480687 -0.0022296 0.136575)
(0.0285999 -0.00168593 0.0144404)
(-0.0525357 -0.0734732 1.39311)
(-0.104913 -0.054394 0.457845)
(-0.0316831 0.0265127 0.15602)
(-0.0919184 0.149847 0.206254)
(0.0259204 0.0108889 0.0945249)
(-0.147606 -0.0431135 0.779638)
(-0.345032 0.241274 1.04914)
(-0.50644 0.404928 0.670803)
(-0.202214 -0.0190914 2.12114)
(0.048484 0.0462363 1.05993)
(-0.0561503 0.161761 1.51743)
(-0.255889 0.1191 1.74563)
(-0.25609 -0.184419 1.70661)
(0.141868 0.0136116 1.35629)
(0.236124 0.217435 0.973191)
(-0.0193853 -0.0407327 0.59851)
(0.0301179 -0.162309 0.608321)
(0.135867 -0.0482277 0.806816)
(-0.0030027 -0.065028 2.22334)
(0.0723425 -0.106408 1.71776)
(-0.00818022 -0.0821146 0.60138)
(0.0565377 0.03034 0.102053)
(0.0533162 0.025431 0.0946996)
(0.0174266 0.01141 0.0707703)
(0.0235285 -0.0713161 1.36138)
(0.0369957 -0.174114 0.466621)
(0.0411102 0.00208728 0.100633)
(0.0235769 0.013134 0.106066)
(0.0135134 -0.0258037 0.108131)
(-0.218698 -0.209315 0.928065)
(-0.321456 0.126358 1.03167)
(-0.42766 0.431589 0.628842)
(-0.149002 0.00345391 1.94277)
(0.0444779 0.0593374 0.898918)
(0.00609295 0.216019 1.4117)
(-0.179567 0.236209 1.88013)
(-0.155826 0.0316282 1.55816)
(0.170237 0.0552292 1.24413)
(0.474702 0.422697 1.22713)
(0.147138 0.0813915 0.663923)
(-0.077179 0.0201845 0.617469)
(-0.122236 0.136757 0.983709)
(0.0127577 -0.0376777 2.21668)
(0.107768 -0.0756222 1.71074)
(0.0822647 -0.155834 0.754372)
(0.0956481 0.0478783 0.133881)
(0.0554669 0.037659 0.142358)
(0.0139609 0.0393504 0.124221)
(0.0636169 -0.106887 1.29188)
(-0.0342946 -0.354429 0.5929)
(0.0815718 0.00653832 0.136349)
(0.0516639 0.0101676 0.140772)
(0.0230895 -0.00928952 0.155664)
(-0.360811 -0.374558 0.956906)
(-0.36435 -0.0382936 0.921206)
(-0.190246 0.294215 0.574779)
(-0.0862282 0.0150772 1.80626)
(0.00252598 0.0123163 0.788237)
(0.0557802 0.208058 1.26032)
(-0.129881 0.287265 1.8315)
(-0.0103622 0.315993 1.44072)
(0.223687 0.109534 1.16133)
(0.60896 0.522209 1.5758)
(0.384806 0.148863 0.99727)
(-0.197203 0.532227 0.6841)
(-0.420393 0.352149 0.780411)
(-0.00353038 -0.0233757 2.12408)
(0.1914 -0.0657192 1.76008)
(0.141738 -0.0954172 1.11624)
(0.131636 0.0685529 0.207336)
(0.0791366 0.0797896 0.220682)
(0.013015 0.0861512 0.209819)
(0.0967038 -0.0716227 1.10683)
(0.000585523 -0.476366 0.780858)
(0.117889 0.00578929 0.230348)
(0.0775864 0.00107535 0.234683)
(0.0363486 0.000931976 0.227586)
(-0.587465 -0.543719 0.930168)
(-0.213953 -0.242205 0.621483)
(0.0936063 -0.0754808 0.32155)
(0.045391 0.0437472 1.41949)
(0.0163765 0.0153778 0.616969)
(0.0775454 0.197557 1.03461)
(-0.0626382 0.361328 1.63353)
(0.199254 0.340136 0.99224)
(0.213034 0.0783859 0.954042)
(0.765322 0.652013 1.75077)
(0.578109 0.490618 1.24412)
(0.163141 1.2073 1.22975)
(-0.141136 0.374471 0.442932)
(0.00996498 -0.0228328 2.00868)
(0.261281 -0.00778007 1.62998)
(0.516202 0.00738786 1.34554)
(0.214007 0.165055 0.334284)
(0.210432 0.266604 0.426653)
(0.0371747 0.188932 0.316184)
(0.214178 0.0205847 0.917091)
(0.816607 -0.318653 1.03654)
(0.188702 0.00919774 0.359692)
(0.178652 0.0891468 0.207618)
(0.0310144 0.0206956 0.221405)
(-0.295103 -0.361496 0.566817)
(0.157172 -0.194127 0.472884)
(0.166427 -0.0546773 0.381748)
(0.226445 0.0912094 1.11016)
(0.0016409 -0.0119803 0.439018)
(0.127726 0.304641 0.800332)
(0.0460231 0.542844 1.12954)
(0.31618 0.287733 0.721688)
(0.367731 0.0518728 0.710952)
(0.748539 0.619761 2.04533)
(0.692668 1.01565 1.87897)
(0.499158 0.999914 1.30579)
(0.0789752 0.249283 0.494169)
(0.0570689 -0.0273154 1.74614)
(0.498753 -1.77726e-05 1.29408)
(1.30842 0.466125 2.11126)
(0.327271 0.276477 0.59833)
(0.560913 0.863583 0.890589)
(0.149044 0.381726 0.497545)
(0.303993 0.281607 0.683147)
(0.835095 0.256194 1.17935)
(0.711206 0.37948 0.790215)
(0.315312 0.457407 0.529789)
(0.0904467 0.0323518 0.330821)
(0.244656 0.0283169 0.530457)
(0.176052 -0.023461 0.51095)
(-0.243167 0.147727 0.554733)
(0.0273837 -0.037153 1.04281)
(-0.00281821 -0.0195005 0.567155)
(0.0556165 0.0238743 0.706213)
(0.0405927 0.119204 0.852427)
(0.146039 0.041844 0.523333)
(0.0354436 0.0167972 0.663115)
(0.652229 0.503831 2.32211)
(0.608103 0.798273 1.63885)
(0.530525 0.448346 1.16644)
(0.244608 0.0757464 0.624474)
(-0.00184105 -0.041889 1.38484)
(0.236414 -0.00820876 1.00203)
(1.00792 0.542073 1.77832)
(0.634253 0.539259 1.07122)
(0.481066 0.761316 1.0289)
(0.0810323 0.0623385 0.805167)
(0.0473322 0.129612 0.569394)
(0.411259 0.409235 1.05734)
(0.660318 0.29383 0.943397)
(0.350258 0.490108 0.891246)
(0.167125 -0.0322545 0.739614)
(0.128674 0.10604 0.599222)
(-0.267753 0.00728882 0.663696)
(-0.431115 0.323956 0.728079)
(0.0245537 -0.00291641 0.871433)
(-0.024801 -0.0265161 0.557587)
(0.0695218 -0.453158 0.840476)
(0.0151496 -0.665623 0.800104)
(-0.131987 -0.0189741 0.511873)
(-0.458323 0.0110137 0.777516)
(0.330408 0.26004 1.51057)
(0.417356 0.395842 1.5902)
(0.330278 0.337007 1.43586)
(-0.159568 -0.281667 0.732795)
(0.0595928 0.0013949 0.976998)
(-0.258633 0.0414047 0.906978)
(0.40076 0.368899 1.59895)
(0.57135 0.489506 1.40308)
(0.198987 0.425886 1.1904)
(0.091467 -0.109333 1.04103)
(0.0314929 -0.051485 0.574767)
(0.287227 0.263677 1.38172)
(0.317879 0.0906793 1.10033)
(0.180793 0.364855 1.15619)
(0.1363 -0.144831 1.00358)
(-0.320671 -0.193855 0.673926)
(-0.304532 0.116342 0.88278)
(-0.38618 0.30253 0.95002)
(0.0655242 -0.0149749 0.83209)
(-0.0168473 0.0416516 0.387125)
(-0.0873523 0.0671222 0.524715)
(0.0272895 0.149137 0.575234)
(-0.161708 -0.141561 0.43652)
(0.0412634 -0.0109079 0.508199)
(0.339544 0.312604 1.86144)
(0.165505 0.390457 1.67494)
(-0.0390883 0.234677 1.22129)
(-0.236993 -0.289031 0.681746)
(-0.0232185 -0.000237423 0.999504)
(0.138537 -0.0491161 0.53502)
(0.401429 0.148811 1.72528)
(0.319445 0.290252 1.33086)
(0.0699286 0.222058 1.28884)
(0.127092 -0.198658 1.11992)
(-0.089584 -0.176574 0.384226)
(0.1973 -0.0323383 1.17866)
(0.124217 0.149866 1.23386)
(-0.0453524 0.259184 1.28818)
(0.116267 -0.172182 0.947929)
(-0.422286 -0.230193 0.723196)
(-0.291479 0.206266 0.951772)
(-0.283359 0.206996 1.05918)
(-0.0142815 -0.0138125 0.896901)
(0.00569555 0.00753131 0.334358)
(-0.00724905 0.102437 0.394999)
(-0.0794436 0.0189066 0.571019)
(-0.144714 -0.0691343 0.463903)
(0.0156885 0.00322683 0.404815)
(0.299674 0.303413 1.57795)
(0.100683 0.291595 1.51844)
(-0.183068 0.0815132 1.17092)
(-0.0371586 -0.170962 0.626661)
(-0.00736714 -0.0749579 1.03767)
(0.0672531 -0.127276 0.585938)
(0.289541 0.122335 1.53008)
(0.223187 0.235848 1.43825)
(0.0372868 0.10501 1.35418)
(0.110568 -0.191338 1.13794)
(-0.0620656 -0.227242 0.421978)
(0.0608974 -0.112135 1.122)
(-0.0191465 0.223718 1.35683)
(-0.125939 0.170128 1.29867)
(0.0994816 -0.142024 0.859752)
(-0.377437 -0.0742231 0.736405)
(-0.272263 0.207522 1.01439)
(-0.196524 0.115408 1.03202)
(-0.0549554 -0.000443305 0.945037)
(0.0273243 -0.00693255 0.325644)
(0.00479736 0.100303 0.409468)
(-0.136333 0.0232258 0.580461)
(-0.0983892 -0.019716 0.460549)
(0.0283137 -0.00711571 0.412759)
(0.269256 0.29331 1.57206)
(0.0969266 0.258523 1.5773)
(-0.188546 -0.0275337 1.13549)
(0.00271457 -0.104146 0.575015)
(0.0605514 -0.152742 0.760113)
(0.0409582 -0.106603 0.695452)
(0.238158 0.111909 1.56348)
(0.130895 0.159938 1.53285)
(0.0392673 0.0536231 1.34795)
(0.0829829 -0.162679 1.15976)
(-0.046403 -0.22018 0.454469)
(-0.0889657 -0.0645029 1.14528)
(-0.146452 0.229063 1.39701)
(-0.0987758 0.135681 1.2331)
(0.0611934 -0.0909779 0.818184)
(-0.359361 -0.0858264 0.722565)
(-0.24934 0.172148 1.02796)
(-0.0915232 0.0459305 0.963387)
(-0.041252 0.0106847 0.995159)
(0.0464082 -0.00860792 0.333602)
(-0.0287728 0.117773 0.473124)
(-0.139149 0.0370624 0.589825)
(-0.0865169 -0.0513548 0.484009)
(0.105342 -0.0340437 0.494122)
(0.276297 0.285042 1.54678)
(0.040646 0.251333 1.66472)
(-0.0873018 -0.0737162 1.07626)
(0.00994009 -0.0511467 0.534272)
(0.00583687 -0.133714 0.45934)
(-0.0352377 -0.0238792 0.901775)
(0.201939 0.0440916 1.59248)
(-0.00220778 0.065647 1.56436)
(0.0720814 0.0477112 1.31094)
(0.0699794 -0.107634 1.18985)
(-0.0947729 -0.204467 0.512911)
(-0.19049 0.00915263 1.17883)
(-0.228372 0.220579 1.37741)
(-0.0484675 0.10039 1.13586)
(0.0318267 -0.042426 0.796052)
(-0.318034 -0.10724 0.678263)
(-0.203862 0.103178 1.02642)
(0.0168447 0.0131042 0.903742)
(-0.0326724 -0.0114874 0.99185)
(0.0591141 -0.00886973 0.346896)
(-0.0480734 0.133064 0.526603)
(-0.119455 0.0713618 0.597971)
(-0.0972234 -0.0862341 0.51932)
(0.156247 -0.0590726 0.502373)
(0.244344 0.265234 1.49574)
(-0.0395701 0.226674 1.65883)
(0.0352807 -0.0991314 0.987576)
(0.00777096 -0.0437295 0.542255)
(-0.00938393 -0.144603 0.410836)
(-0.0694551 0.00624509 1.06792)
(0.126335 -0.017298 1.56663)
(-0.115074 0.0128537 1.57304)
(0.0999322 0.0486248 1.24576)
(0.0682222 -0.0695289 1.22386)
(-0.121077 -0.181607 0.573797)
(-0.227346 0.0758558 1.2087)
(-0.251804 0.234155 1.32239)
(-0.0370955 0.0334908 1.07913)
(0.0185351 -0.0022664 0.785196)
(-0.236096 -0.0664345 0.67092)
(-0.162369 0.056165 1.01633)
(0.0964207 -0.0188713 0.861149)
(-0.0413606 -0.0114916 0.964571)
(0.0610614 -0.00928058 0.364439)
(-0.0431355 0.137608 0.582564)
(-0.106538 0.0638435 0.631735)
(-0.0961272 -0.0857707 0.5448)
(0.170629 -0.107021 0.501172)
(0.193169 0.243894 1.50805)
(-0.123431 0.0972818 1.62591)
(0.0777095 -0.113984 0.903846)
(-0.0130021 -0.0726806 0.610145)
(-0.010689 -0.183232 0.425761)
(-0.13378 -0.0315426 1.17758)
(-0.0623987 -0.0879695 1.5699)
(-0.184931 0.00406186 1.51864)
(0.06065 0.0180485 1.17069)
(0.073576 -0.0998679 1.24631)
(-0.106728 -0.142044 0.634435)
(-0.221484 0.104964 1.21889)
(-0.228153 0.237492 1.26017)
(-0.0123787 -0.0183328 1.04845)
(0.031494 0.0156032 0.776997)
(-0.164027 -0.0410269 0.70073)
(-0.120031 0.0246708 0.980046)
(0.145001 -0.0548259 0.818586)
(-0.0732761 0.0417582 0.649036)
(0.0570909 -0.0141701 0.384423)
(-0.0291371 0.11398 0.645529)
(-0.10677 0.00035739 0.717618)
(-0.0680185 -0.0573224 0.556473)
(0.154812 -0.154039 0.518201)
(0.150239 0.169249 1.54577)
(-0.170943 -0.0551764 1.58509)
(0.0614341 -0.109104 0.832619)
(-0.0418292 -0.103701 0.680936)
(-0.0482392 -0.223802 0.497832)
(-0.251894 -0.0942953 1.24417)
(-0.265555 -0.131407 1.56224)
(-0.235176 -0.000809712 1.36309)
(-0.0103581 -0.0333095 1.05925)
(0.0712195 -0.154294 1.31735)
(-0.0655624 -0.0742792 0.690684)
(-0.204406 0.0985829 1.22041)
(-0.161373 0.167798 1.21169)
(0.0301165 -0.022508 1.02404)
(0.0598003 -0.0571899 0.742806)
(-0.0938954 -0.02289 0.740116)
(-0.0498835 -0.00937514 0.908756)
(0.14469 -0.0662041 0.789426)
(-0.0215333 0.0083588 0.494158)
(0.0510928 -0.0240064 0.418694)
(-0.0231306 0.0385008 0.720572)
(-0.0836152 -0.0604326 0.777931)
(-0.0245504 -0.0227538 0.569943)
(0.130615 -0.186284 0.561249)
(0.0941864 0.0233396 1.5674)
(-0.163323 -0.10799 1.54864)
(0.0360476 -0.0857607 0.780255)
(-0.074961 -0.122317 0.725538)
(-0.0568949 -0.242748 0.626964)
(-0.305996 -0.12784 1.28415)
(-0.3504 -0.111812 1.52094)
(-0.238594 -0.0134792 1.20696)
(-0.0512217 -0.0612852 0.947474)
(0.0778901 -0.129786 1.3461)
(-0.0210411 0.00817531 0.746962)
(-0.139836 0.0470572 1.20117)
(-0.0470315 0.015266 1.14067)
(0.0689368 -0.0460548 0.998566)
(0.0708025 -0.140899 0.725594)
(-0.0338443 -0.000715424 0.764141)
(0.0023534 -0.007946 0.835075)
(0.101315 -0.0504425 0.764832)
(0.0247725 -0.00205959 0.51553)
(0.0382283 -0.0295274 0.482283)
(-0.0373566 -0.0657393 0.796086)
(-0.0271051 -0.0978498 0.80828)
(0.0170957 -0.000642816 0.597051)
(0.0814923 -0.184548 0.629626)
(0.0418616 -0.0807435 1.567)
(-0.140971 -0.0945321 1.52636)
(0.0327773 -0.0597507 0.754412)
(-0.109097 -0.112772 0.744862)
(-0.0477843 -0.230318 0.724228)
(-0.277264 -0.132569 1.30056)
(-0.337053 -0.0686943 1.47466)
(-0.17805 0.0064034 1.10374)
(-0.0552621 -0.0575255 0.855243)
(0.0833398 -0.108929 1.3288)
(-0.00248099 0.0662141 0.800234)
(-0.0739666 0.0137907 1.15404)
(0.0308362 -0.0666581 1.06981)
(0.0996861 -0.0775814 0.965908)
(0.068177 -0.168899 0.728724)
(0.00798351 0.0240279 0.770406)
(0.0330107 0.00919369 0.790914)
(0.0617535 -0.0312629 0.748127)
(0.0546606 -0.00212891 0.592698)
(0.0210063 -0.0296146 0.577798)
(-0.055851 -0.146331 0.852737)
(0.027359 -0.115882 0.827743)
(0.0496717 0.00300917 0.644712)
(0.0097926 -0.150737 0.714411)
(-0.0167414 -0.116032 1.52828)
(-0.0664225 -0.0406926 1.46072)
(0.0501005 -0.0418717 0.761768)
(-0.114007 -0.0756126 0.741256)
(-0.0300746 -0.178114 0.785433)
(-0.137308 -0.128394 1.28825)
(-0.234874 0.0274627 1.38492)
(-0.0825322 0.0500398 1.04542)
(-0.0377661 -0.0335456 0.803784)
(0.0941356 -0.0536169 1.32909)
(-0.0099369 0.0821786 0.853215)
(-0.0392586 0.0356584 1.10751)
(0.0731784 -0.063957 1.01244)
(0.116633 -0.0689247 0.925398)
(0.0580035 -0.159268 0.740091)
(0.0324188 0.0439162 0.781329)
(0.0474857 0.0192106 0.779456)
(0.038493 -0.0150686 0.755317)
(0.0650414 -0.00140173 0.690835)
(0.00722371 -0.0272962 0.691939)
(-0.0602227 -0.173695 0.880026)
(0.055115 -0.115171 0.847176)
(0.0666244 -0.00865331 0.71361)
(-0.0493632 -0.107526 0.794798)
(-0.0575388 -0.101633 1.43198)
(0.0282173 0.00106797 1.33809)
(0.0764677 -0.0258407 0.806713)
(-0.0694359 -0.0215022 0.753469)
(-0.0167037 -0.118674 0.827183)
(-0.0617122 -0.107865 1.21886)
(-0.121769 0.0917836 1.30372)
(-0.000724758 0.0751151 1.01564)
(-0.0159414 -0.00958302 0.801639)
(0.0114528 0.000992131 1.32816)
(-0.0243718 0.0776061 0.891754)
(-0.0136714 0.0667085 1.07123)
(0.08789 -0.0270111 0.978448)
(0.111292 -0.0264203 0.900375)
(0.0379303 -0.103042 0.776699)
(0.0427172 0.0542762 0.817192)
(0.0523002 0.0232996 0.798343)
(0.0263906 -0.0049569 0.788311)
(0.058887 -0.000591819 0.787583)
(0.00217843 -0.0230735 0.800265)
(-0.0424683 -0.149694 0.90552)
(0.0570472 -0.0980747 0.874132)
(0.0629919 -0.0136506 0.79094)
(-0.070205 -0.075281 0.86488)
(-0.0598725 -0.0762409 1.30152)
(0.0702546 0.00380369 1.21637)
(0.0760351 -0.0214252 0.853368)
(-0.0356151 -0.00451265 0.788926)
(-0.0114746 -0.0753404 0.876189)
(-0.0721994 -0.0674304 1.12021)
(-0.0442361 0.0974671 1.23516)
(0.0419181 0.0718969 1.00339)
(0.00494852 0.00573275 0.839142)
(-0.135984 0.0422925 1.17896)
(-0.0282899 0.0651154 0.922574)
(0.0039911 0.0768435 1.04588)
(0.0830545 0.00113495 0.965654)
(0.0888417 0.00572341 0.901139)
(0.0239665 -0.0472601 0.823742)
(0.0424318 0.0508711 0.865993)
(0.0491503 0.0204766 0.839906)
(0.0217 -0.00085534 0.83475)
(0.0454152 0.000255755 0.863512)
(0.00286744 -0.0178565 0.882039)
(-0.018516 -0.100341 0.93458)
(0.0455238 -0.0680792 0.907075)
(0.0473995 -0.0100882 0.857777)
(-0.0600671 -0.0521326 0.922027)
(-0.0405512 -0.0584125 1.18234)
(0.0717082 -0.00632326 1.11973)
(0.0594347 -0.0185912 0.897065)
(-0.0198547 -0.0175748 0.841185)
(-0.00791963 -0.0467085 0.925678)
(-0.069005 -0.0394037 1.04931)
(-0.00402504 0.0727479 1.16672)
(0.0534551 0.0538741 0.997622)
(0.0137864 0.00990758 0.889922)
(-0.163113 0.060128 1.02098)
(-0.0207423 0.0465891 0.951418)
(0.0125461 0.0669788 1.0263)
(0.0674172 0.012743 0.96521)
(0.0645331 0.0151674 0.918123)
(0.0123708 -0.0178918 0.871098)
(0.0358476 0.0397789 0.91222)
(0.0409602 0.0143577 0.884635)
(0.0189176 -0.000538598 0.881412)
(0.0321633 0.000764403 0.913799)
(0.00424134 -0.0130175 0.932828)
(-0.0037837 -0.0587634 0.956738)
(0.0328394 -0.0413613 0.935591)
(0.0315897 -0.00493966 0.905539)
(-0.037438 -0.0339852 0.958355)
(-0.0205346 -0.0448036 1.09864)
(0.0571898 -0.0116262 1.05723)
(0.0440079 -0.0135276 0.929482)
(-0.00977422 -0.0146681 0.895945)
(-0.00457862 -0.0277996 0.960975)
(-0.0468765 -0.0240662 1.0159)
(0.0098883 0.043912 1.10496)
(0.0494567 0.0340404 0.992398)
(0.0165193 0.00718588 0.929398)
(-0.104814 0.0337033 0.96111)
(-0.0107693 0.0285321 0.972607)
(0.0143234 0.0496261 1.01157)
(0.0494972 0.0132851 0.969268)
(0.0437478 0.0112425 0.939943)
(0.00557372 -0.00782732 0.916454)
(0.0267452 0.0267566 0.946326)
(0.0314153 0.00806675 0.921792)
(0.0163474 -0.00168467 0.91881)
(0.0218901 0.000913328 0.943879)
(0.00466171 -0.00917484 0.960357)
(0.00260633 -0.0327176 0.969821)
(0.0229059 -0.0231299 0.95519)
(0.0201962 -0.00153516 0.935976)
(-0.0192144 -0.020909 0.976638)
(-0.00737044 -0.0323515 1.04758)
(0.040637 -0.0108127 1.02076)
(0.0316962 -0.00851033 0.949062)
(-0.00327958 -0.00526784 0.930222)
(-0.00221106 -0.0157756 0.979458)
(-0.0249665 -0.0140369 1.00261)
(0.0117205 0.0231666 1.05835)
(0.0393921 0.0190317 0.986973)
(0.0173685 0.00376218 0.951703)
(-0.026092 0.00923323 0.961589)
(-0.0037356 0.0158017 0.983874)
(0.0127925 0.033148 1.00126)
(0.0341469 0.00935538 0.973653)
(0.0285157 0.00430453 0.95678)
(0.00456187 -0.00694606 0.945057)
(0.018268 0.015946 0.967153)
(0.0227706 0.00339653 0.947797)
(0.0136354 -0.00271055 0.944346)
(0.0146633 0.000835053 0.960918)
(0.00425453 -0.00632903 0.973956)
(0.00444854 -0.0181007 0.97675)
(0.0157603 -0.0124728 0.966962)
(0.0128824 5.72492e-05 0.954417)
(-0.00833926 -0.0125086 0.984243)
(-0.000527507 -0.0216996 1.01829)
(0.0271832 -0.00762076 1.0007)
(0.0218131 -0.00518769 0.960758)
(-0.000218785 -0.000901536 0.949388)
(-0.0008977 -0.00870009 0.986762)
(-0.0110283 -0.00770614 0.996561)
(0.00993399 0.0113816 1.02754)
(0.028197 0.00968284 0.982483)
(0.01476 0.00161813 0.963353)
(-0.00271036 0.00156169 0.961497)
(-0.000158536 0.00850053 0.988104)
(0.010299 0.0205164 0.994428)
(0.0226924 0.00513002 0.977024)
(0.0182659 0.000476229 0.967234)
(0.0040734 -0.00597252 0.95878)
(0.0119089 0.0087018 0.97796)
(0.0159589 0.00070525 0.963881)
(0.0107169 -0.00292051 0.960088)
(0.00978056 0.000672691 0.970366)
(0.00347396 -0.00430965 0.980134)
(0.00434579 -0.0101215 0.98021)
(0.0107484 -0.00663837 0.973657)
(0.00829579 0.000607653 0.965475)
(-0.00283402 -0.00743563 0.986539)
(0.00234611 -0.0136748 1.00196)
(0.017674 -0.00462634 0.990142)
(0.0142596 -0.00314592 0.968223)
(0.000828539 0.000337122 0.961365)
(-0.00030612 -0.00478335 0.988499)
(-0.00399813 -0.00413014 0.992788)
(0.00769758 0.00532601 1.0085)
(0.0189426 0.00454801 0.97966)
(0.0108628 0.00047119 0.97065)
(0.00173136 -0.000144816 0.9661)
(0.00119109 0.00469807 0.988761)
(0.00784286 0.0119594 0.989992)
(0.0147402 0.00214438 0.979344)
(0.0116162 -0.000851003 0.973662)
(0.00313404 -0.00426793 0.966822)
(0.00764002 0.00443816 0.982639)
(0.0109397 -0.000523349 0.973002)
(0.00791899 -0.00254262 0.969392)
(0.00652776 0.000508624 0.975587)
(0.00264816 -0.00290226 0.982652)
(0.00359194 -0.00573323 0.981817)
(0.00728295 -0.00349842 0.977423)
(0.0054019 0.000701755 0.972125)
(-0.000403701 -0.00443716 0.986597)
(0.00315066 -0.00825896 0.992979)
(0.0113262 -0.00254415 0.984897)
(0.00901214 -0.00184427 0.973009)
(0.000959571 0.000540478 0.969147)
(-6.74569e-05 -0.00267625 0.988018)
(-0.000963434 -0.00224336 0.989981)
(0.00576696 0.00243836 0.997201)
(0.0123068 0.00193556 0.97833)
(0.00739271 -0.00011411 0.975321)
(0.00199638 -0.000418536 0.971176)
(0.00145062 0.00266568 0.987952)
(0.00580129 0.00669125 0.987225)