/*--------------------------------*- C++ -*----------------------------------*\
| =========                 |                                                 |
| \\      /  F ield         | OpenFOAM: The Open Source CFD Toolbox           |
|  \\    /   O peration     | Version:  5.x                                   |
|   \\  /    A nd           | Web:      www.OpenFOAM.org                      |
|    \\/     M anipulation  |                                                 |
\*---------------------------------------------------------------------------*/
FoamFile
{
    version     2.0;
    format      ascii;
    class       volVectorField;
    location    "0.75";
    object      U;
}
// * * * * * * * * * * * * * * * * * * * * * * * * * * * * * * * * * * * * * //

dimensions      [0 1 -1 0 0 0 0];

internalField   nonuniform List<vector> 
10571
(
(-0.0430664 0.140329 0.83121)
(-0.0237806 0.0610885 0.683289)
(-0.0356858 0.00106286 1.05167)
(-0.126433 -0.0566867 1.091)
(-0.0546005 -0.0415444 0.840545)
(-0.18224 0.074575 1.11813)
(-0.224657 -0.13574 1.01463)
(-0.105753 -0.179949 0.994447)
(-0.00916156 -0.120746 1.01049)
(0.00462158 -0.0494173 0.963499)
(0.0720516 -0.0379724 1.03345)
(-0.277703 -0.0547464 1.22784)
(-0.293145 -0.0630409 0.94313)
(-0.0814714 -0.0655677 0.970115)
(0.0159333 -0.0451375 1.06194)
(0.11262 -0.0172789 0.876585)
(-0.211921 -0.167654 0.922253)
(-0.202722 -0.0291476 0.905681)
(-0.0450111 0.0222569 1.0265)
(0.0621343 0.0635332 0.812474)
(0.0189118 -0.0187159 0.821902)
(-0.0816137 -0.0342173 0.879946)
(-0.030699 0.0671781 0.899545)
(-0.00673163 -0.00981898 0.726367)
(-0.0628349 -0.00662713 0.885001)
(-0.0173633 0.0614752 0.472897)
(0.130339 0.446418 1.29482)
(-0.116351 0.335387 1.0458)
(-0.118716 0.0221385 0.69429)
(-0.343156 0.510281 1.21077)
(-0.00435944 0.00847672 0.560817)
(-0.0102472 0.00961433 0.639994)
(-0.082059 0.0821912 0.578284)
(-0.21512 0.0164817 1.00365)
(-0.0910594 0.13892 1.59038)
(-0.44549 -0.0530568 1.39868)
(0.0280946 0.0343443 0.528152)
(-0.0156526 0.0320147 0.563576)
(-0.113849 -0.0586204 0.57914)
(-0.147341 -0.00120203 0.803834)
(-0.170459 -0.230966 0.721039)
(0.0497296 -0.0858565 0.542747)
(-0.0974573 -0.09229 0.577052)
(-0.189463 -0.162145 0.874578)
(0.00476716 -0.0246609 0.843568)
(-0.0251449 -0.186042 0.795945)
(-0.0195139 -0.161913 0.893267)
(-0.0193194 -0.0027402 0.732969)
(-0.00717449 0.0096247 0.248314)
(0.0041503 0.00226008 0.397557)
(-0.0123559 -0.0259892 0.204342)
(0.0147659 -0.0518585 0.14856)
(-0.00534887 0.0137829 0.264485)
(0.02657 -0.0361632 0.140834)
(0.0533941 0.156756 0.956729)
(0.00195905 0.152218 0.867313)
(-0.0567912 0.0557943 1.14155)
(-0.0211852 0.000786438 0.743286)
(-0.298089 -0.18666 3.42577)
(0.110545 0.0146787 -0.0267985)
(0.115191 0.0331323 1.14076)
(-0.0207485 0.0372355 1.21609)
(-0.113798 -0.0478923 1.16986)
(-0.0310725 0.000460971 0.553413)
(0.0398215 0.0727341 0.544482)
(0.130904 -0.140509 1.26637)
(-0.121544 -0.12683 1.24304)
(-0.0401058 -0.0145426 0.613427)
(-0.00622156 0.00909008 0.594066)
(0.0720713 -0.0422543 0.796293)
(-0.0533041 0.0248367 0.80296)
(-0.0223114 -0.00407102 0.620418)
(0.0525074 0.00404214 -0.103463)
(-0.0286842 -0.0111047 -0.272155)
(0.0264628 0.049109 -0.0345632)
(0.0523535 0.164014 0.512726)
(-0.15744 -0.0414419 -0.211604)
(0.0568255 0.08715 -0.0131465)
(0.207661 0.136634 0.470178)
(-0.0630287 0.0360187 0.470393)
(-0.110591 0.00600533 0.395025)
(-0.0446031 0.1253 0.226156)
(0.165342 -0.00875548 2.45097)
(-0.127046 0.0613891 0.126465)
(0.0376036 -0.121919 0.37065)
(0.00993977 -0.070908 0.337275)
(0.0589329 0.0142241 0.432697)
(-0.0557569 0.0682397 -0.0723769)
(0.0792738 -0.0857232 -0.0687934)
(-0.0366922 0.0635202 0.438473)
(0.00991182 0.0975962 0.458708)
(-0.028801 0.0207276 -0.0521198)
(-0.0314122 -0.0290499 0.151088)
(0.10165 0.144473 -0.104519)
(-0.0761637 -0.0333614 0.163399)
(-0.0337276 0.0607886 -0.24291)
(0.0645409 0.0199265 0.168332)
(-0.0383829 0.0336314 -0.159892)
(0.0982528 0.0168584 0.130612)
(-0.0223739 0.141905 0.592886)
(-0.047306 0.118129 -0.0140408)
(-0.0835641 0.0916393 0.0697317)
(0.201453 0.103166 0.574683)
(-0.0669229 0.0597961 0.640703)
(-0.113474 0.000895457 0.431168)
(0.0462837 0.114505 0.29496)
(-0.00742092 -0.0448784 2.11191)
(-0.0880565 -0.0289392 0.470329)
(0.0837536 -0.130171 0.619963)
(-0.040391 -0.0751479 0.626847)
(0.00474424 -0.0418191 0.574466)
(-0.00483406 0.034008 0.188467)
(-0.0546216 -0.0560337 0.0316899)
(-0.0262987 -0.0311127 0.545508)
(-0.050953 0.0354103 0.564576)
(0.0260293 0.029114 0.0486756)
(0.0161363 0.00119804 0.293973)
(-0.0105633 0.0285763 -0.0751637)
(-0.0831386 0.0586707 0.271547)
(-0.00732257 0.0431841 0.165042)
(0.0363891 0.0144734 0.139419)
(-0.0300701 0.0273828 -0.0373075)
(0.0315741 -0.00463276 0.073535)
(0.0025103 0.0288492 0.613011)
(0.0701135 0.175203 0.0167662)
(-0.0658651 -0.0425895 0.107086)
(0.157902 0.0675558 0.738519)
(-0.102397 -0.0729744 0.836508)
(-0.0662409 -0.0089204 0.424076)
(0.0482588 0.0485143 0.122678)
(-0.0676397 0.0726407 -0.0416088)
(0.0368543 -0.0665358 1.95218)
(-0.0934176 0.026976 0.578913)
(0.0919811 -0.158325 0.605041)
(-0.0427621 -0.0399572 0.610947)
(-0.0341716 -0.106183 0.533151)
(0.0188383 0.0186884 0.194057)
(0.146391 0.0876056 0.124674)
(-0.0577002 0.0830357 0.121977)
(-0.0220493 -0.114809 0.453926)
(-0.107315 -0.0253351 0.509474)
(0.0415917 0.00499296 0.092807)
(0.028715 0.0127564 0.355878)
(0.00531509 0.0951519 -0.0295819)
(0.0156738 -0.0159087 0.227757)
(-0.0088642 0.0239286 0.149653)
(-0.000925888 -0.00306104 0.0795554)
(-0.00416551 0.014514 -0.0560061)
(0.0119139 -0.0282034 0.067727)
(0.044709 -0.0856883 0.670174)
(0.0494654 0.129976 0.00111269)
(-0.0513735 -0.0129922 0.203069)
(0.149478 0.0926455 0.746236)
(-0.0919591 -0.0978811 0.943822)
(-0.0367676 0.0723386 0.407413)
(-0.103366 0.00287541 0.0167297)
(-0.0954478 0.0453413 -0.0836864)
(0.0283866 -0.0303887 1.75222)
(-0.0720027 0.0542376 0.588787)
(0.094967 -0.152116 0.624761)
(-0.014614 -0.0138676 0.625993)
(-0.0301118 -0.156939 0.500181)
(0.0118292 -0.01936 0.208872)
(0.0788964 0.0360086 0.151636)
(-0.063864 0.133807 0.247406)
(0.0639427 -0.142741 0.351514)
(-0.130462 -0.0618745 0.464269)
(-0.0085947 -0.0126306 0.113251)
(0.0635828 -0.0365157 0.277943)
(0.0286381 0.041123 0.0986905)
(0.0242405 0.0950282 0.0515224)
(0.0662708 -0.0260183 0.210046)
(0.0437446 0.0362419 0.116843)
(-0.0722806 -0.018924 0.156882)
(0.0019504 0.00451 -0.0850195)
(-0.0259387 -0.0128969 0.0721484)
(0.0490176 -0.191178 0.623178)
(0.0419227 0.0389453 0.0871126)
(-0.0394135 0.0294804 0.268509)
(0.140149 0.164932 0.70049)
(-0.0561243 0.00154554 1.00216)
(0.00818281 0.200955 0.425578)
(-0.0626589 -0.020624 -0.0108497)
(-0.0526097 -0.0709796 -0.0781387)
(0.0192706 -0.00666523 1.65782)
(-0.0269898 0.0225734 0.543175)
(0.102002 -0.0940093 0.650851)
(0.0158376 0.0176777 0.676974)
(-0.0054062 -0.146789 0.509279)
(0.0421841 -0.0571684 0.296461)
(0.0612947 -0.00755999 0.142413)
(0.0283355 0.140856 0.355938)
(0.148683 -0.0861931 0.332817)
(-0.121272 -0.0637541 0.467101)
(0.00555895 0.0061175 0.131051)
(-0.0932264 0.044986 0.134566)
(0.0285774 0.0308377 0.0735906)
(0.0267183 0.0673945 0.113147)
(0.0781029 -0.0391508 0.229965)
(0.0741815 0.0139728 0.13618)
(-0.10514 -0.0317609 0.287246)
(0.0162863 -0.010734 -0.0783151)
(-0.0364003 0.00201306 0.070509)
(-0.0366562 -0.205457 0.491306)
(0.0547472 -0.0135077 0.196617)
(-0.0123731 0.0112018 0.320363)
(0.0648495 0.192317 0.621293)
(0.0158403 0.193573 0.983414)
(0.0368098 0.245167 0.463602)
(-0.0482121 -0.0576492 -0.00259579)
(-0.0263747 -0.116231 -0.0801428)
(0.0112666 -0.0157634 1.63808)
(0.00199607 -0.00837756 0.520135)
(0.0731123 -0.0352336 0.662794)
(0.0393989 0.0657997 0.748627)
(0.0454677 -0.0600518 0.55217)
(0.0433566 -0.0507989 0.321268)
(0.0644277 -0.0613236 0.0932452)
(0.139451 0.0416903 0.315405)
(0.186656 -0.0442037 0.350385)
(-0.0619948 -0.0380344 0.495192)
(0.0124168 0.0370852 0.18145)
(-0.0578037 0.0770131 0.102345)
(0.0128507 0.0315121 0.142927)
(0.0225101 0.00304424 0.236997)
(0.0659906 0.00265469 0.126607)
(-0.0749074 -0.0226026 0.41311)
(0.0309808 -0.0271027 -0.0605012)
(-0.00480611 -0.00158536 0.0860893)
(-0.0488819 -0.0856986 0.416209)
(0.0620551 0.0270911 0.238074)
(0.0360187 -0.0392058 0.353953)
(0.020921 0.154595 0.569504)
(0.0655155 0.234891 0.891882)
(0.0477207 0.231573 0.483781)
(-0.0737433 -0.0739112 -0.0137219)
(-0.018355 -0.0362945 1.60597)
(0.0922109 -0.0545019 0.546269)
(0.0349318 0.010876 0.68749)
(0.0660801 0.100859 0.805195)
(0.0798361 0.0118036 0.597355)
(-0.00857993 -0.0157111 0.292914)
(0.106612 0.0550011 0.203663)
(0.188015 -0.0330828 0.366534)
(0.0126958 -0.0166829 0.541667)
(0.0258676 0.0578799 0.27524)
(-0.0285081 0.0656649 0.0969699)
(-0.000993609 0.00859262 0.148503)
(-0.0111188 0.0343558 0.245012)
(0.0401161 0.00423834 0.0967371)
(-0.0395744 -0.00712311 0.458493)
(0.0493299 -0.041068 -0.0404347)
(0.0379405 -0.0111825 0.105462)
(-0.00591452 0.0477301 0.36287)
(0.044772 0.0407417 0.213489)
(0.0804398 -0.0609532 0.337231)
(0.0491525 0.109036 0.549366)
(0.0939584 0.176756 0.824155)
(0.0434662 0.193571 0.530715)
(-0.0178275 -0.0369065 0.0110211)
(-0.0352139 -0.0772089 1.61622)
(0.0745113 -0.0665907 0.551488)
(0.0393643 0.044983 0.70456)
(0.0998465 0.120189 0.85047)
(0.0970938 0.0224307 0.671259)
(0.0302625 -0.0186604 0.300973)
(0.0822276 0.0725754 0.119725)
(0.17725 -0.0436145 0.378408)
(0.0221339 -0.0169888 0.592506)
(0.0361719 0.0530325 0.3683)
(-0.0103614 0.0316114 0.0960954)
(0.000690705 0.00819362 0.149793)
(-0.0323729 0.0377692 0.260256)
(0.0133086 0.0204099 0.0865749)
(-0.0286139 0.00986121 0.385445)
(0.0676589 -0.0492061 -0.0260638)
(0.0638925 -0.0140086 0.124303)
(0.00256206 0.124914 0.294486)
(0.00300487 0.00275214 0.177795)
(0.0789446 -0.0636956 0.29214)
(0.107906 0.0791594 0.555134)
(0.107859 0.113156 0.815432)
(0.0171242 0.115958 0.576431)
(-0.000253822 -0.00833417 0.0448322)
(-0.0164774 -0.0932722 1.69316)
(0.0802755 -0.0196619 0.436664)
(0.0758951 0.0510242 0.723516)
(0.121818 0.121219 0.889326)
(0.0942714 0.00672084 0.739486)
(0.0397043 -0.0031089 0.323005)
(0.0785315 0.0785981 0.0708699)
(0.128566 -0.0701679 0.399039)
(-0.011546 -0.0102557 0.651787)
(0.0357076 0.040673 0.426623)
(-0.00736671 0.0383763 0.121635)
(0.0152037 0.0237598 0.148756)
(-0.0376871 0.0315472 0.2718)
(-0.00382954 0.0277373 0.105283)
(-0.0225739 0.012918 0.282058)
(0.0819448 -0.0543266 -0.0160975)
(0.0669615 -0.00958846 0.138418)
(-0.00657076 0.133856 0.238638)
(-0.0354171 -0.0305165 0.165578)
(0.0295299 -0.0777036 0.22012)
(0.125873 0.0665298 0.567698)
(0.0888507 0.0830969 0.84378)
(-0.00775595 0.0140634 0.609029)
(0.0136817 0.0163525 0.0683702)
(-0.0440133 -0.041806 1.74698)
(0.141509 0.0484978 0.31092)
(0.0892189 0.0331166 0.766614)
(0.110458 0.0989856 0.92713)
(0.0733315 -0.00624067 0.773499)
(0.046054 0.00348385 0.339592)
(0.0807518 0.0804761 0.0544435)
(0.0201744 -0.0764892 0.43057)
(-0.0368498 0.0014628 0.676899)
(0.0335116 0.0350993 0.451761)
(-0.0152795 0.0477691 0.15613)
(0.0224472 0.0308391 0.143852)
(-0.0290364 0.0304465 0.282458)
(-0.00679774 0.0221003 0.123497)
(-0.0397121 0.00694747 0.210796)
(0.0846573 -0.0547831 0.00015916)
(0.0512735 -0.0169381 0.151123)
(-0.00956884 0.0637802 0.235119)
(-0.0556911 -0.0581929 0.180411)
(0.017662 -0.0832897 0.188087)
(0.102678 0.0466026 0.583703)
(0.0186616 0.0332194 0.86736)
(-0.00679793 -0.0632965 0.606041)
(0.0234945 0.0304119 0.0913244)
(0.0022911 0.0288676 1.669)
(0.120522 0.0555866 0.300925)
(0.0635096 0.00156574 0.807129)
(0.0672054 0.0632935 0.952343)
(0.0572368 -0.0131605 0.771591)
(0.0456334 0.00531712 0.341947)
(0.0663661 0.0805255 0.0814272)
(-0.0337268 -0.0322135 0.438916)
(-0.0391699 0.00524018 0.672717)
(0.0342268 0.03421 0.458118)
(-0.0234266 0.0471541 0.180971)
(0.0302821 0.0361039 0.149206)
(-0.0145196 0.0343327 0.303538)
(-0.00481065 0.0168801 0.137399)
(-0.0438621 -0.00272068 0.215308)
(0.0729471 -0.0482302 0.0330096)
(0.0169397 -0.0535118 0.182565)
(-0.00995638 -0.0359424 0.270967)
(-0.0616837 -0.0807684 0.207664)
(0.0207624 -0.0734943 0.194108)
(0.0241302 -0.0380087 0.590812)
(-0.0283461 -0.0314198 0.837015)
(0.0231922 -0.0943835 0.581205)
(0.0286438 0.035962 0.129283)
(0.128357 0.0190083 0.724222)
(0.0340673 0.0112598 0.34515)
(0.0393159 -0.00652183 0.797767)
(0.0350459 0.0378634 0.942954)
(0.0550854 -0.0159741 0.746282)
(0.0470211 0.00992635 0.342845)
(0.0414478 0.0704522 0.113826)
(-0.0368422 0.0375847 0.441414)
(-0.0167658 0.0202965 0.649799)
(0.0408687 0.0391204 0.458428)
(-0.0203486 0.0351229 0.19765)
(0.0286767 0.0386768 0.187291)
(-0.0134819 0.044041 0.331427)
(-0.00156891 0.015026 0.154737)
(-0.0248303 -0.00886725 0.28089)
(0.0542877 -0.0362548 0.0825131)
(-0.0223701 -0.077245 0.243919)
(-0.00242548 -0.0873561 0.319802)
(-0.0555618 -0.0883913 0.229743)
(0.0511166 -0.0730296 0.22011)
(-0.0154318 -0.12111 0.544273)
(-0.023656 -0.0809176 0.758761)
(0.0545505 -0.0796624 0.553299)
(0.0328869 0.0303976 0.184512)
(0.0102514 -0.0449595 0.411659)
(-0.021983 -0.0355561 0.360719)
(-0.0180152 -0.00556975 0.724967)
(0.0350424 0.0335212 0.91067)
(0.0652427 0.00401723 0.689678)
(0.049005 0.0169165 0.359606)
(-0.00388326 0.0199722 0.124937)
(-0.0180722 0.0856442 0.444063)
(0.0168328 0.0525789 0.617127)
(0.0510123 0.0491917 0.460841)
(-0.0113586 0.0284765 0.228904)
(0.00922842 0.0355614 0.252784)
(-0.0218783 0.049352 0.371617)
(-0.00128329 0.0168909 0.184011)
(-0.0219301 -0.00846303 0.352606)
(0.0274537 -0.0151174 0.131762)
(-0.0487508 -0.0447679 0.318161)
(0.0227965 -0.0757654 0.368942)
(-0.00794148 -0.0617312 0.257062)
(0.0803224 -0.0640961 0.239682)
(0.0148922 -0.141964 0.485308)
(0.00185367 -0.101453 0.677719)
(0.0488993 -0.0214282 0.522952)
(0.0391952 0.0113023 0.243613)
(-0.00176632 -0.0303656 0.368684)
(-0.00942405 -0.0336729 0.34786)
(-0.0465169 -0.00600778 0.62346)
(0.0392875 0.0441938 0.819148)
(0.0656324 0.0400113 0.646989)
(0.0502201 0.016508 0.398864)
(-0.0104575 -0.0099883 0.129278)
(0.000971621 0.0908573 0.445352)
(0.0194781 0.0698568 0.603676)
(0.0536222 0.0545895 0.475503)
(-0.00556127 0.0263056 0.278979)
(-0.0172579 0.0214921 0.318728)
(-0.0351491 0.0454494 0.422362)
(-0.00414544 0.0184174 0.222614)
(-0.048654 0.000300168 0.398167)
(0.000964678 -0.0019622 0.161592)
(-0.05766 0.00198996 0.369493)
(0.0217001 -0.0477021 0.426859)
(0.0577331 0.0119285 0.235676)
(0.0677192 -0.026633 0.263213)
(0.0583397 -0.119371 0.454064)
(0.0230485 -0.086998 0.632261)
(0.0094529 0.0416242 0.488194)
(0.0372206 -0.0143761 0.288734)
(0.0155625 0.0507499 0.328573)
(0.0371183 0.0329959 0.306498)
(-0.00748688 0.00454692 0.554226)
(0.0244814 0.0473144 0.73666)
(0.0502356 0.061386 0.629869)
(0.0505805 0.00735299 0.442728)
(0.00863247 -0.00824888 0.155789)
(0.00574561 0.0771265 0.451611)
(0.00675119 0.0741691 0.601261)
(0.0456237 0.0508758 0.498566)
(-0.00076298 0.0234508 0.332738)
(-0.0391996 -0.000212925 0.368533)
(-0.0549208 0.0385897 0.472726)
(-0.00695539 0.0180495 0.259035)
(-0.0562136 -0.00531744 0.417388)
(-0.0198472 0.0158052 0.175849)
(-0.0603306 0.0190778 0.377765)
(-0.0511855 -0.0384811 0.465243)
(0.0671596 0.0461662 0.1893)
(0.0546452 0.0149294 0.24831)
(0.0696427 -0.0738923 0.44867)
(0.0225323 -0.0633696 0.623753)
(-0.00977545 0.0538894 0.468692)
(0.0229002 -0.0424442 0.310742)
(0.0115471 0.0595349 0.244468)
(0.059524 0.0224624 0.285727)
(0.0282254 0.0146043 0.522896)
(0.00983151 0.0381375 0.68887)
(0.0292077 0.0607357 0.626992)
(0.0441629 -0.00130161 0.469917)
(0.0136007 -0.0214101 0.176082)
(-0.00278815 0.0434615 0.470385)
(-0.0135499 0.0654261 0.59753)
(0.035247 0.0403893 0.523151)
(0.00415056 0.0197783 0.381364)
(-0.0486484 -0.0201561 0.394092)
(-0.0782048 0.0358777 0.511703)
(-0.00748923 0.0157766 0.288035)
(-0.0415374 -0.0152431 0.483243)
(-0.0332896 0.0304893 0.174219)
(-0.0448928 0.0197621 0.370593)
(-0.070614 -0.0421704 0.395644)
(0.0352215 0.0299181 0.176364)
(0.0379592 0.0163203 0.233002)
(0.0390016 -0.012607 0.458214)
(0.00675297 -0.0301253 0.643741)
(-0.00571314 0.0506981 0.459474)
(0.00185838 -0.0643175 0.31699)
(0.00197248 0.0219992 0.196664)
(0.0522078 -0.0437001 0.278445)
(0.0366362 0.0179208 0.520754)
(0.00521393 0.0209001 0.664904)
(0.0150541 0.0554713 0.626313)
(0.0367481 -0.00117428 0.47286)
(-0.00219337 -0.0426852 0.173664)
(0.000713588 0.00428081 0.485207)
(-0.0265731 0.0360726 0.586073)
(0.0272295 0.0258042 0.54491)
(0.0094705 0.0139081 0.421206)
(-0.0521803 -0.0306661 0.387613)
(-0.0721487 0.0568575 0.543529)
(-0.008152 0.00921051 0.306673)
(-0.0114058 -0.0179356 0.564126)
(-0.0345266 0.0326667 0.166126)
(-0.017258 0.0118586 0.344622)
(-0.0439465 -0.0313057 0.306665)
(0.000285564 -0.0119538 0.182848)
(0.031969 -0.02247 0.248348)
(-0.0138958 0.0452806 0.484597)
(-0.00243853 0.0120065 0.658864)
(0.00724497 0.0599536 0.453949)
(-0.018461 -0.0691335 0.320502)
(-0.00250551 -0.00341001 0.188484)
(0.038504 -0.0798101 0.265335)
(0.0318234 0.0229451 0.532256)
(-0.00303692 -0.00526444 0.66724)
(0.0104557 0.0587299 0.628063)
(0.0212498 -0.0103886 0.455734)
(-0.0225397 -0.0596139 0.168606)
(0.00339894 -0.020944 0.503615)
(-0.0370152 -0.00450828 0.575829)
(0.0187899 0.0170296 0.566766)
(0.0152188 0.00335344 0.451584)
(-0.0638659 -0.0320023 0.349225)
(-0.025336 0.0398411 0.548012)
(-0.00704929 9.05651e-05 0.31831)
(0.0033251 -0.0143313 0.589105)
(-0.0315523 0.0326967 0.162891)
(-0.00146675 0.0133726 0.31913)
(-0.021299 0.0214216 0.267099)
(-0.028918 -0.0401058 0.192931)
(0.0333386 -0.0519092 0.270518)
(-0.0584046 0.0878466 0.519659)
(-0.00479561 0.0300178 0.668438)
(0.00753963 0.0861545 0.450656)
(-0.0335231 -0.0646774 0.332014)
(-0.00282066 -0.0157957 0.197655)
(0.021984 -0.0946871 0.258231)
(0.000255798 0.0512597 0.566015)
(-0.0175827 -0.0328207 0.686467)
(0.00181447 0.0659536 0.634537)
(0.0121821 -0.0372488 0.435808)
(-0.0427351 -0.070134 0.164535)
(0.00580448 -0.0181435 0.530808)
(-0.0462263 -0.0363107 0.581043)
(0.00669626 0.0220635 0.587704)
(0.0224972 -0.0159722 0.460752)
(-0.0555518 -0.00795959 0.323753)
(0.0266306 -0.0514037 0.479681)
(-0.000139208 -0.00785102 0.331792)
(0.0238871 0.0171917 0.506614)
(-0.030095 0.0341679 0.166604)
(0.0161136 0.00325408 0.302883)
(0.00387058 0.0644192 0.252514)
(-0.0485992 -0.0375108 0.198037)
(0.0365945 -0.0693103 0.281499)
(-0.0697073 0.124913 0.543539)
(-0.00510102 0.0260186 0.685718)
(-0.0146625 0.0970885 0.444282)
(-0.0453108 -0.0711586 0.337744)
(-0.00233236 -0.024748 0.213341)
(-0.0025921 -0.103596 0.270943)
(-0.0309689 0.0919824 0.59919)
(-0.0165563 -0.0537921 0.704681)
(-0.0214982 0.0631074 0.644807)
(0.00742444 -0.0607174 0.423197)
(-0.0540466 -0.0751692 0.164343)
(0.0169693 -0.00460851 0.54908)
(-0.0501296 -0.0538768 0.596682)
(-0.0228009 0.0273594 0.611255)
(0.0374978 -0.0511796 0.424197)
(-0.0288519 0.0267658 0.322865)
(0.037254 -0.0593571 0.404798)
(0.0114482 -0.0190581 0.338768)
(0.0725664 0.0200386 0.293873)
(-0.0266552 0.0283109 0.171033)
(0.0438964 -0.00191892 0.280045)
(0.0112006 0.0605918 0.260441)
(-0.056224 -0.0278059 0.202755)
(0.0263711 -0.0750984 0.292312)
(-0.0500914 0.154763 0.536866)
(0.00310482 0.0179788 0.725886)
(-0.0332399 0.0822185 0.43326)
(-0.0588904 -0.090084 0.316171)
(-0.00107152 -0.0214019 0.232744)
(-0.0224225 -0.110695 0.299077)
(-0.0273461 0.117999 0.626882)
(0.00559321 -0.0617548 0.724604)
(-0.0466321 0.0476073 0.665495)
(0.00126368 -0.0602762 0.414892)
(-0.0523268 -0.0769612 0.172395)
(0.0279798 -0.00263465 0.549226)
(-0.0371686 -0.0686869 0.602604)
(-0.0692097 0.0213003 0.623634)
(0.0471318 -0.0766535 0.370477)
(-0.0196719 0.0391616 0.307925)
(0.0429648 -0.0151666 0.370035)
(0.0205018 -0.0231987 0.320471)
(0.0608262 0.00541458 0.227477)
(-0.0234137 0.0159886 0.174949)
(0.0173741 0.0342936 0.255487)
(0.026669 0.0261969 0.288004)
(-0.0567819 -0.0205675 0.209173)
(0.00156965 -0.0732049 0.312397)
(-0.00180976 0.157564 0.503387)
(0.0102081 0.023593 0.762684)
(-0.0331156 0.0296796 0.430576)
(-0.063737 -0.100933 0.281536)
(-0.00023277 -0.00335554 0.251895)
(-0.0313163 -0.104547 0.328557)
(-0.00414069 0.112006 0.656342)
(0.029879 -0.0394312 0.761513)
(-0.0425886 0.0218167 0.689789)
(0.00223615 -0.05845 0.392219)
(-0.0368211 -0.0733179 0.185852)
(0.0294208 -0.0143841 0.541346)
(0.0032402 -0.0718399 0.602994)
(-0.0820034 0.00937605 0.598422)
(0.0315623 -0.0695348 0.328315)
(-0.0370008 0.0271075 0.264913)
(0.0475723 0.00287154 0.359467)
(0.0138451 -0.0127298 0.301781)
(0.0443159 0.00206396 0.211102)
(-0.0139842 0.00194599 0.177519)
(-0.00869242 0.0505022 0.215243)
(0.0520686 0.00755726 0.317284)
(-0.0538202 -0.0217795 0.221252)
(-0.0173561 -0.0675056 0.335307)
(0.0380322 0.0973168 0.480193)
(0.00474333 0.0457635 0.799563)
(-0.0208628 -0.0436934 0.438915)
(-0.0593255 -0.0948583 0.25955)
(-0.000930674 0.00801655 0.26964)
(-0.0343857 -0.0756662 0.351788)
(0.00867243 0.0579943 0.68578)
(0.0318261 -0.00184685 0.803226)
(-0.0113032 -0.0107 0.692897)
(0.0162714 -0.0672602 0.366046)
(-0.0164127 -0.0603397 0.201347)
(-0.000784094 -0.038461 0.509416)
(0.0502051 -0.0316044 0.606183)
(-0.0136761 -0.00552538 0.547902)
(0.0324161 -0.0662037 0.29294)
(-0.0434038 0.0198701 0.219286)
(0.0336229 0.0147563 0.364836)
(-0.00756645 0.00985722 0.312945)
(0.0154871 -0.0015708 0.204699)
(-0.000656974 -0.0117558 0.180373)
(-0.00225446 0.0390899 0.177317)
(0.0701481 -0.00408353 0.361826)
(-0.0432769 -0.0251591 0.24856)
(-0.0295827 -0.0578464 0.350975)
(0.0408087 0.00212102 0.479596)
(-0.00852851 0.0736119 0.816737)
(-0.00912029 -0.0932668 0.444598)
(-0.0467619 -0.0752822 0.252629)
(-0.00142621 0.00518214 0.283977)
(-0.0311999 -0.041518 0.366816)
(-0.00228186 -0.024785 0.698433)
(0.0142383 0.0249242 0.820371)
(0.0235067 -0.037566 0.665138)
(0.0345914 -0.0644104 0.354809)
(-0.00489174 -0.0381369 0.216268)
(-0.0485946 -0.044974 0.462655)
(0.0454855 0.0158746 0.5974)
(0.0245555 0.0015619 0.49472)
(0.0319485 -0.0543361 0.274485)
(-0.0381907 0.0122093 0.19038)
(0.0102819 0.0398188 0.382022)
(-0.0210132 0.0242482 0.352158)
(-0.0138852 -0.00479708 0.207545)
(0.0112205 -0.0193183 0.190432)
(0.0189746 0.0196731 0.174126)
(0.0755824 -0.00193994 0.393144)
(-0.0217532 -0.0217009 0.286956)
(-0.0441183 -0.0457918 0.360856)
(0.0189403 -0.0605227 0.484952)
(-0.0174717 0.0857425 0.80699)
(0.00258192 -0.120324 0.447886)
(-0.0310516 -0.0593385 0.251375)
(-0.00192884 -0.00629126 0.302005)
(-0.045385 -0.0257965 0.377451)
(-0.0333542 -0.0612433 0.68144)
(-0.00454499 0.0315124 0.81458)
(0.0462833 -0.0576553 0.612529)
(0.0406102 -0.0567278 0.357227)
(-0.00692621 -0.0132508 0.232369)
(-0.0667527 -0.0389315 0.425892)
(0.011459 0.0330342 0.567398)
(0.0235123 0.0055551 0.435791)
(0.0221905 -0.0230587 0.274137)
(-0.0293657 0.00804302 0.180643)
(-0.00749212 0.0405681 0.414199)
(0.0018952 0.0156026 0.40033)
(-0.0399342 -0.00674471 0.222155)
(0.0172913 -0.0215374 0.207212)
(0.034954 0.00491622 0.193879)
(0.0736755 -0.00402936 0.399059)
(0.00530583 -0.00984787 0.327444)
(-0.0558797 -0.031891 0.377203)
(-0.00474865 -0.077611 0.48119)
(-0.0207992 0.0763032 0.790571)
(0.0196907 -0.126602 0.456045)
(-0.0184306 -0.0473605 0.250527)
(-0.00220297 -0.0108153 0.327463)
(-0.0593752 -0.0199979 0.394691)
(-0.072575 -0.0529867 0.640087)
(-0.0124895 0.0218837 0.799022)
(0.0580246 -0.0725184 0.562768)
(0.030279 -0.0411379 0.375702)
(-0.017463 0.00539192 0.254843)
(-0.0591418 -0.0341197 0.40275)
(-0.0209225 0.0163153 0.531916)
(0.0282486 -0.0344266 0.393288)
(0.0124547 0.00465203 0.2945)
(-0.0162077 0.011171 0.185236)
(-0.0207096 -0.0073553 0.412336)
(0.049727 -0.013234 0.440134)
(-0.0618389 -0.00900464 0.24566)
(0.0188152 -0.0207328 0.225794)
(0.0430871 -0.00583537 0.21883)
(0.0464181 -0.0306798 0.400784)
(0.0258039 7.13411e-05 0.362735)
(-0.0433833 -0.0327453 0.401427)
(-0.0139168 -0.0692468 0.470157)
(-0.0140575 0.0161694 0.75003)
(0.0411218 -0.109589 0.473298)
(-0.00938125 -0.0326222 0.256093)
(-0.00207305 -0.00487804 0.354935)
(-0.0406423 -0.0150336 0.42208)
(-0.0916496 -0.00961594 0.593528)
(-0.00214611 0.00128921 0.763563)
(0.0642492 -0.0735886 0.534107)
(0.0173997 -0.023965 0.396966)
(-0.0294042 0.01146 0.282209)
(-0.0420426 -0.0331047 0.391573)
(-0.0301176 -0.0108714 0.509803)
(0.0162731 -0.0593802 0.375689)
(-0.000542112 0.0266166 0.321285)
(-0.00134649 0.0162322 0.197769)
(-0.0170275 -0.0218012 0.361954)
(0.0654426 -0.0347342 0.418196)
(-0.0769754 -0.0103254 0.280649)
(0.0172091 -0.0193191 0.242759)
(0.0467196 -0.00874918 0.247656)
(0.0178811 -0.0502822 0.40398)
(0.0305025 -0.000374169 0.395309)
(-0.00712838 -0.0472119 0.42027)
(0.00140479 -0.0376488 0.44566)
(0.00293487 -0.0463538 0.690873)
(0.0505001 -0.0540655 0.49616)
(-0.00297588 -0.01713 0.268445)
(-0.00289847 -0.000716795 0.385755)
(-0.0170432 -0.0139571 0.430756)
(-0.0705561 0.03539 0.568618)
(0.0191916 -0.0071774 0.710501)
(0.0642667 -0.055814 0.520876)
(0.0100243 -0.010077 0.410632)
(-0.0397022 0.00972861 0.308845)
(-0.0328096 -0.0361741 0.38598)
(-0.0165925 -0.0222386 0.504215)
(-0.00512632 -0.0325508 0.373767)
(-0.0137188 0.0437032 0.333294)
(0.00848779 0.0177784 0.213788)
(-0.0154981 -0.0118116 0.324007)
(0.0256063 -0.0146697 0.350172)
(-0.0832525 -0.00895336 0.31766)
(0.0135431 -0.0165924 0.258875)
(0.0455309 -0.00386422 0.276881)
(0.0141829 -0.0398772 0.406483)
(0.012033 -0.0171587 0.425484)
(0.00821632 -0.0394689 0.406804)
(0.0259398 -0.0205099 0.432825)
(0.0108424 -0.0515831 0.651956)
(0.0281862 0.0140679 0.506441)
(-4.84657e-05 -0.00796597 0.282573)
(-0.00439202 -0.000964832 0.420153)
(-0.0147345 -0.0205863 0.412556)
(-0.027681 0.0403458 0.559536)
(0.028617 0.0051875 0.665769)
(0.0490958 -0.0166708 0.517802)
(0.0102663 -0.00376095 0.420024)
(-0.0364913 0.0102613 0.327501)
(-0.0352194 -0.0407327 0.382041)
(0.0118064 -0.0173768 0.499339)
(-0.01393 0.0144651 0.389801)
(-0.0198929 0.0483614 0.332395)
(0.0147319 0.0135694 0.231468)
(-0.0157325 -0.000383425 0.306099)
(-0.00434539 0.00884321 0.307603)
(-0.0806191 -0.00496364 0.346986)
(0.00745595 -0.0113524 0.275769)
(0.0407254 0.00132319 0.301564)
(0.00659926 -0.010182 0.413326)
(-0.0190985 -0.0501078 0.436273)
(0.0165093 -0.0290044 0.3582)
(0.0347973 -0.0241472 0.434399)
(0.00865437 -0.0355523 0.637695)
(-0.0110756 0.0507766 0.496803)
(0.00120751 -0.0109504 0.29494)
(-0.00427307 -0.00382288 0.454385)
(-0.0125959 -0.0250002 0.401408)
(0.00496047 0.000955713 0.544942)
(0.0246269 0.0198301 0.642417)
(0.0262821 0.0180832 0.525084)
(0.0172638 -0.00352376 0.42352)
(-0.0144712 0.0192063 0.335994)
(-0.047924 -0.0456732 0.370378)
(0.0237872 -0.0130191 0.488474)
(-0.00554911 0.0285238 0.417704)
(-0.0189894 0.0404517 0.333628)
(0.0208317 0.00655501 0.249206)
(-0.0169811 0.00897185 0.302319)
(-0.0239228 0.0216906 0.292367)
(-0.0666238 -0.00243776 0.364879)
(0.000382113 -0.00725937 0.296926)
(0.0357924 0.00439837 0.322701)
(-0.0116646 0.00377807 0.428593)
(-0.0443531 -0.0754586 0.42763)
(0.0185007 -0.0253553 0.318865)
(0.0309382 -0.0384244 0.443186)
(0.00468186 -0.0248957 0.641908)
(-0.0379328 0.0430656 0.4744)
(0.000538967 -0.0210505 0.302929)
(-0.00253936 -0.000578704 0.485271)
(-0.0106302 -0.0184825 0.390168)
(0.00844372 -0.042566 0.52444)
(0.0173494 0.0238928 0.63789)
(0.00821634 0.0325206 0.535054)
(0.0177259 -0.00563464 0.418817)
(0.00294656 0.0270556 0.337619)
(-0.0594028 -0.0473091 0.356089)
(0.0182107 -0.0136769 0.477289)
(0.00575601 0.021247 0.445254)
(-0.0137964 0.0251767 0.336937)
(0.0280341 0.00256902 0.265219)
(-0.0174827 0.0132173 0.305371)
(-0.0312715 0.025535 0.291275)
(-0.0426159 -0.0061323 0.373412)
(-0.00824181 -0.000550038 0.312197)
(0.0263828 0.00194127 0.343731)
(-0.0352428 -0.00728428 0.460908)
(-0.0476031 -0.0774906 0.410523)
(0.0166315 -0.0109284 0.30335)
(0.00822573 -0.0483549 0.461018)
(0.00187296 -0.0256537 0.653937)
(-0.0378223 0.00418997 0.441614)
(-0.00281676 -0.028314 0.305797)
(-0.00142211 0.000247532 0.499234)
(-0.0194482 -0.00864211 0.378216)
(-0.00959985 -0.0566979 0.504998)
(0.0141379 0.0196373 0.63643)
(-0.00260723 0.0328631 0.538013)
(0.00982999 -0.0109163 0.400971)
(0.00540066 0.0272361 0.33858)
(-0.0681901 -0.0444969 0.344308)
(-0.0123114 -0.0110255 0.452203)
(0.013634 0.0109821 0.462308)
(-0.00505288 0.0126432 0.339655)
(0.034814 0.00665658 0.280007)
(-0.0166003 0.0120418 0.308599)
(-0.0252744 0.0181747 0.299525)
(-0.0250277 -0.00811261 0.378586)
(-0.0115206 0.0092917 0.303903)
(0.00533347 -0.00484963 0.367601)
(-0.0532942 -0.0104266 0.500703)
(-0.0273953 -0.061895 0.401398)
(0.0139299 0.00757612 0.297611)
(-0.0182726 -0.044421 0.476299)
(-0.00199088 -0.0322589 0.657612)
(-0.0166215 -0.0275277 0.416307)
(-0.00504018 -0.0253878 0.307916)
(-0.00405741 -0.0145891 0.503039)
(-0.0329749 0.00261213 0.377509)
(-0.0409411 -0.0374138 0.486426)
(0.00593574 0.012867 0.627934)
(-0.00549707 0.028222 0.533613)
(0.00793572 -0.0153948 0.378284)
(-0.00415662 0.0265516 0.346972)
(-0.0716757 -0.0347594 0.339644)
(-0.0456294 -0.000302566 0.425005)
(0.0137415 0.0085215 0.46334)
(0.00254582 0.00550248 0.342892)
(0.0399604 0.0165226 0.294605)
(-0.00941344 0.00245841 0.312035)
(-0.0131338 0.00665198 0.310635)
(-0.0124829 -0.00532008 0.382307)
(-0.00461003 0.00606522 0.278857)
(-0.0170566 -0.0159348 0.39473)
(-0.0409423 -0.00650539 0.528305)
(-0.00166451 -0.0330086 0.405948)
(0.00915344 0.017179 0.294578)
(-0.0390087 -0.0394415 0.479708)
(-0.00736231 -0.0391613 0.648497)
(0.0101328 -0.0404864 0.403514)
(-0.00364421 -0.00896204 0.318323)
(-0.00471793 -0.0245724 0.512612)
(-0.0373529 0.0134874 0.387179)
(-0.0714477 -0.00485952 0.46687)
(-0.0193333 0.0166949 0.601169)
(0.00250538 0.0146732 0.512722)
(0.0109098 -0.0143452 0.362761)
(-0.0118641 0.0330136 0.362511)
(-0.0658757 -0.0146442 0.345943)
(-0.059105 0.0122708 0.406302)
(0.00526281 0.0186362 0.448757)
(0.00500506 0.00339358 0.348977)
(0.0460883 0.0259484 0.309358)
(0.00387496 -0.00308587 0.318053)
(-0.00169263 -0.00154444 0.325875)
(-0.00527675 -0.00338275 0.398696)
(0.00239688 -0.00325568 0.27143)
(-0.0315972 -0.0198062 0.421554)
(-0.0255809 -0.0262739 0.543923)
(0.0273927 -0.0092501 0.412143)
(-0.00293782 0.0178054 0.301138)
(-0.047501 -0.0373052 0.469579)
(-0.00331798 -0.0473462 0.617918)
(0.0325244 -0.0393963 0.399377)
(0.00143771 0.00683819 0.338838)
(-0.00538279 -0.0276475 0.524643)