/*--------------------------------*- C++ -*----------------------------------*\
| =========                 |                                                 |
| \\      /  F ield         | OpenFOAM: The Open Source CFD Toolbox           |
|  \\    /   O peration     | Version:  5.x                                   |
|   \\  /    A nd           | Web:      www.OpenFOAM.org                      |
|    \\/     M anipulation  |                                                 |
\*---------------------------------------------------------------------------*/
FoamFile
{
    version     2.0;
    format      ascii;
    class       volScalarField;
    location    "2.35";
    object      Ksl;
}
// * * * * * * * * * * * * * * * * * * * * * * * * * * * * * * * * * * * * * //

dimensions      [1 -3 -1 0 0 0 0];

internalField   nonuniform List<scalar> 
10571
(
521.061
4755.67
1201.59
1107.35
3135.39
6380.29
1255.89
612.945
1710.56
1250.55
2.91666
1028.24
5742.51
3659.96
1724.77
5754.99
4025.13
7983.17
1697.43
5927.46
7685.31
4356.16
613.134
5016.35
2736.72
4486.48
735.886
2438.83
205.994
1384.12
1141.4
3851.32
2442
6739.45
4557.76
1532.43
335.625
1468.8
1176.88
4877.84
1576.78
3510.22
1429.33
2692.3
1239.56
5902.83
2874.42
11391.9
5470.47
3900.28
147.165
7266.04
121.398
366.429
1629.07
4196.37
2493.86
2361.31
10360
952.102
276.016
411.977
1540.53
7521.9
2719.96
2329.69
2699.82
447.729
4323.48
10878.6
11188.5
5444.91
10045
2403.6
2636.15
3634.07
1631.6
240.158
7286.97
4052.92
1559.7
2056.45
5900.54
56.3932
620.451
243.468
1259.83
1297.27
8897.89
1660.11
1763.74
1023.56
1942.62
10167.2
6372.49
3494.07
2963.54
6880.94
8697.34
768.439
4093.55
977.258
780.52
1564.45
3828.4
4042.66
2788.58
3361.53
3750.47
3862.47
4286.4
4340.57
1424.01
383.102
904.149
4195.36
2087.55
515.064
613.719
1276.9
13.8918
269.513
0
21.1891
110.236
1238.05
4.72126
10.2364
146.55
259.48
11764.7
2219.9
269.257
15.7387
69.5557
779.421
6433.26
10426.7
2.60053e-13
91.5585
85.1434
40.9358
10086.3
120.067
444.657
3687.85
0
0
0
6.55795
43.3414
112.374
8.76089
3.7396
0.63092
24.5043
0
300.85
56.1918
10.1552
4.73368
7.18602
73.5077
21.3346
47.464
26.7826
16.5523
2.64437
69.287
312.289
0
56.8509
13.7406
16.4221
0
0
8.66424
6.34227
0
3.11132
3.82091
2.55219
8.54048
0
0
6.63276
6.91707
7.07853
4.95935
2.60296
0
37.4777
16.89
9.97018
3.94974
0
0
41.1044
35.9138
6.67695
0
0
0
0
0
8.97283
4.21338
3.12249
0.766351
0
0
0
0
2.15609
0.889498
1.1392
0
0
30.3587
10.5711
8.19489
4.06607
0
34.4503
17.6744
2.40453e-13
0
0
0
0
0
4.54488
6.66047
4.71862
1.91572
0
0
0
2.10383
4.37257
1.20566
0
17.7629
3.58427
5.09772
2.53271e-13
5.49863
5.59897
4.35936
7.76928
0
0
0
0
0
0
3.97969
1.7839
0
0
0
12.5506
0.679314
1.98186
0.980328
0
0.280291
2.65864
2.63311
1.31369e-13
0
0
0
16.0004
0
0
0
0
0
4.94659
0.356785
2.08957
0
0
0
5.99596
3.22055
3.01213
2.11401
0
4.78448
2.83689
0.591345
2.78165
0
5.05955
7.46112
0
0
0
0
0
0
0
0.629407
3.71744
0.0499262
0
0
0
0.653081
2.40139
2.39685
0
0
1.3625
1.11141
6.9984
0
0
0
0
0
0
0
0
0
0
1.24065
0.637893
0.6568
0
0
0
1.06229
0.732314
1.82735
0
0
2.57956
0.672746
3.70334
6.80541
0
2.30231
16.6966
0
0
0
0
0
1.71935
1.2226
0.61313
0
0
17.8106
3.66385
3.33573
3.53807
2.59501
0
0
1.88642
1.79717
0
14.1456
0
3.67983
1.01807
0
0
0
0
0
0
0.603959
0.603033
0
0
0
3.68963
1.64726
2.2743
3.36563
0
0
1.7684
3.77123
7.26051
0
0
3.56814
0.869052
0
0
0
0
0
0
0
0
0
0
0
8.33835
1.85493
2.29476
1.83218
0
0
1.26299
2.94952
0
8.14254
0
3.67892
15.2459
0
0
0
0
0
0
0
0
0
0
0
0
0.55146
2.11452
3.39887
0
0
1.67728
0.853413
0
0
0
7.58381
5.77154
0
9.17689
0
0
0
0
0
0
0
0
18.5884
0
0.53079
0.499149
0.475206
7.66329
0
0
2.76569
0
7.60706
0
3.7103
6.48687
0
0
0
0
0
0
0
0
0
0
0
0.356073
0
0.967897
0.484747
0
0
0
0.827598
1.24931
16.1367
0
0
19.0801
0
0
0
0
0
0
0
0
0.55177
0
11.4508
0
0
0.164165
0
0
0
0.963378
2.40854
2.92524
0
0
5.80033
22.4963
0
0
0
0
0
0
0.609711
0
0
0
30.4331
0
0
0.304988
0.462225
0
3.32146
0
4.44217
1.31461e-14
0
2.58961
5.8615
8.19939
0
0
0
0
0
0
0
0
0
0
18.2915
0
0
0
0.484347
0
5.07499
0
1.28153
3.57242
0
0
2.49389
0
0
0
0
0
0
0
0
0
0
0
12.9503
0
0
0
0
0
1.54915
0.342818
0.416321
0
0
0
7.50401
2.00506
0
0
0
0
0
0
0
0
0
0
0
0
0
0
0
0
13.0206
0
0.831441
0
0
0
0.914203
8.11716
0
0
0
0
0
0
0
0
0
0
30.8629
3.08934
0
0.486644
0
0
4.66673
0.88166
0.868345
0
0
1.63765e-13
0
0
0
0
0
0
0
0
0
0
0
0
0
0
0
0
0
0
0
0.817601
0
0
0
4.14448
0
0
0
0
0
0
0
0
0
0
0
0
0
0
0
0
0
0
4.37637
0.478442
0.291468
0
0
0
3.27472
0
0
0
0
0
0
0
0
0
0
0
0
0
0.481784
0
0
0
0
2.35209
0
0
0
4.28086
3.3596
0
0
0
0
0
0
0
0
0
0
0
0
0
0
0
0
0
0
0.0137449
0
0
0
0
0
0
0
0
0
0
0
0
0
0
0
0
0
0
0
0
0
0
0
0.473565
0
0
0
0
0
0
0
0
0
0
0
0
0
0
0
0
0
0
0
0
0
0
0
0.315839
0
0
0
0
0
0
0
0
0
0
0
0
0
0
0
0
0
0
0
0
0
0
4.6433
0.147749
0
0
0
2.77894
0
0
0
0
0
0
0
0
0
0
0
0
0
0
0
0
0
0
0
0.435738
0
0
0
0
0
0
0
0
0
0
0
0
0
0
0
0
0
0
0
0
0
0
0
0
0.476324
0
0
0.464611
0
0
0
0
0
0
0
0
0
0
0
0
0
0
0
0
0
0
0
0
0
0
0
0
0
0
0
0
0
0
0
0
0
0
0
0
0
0
0
0
0
0
0
0
0
0
0
0
0
0
0
0
0
0
0
0
0
0
0
0
0
0
0
0
0
0
0
0
0
0
0
0
0
0
0
0
0
0
0
0
0
0
0
0
0
0
0
0
0
0
0
0
0
0
0
0
0
0
0
0
0
0
0
0
0
0
0
0
0
0
0
0
0
0
0
0
0
0
0
0
0
0
0
0
0
0
0
0
0
0
0
0
0
0
0
0
0
0
0
0
0
0
0
0
0
0
0
0
0
0
0
0
0
0
0
0
0
0
0
0
0
0
0
0
0
0
0
0
0
0
0
0
0
0
0
0
0
0
0
0
0
0
0
0
0
0
0
0
0
0
0
0
0
0
0
0
0
0
0
0
0
0
0
0
0
0
0
0
0
0
0
0
0
0
0
0
0
0
0
0
0
0
0
0
0
0
0
0
0
0
0
0
0
0
0
0
0
0
0
0
0
0
0
0
0
0
0
0
0
0
0
0
0
0
0
0
0
0
0
0
0
0
0
0
0
0
0
0
0
0
0
0
0
0
0
0
0
0
0
0
0
0
0
0
0
0
0
0
0
0
0
0
0
0
0
0
0
0
0
0
0
0
0
0
0
0
0
0
0
0
0
0
0
0
0
0
0
0
0
0
0
0
0
0
0
0
0
0
0
0
0
0
0
0
0
0
0
0
0
0
0
0
0
0
0
0
0
0
0
0
0
0
0
0
0
0
0
0
0
0
0
0
0
0
0
0
0
0
0
0
0
0
0
0
0
0
0
0
0
0
0
0
0
0
0
0
0
0
0
0
0
0
0
0
0
0
0
0
0
0
0
0
0
0
0
0
0
0
0
0
0
0
0
0
0
0
0
0
0
0
0
0
0
0
0
0
0
0
0
0
0
0
0
0
0
0
0
0
0
0
0
0
0
0
0
0
0
0
0
0
0
0
0
0
0
0
0
0
0
0
0
0
0
0
0
0
0
0
0
0
0
0
0
0
0
0
0
0
0
0
0
0
0
0
0
0
0
0
0
0
0
0
0
0
0
0
0
0
0
0
0
0
0
0
0
0
0
0
0
0
0
0
0
0
0
0
0
0
0
0
0
0
0
0
0
0
0
0
0
0
0
0
0
0
0
0
0
0
0
0
0
0
0
0
0
0
0
0
0
0
0
0
0
0
0
0
0
0
0
0
0
0
0
0
0
0
0
0
0
0
0
0
0
0
0
0
0
0
0
0
0
0
0
0
0
0
0
0
0
0
0
0
0
0
0
0
0
0
0
0
0
0
0
0
0
0
0
0
0
0
0
0
0
0
0
0
0
0
0
0
0
0
0
0
0
0
0
0
0
0
0
0
0
0
0
0
0
0
0
0
0
0
0
0
0
0
0
0
0
0
0
0
0
0
0
0
0
0
0
0
0
0
0
0
0
0
0
0
0
0
0
0
0
0
0
0
0
0
0
0
0
0
0
0
0
0
0
0
0
0
0
0
0
0
0
0
0
0
0
0
0
0
0
0
0
0
0
0
0
0
0
0
0
0
0
0
0
0
0
0
0
0
0
0
0
0
0
0
0
0
0
0
0
0
0
0
0
0
0
0
0
0
0
0
0
0
0
0
0
0
0
0
0
0
0
0
0
0
0
0
0
0
0
0
0
0
0
0
0
0
0
0
0
0
0
0
0
0
0
0
0
0
0
0
0
0
0
0
0
0
0
0
0
0
0
0
0
0
0
0
0
0
0
0
0
0
0
0
0
0
0
0
0
0
0
0
0
0
0
0
0
0
0
0
0
0
0
0
0
0
0
0
0
0
0
0
0
0
0
0
0
0
0
0
0
0
0
0
0
0
0
0
0
0
0
0
0
0
0
0
0
0
0
0
0
0
0
0
0
0
0
0
0
0
0
0
0
0
0
0
0
0
0
0
0
0
0
0
0
0
0
0
0
0
0
0
0
0
0
0
0
0
0
0
0
0
0
0
0
0
0
0
0
0
0
0
0
0
0
0
0
0
0
0
0
0
0
0
0
0
0
0
0
0
0
0
0
0
0
0
0
0
0
0
0
0
0
0
0
0
0
0
0
0
0
0
0
0
0
0
0
0
0
0
0
0
0
0
0
0
0
4907.56
7616.9
5891.69
10534.8
7729.59
7207.06
3069.71
5622.76
6191.91
7336.08
6106.58
5207.76
2942.42
7318.05
9273.05
6602.19
7831.13
5251.47
3269.42
2730.42
1604.18
5527.33
7775.71
3728.19
7266.38
6151.15
6865.11
2629.13
3711.03
4541.62
3056.49
1783.2
5889.28
7622.89
9480.16
8249.36
6717.47
3048.21
861.901
6639.92
4539.81
2667.33
3602.51
1423.13
1031.45
3559.16
4212.15
6655.27
2519.07
5076.04
7081.86
7760.79
7623.21
9905.64
2857.63
3695.01
1148.04
1896.97
282.835
4172.94
7346.4
1152.13
7556.27
2862.31
677.95
915.033
3327.22
2957.26
3545.18
4911.22
6066.6
8049.98
1524.5
5506.38
3361.46
2991.16
396.999
3792.12
696.361
2588.18
7835.49
4375.34
6219.67
2984.91
4740.51
5772.03
6836.24
4397.04
6593.13
3601.68
6030.23
4924.79
8841.78
4007.27
5376.62
4719.65
3820.71
4418.87
892.81
1885.99
500.841
1631.69
4226.66
2348.03
495.111
834.197
774.182
443.249
1159.73
4396.36
1536.28
4218.91
2146.8
1821.12
2941.73
1099.73
4208.23
1198.48
1006.21
439.657
5098.21
1590.67
6166.93
137.531
769.371
46.4664
1523.18
5803.36
8049.45
6718.13
3072.11
4693.16
1639.09
5615.69
5963.09
527.712
1200.97
4687
1432.12
1694.31
253.795
4515.61
986.889
820.052
4792.16
3798.79
8338.3
5255.37
5888.39
962.79
6357.92
6135.24
5860.13
5227.22
5197.75
3894.33
7640.28
8463.66
9540.14
9094.78
8240.02
9711.87
4492.24
8954.01
8361.22
11430.2
3037.54
6210.95
7146.25
1125.62
2484.56
2676.36
263.65
1602.68
1886.85
1866.14
1382.28
3098.46
6199.43
9198.22
5393.16
5401.6
3332.01
2658.29
2393.8
3758.06
2711.45
2933.76
2701.28
1236.69
2371.41
2897.73
987.166
678.202
441.996
2325.65
2382.41
1378.89
795.21
325.508
4352
1283.04
575.46
346.356
692.399
132.19
425.251
117.884
869.293
102.204
218.77
4663.93
2545.16
960.483
7875.81
3936.43
854.797
6512.63
2071.6
7117.64
1291.78
3701.37
4238.27
469.115
4505.52
937.461
8444.27
7129.13
941.236
3639.66
425.304
7804.29
3830.57
2747.88
639.097
43.7145
3184.13
8981.52
10408.5
708.371
1003.84
8403.14
9819.17
3957.55
7053.33
10252.5
1632.27
2648.77
2268.7
6665.23
3673.88
9942.96
10937.3
1575.23
1336.72
8956.08
6295.89
5697.67
6658.23
3579.7
6912.22
8386.77
5299.3
9751.37
6126.64
7979.57
5328.75
2282.57
2147.48
9074.43
3641.17
3600.81
6132.16
1013.31
9495.75
9731.31
1817.76
504.546
902.343
2307.59
3235.78
1678.14
545.9
320.759
2797.79
1334.97
566.246
275.597
1015.94
60.1068
252.112
624.195
1597.58
1641.85
844.581
3342.99
6574.65
944.444
4882.18
1030.92
1150.82
4476.99
536.581
2350.45
1431.76
2621.49
1474.53
2563.16
6518.85
3017.68
9212.33
4957.19
9265.17
4741.81
4568.22
1333.24
1971.82
2485.75
291.962
5895.12
1342.01
9048.89
10050.8
8106.51
2298.23
11553.6
11314.3
1055.08
908.865
1671.47
486.797
492.961
1301.79
1395.97
2435.52
11688.3
12252.7
11924.4
10504.2
11318.3
11945.6
13418.5
8656.34
10439.1
11770.7
9684.35
12623.8
5966.79
9234.3
10766.7
9652.41
7762.51
6207.8
5090.11
9930.22
4499.97
8514.96
3982.9
4850.55
3700.2
3555.24
3539.65
5378.89
3864.26
3335.93
2257.94
516.965
656.485
3439.6
5148.71
436.731
2966.85
4275.18
5498.94
5077.56
1328.48
4977.02
3465.79
4615.18
8387.85
8768.5
1185.06
4165.6
528.467
1012.12
2407.02
432.199
987.347
762.505
1366.42
872.245
2237.91
2584.66
8946.36
2355.99
821.139
4397.45
1921.45
2981.32
2886.91
3326.79
3473.75
12570.4
10239.3
2573.71
12594.7
11028
6831.39
3402.66
9289.97
7223.33
369.825
1113.23
1446.13
1034.15
406.018
781.671
1316.06
1826.13
13183.1
5117.45
6420.3
10328
2151.99
633.814
2004.78
4546.9
11014.6
734.874
589.39
2638.91
1086.26
10878.8
3543.57
5263.12
10328.2
3947.84
1036.79
3218.88
1872.6
2165.09
3436.34
574.438
361.55
479.024
3750.79
1801.24
2690.1
2388.3
9776.29
1450.21
6455.55
7201.15
4255.51
3892.77
2870.87
4775.22
3160.57
2950.31
2625.79
3171.29
2773.99
1303.2
7795.75
1045.33
575.946
2447.44
363.824
714.736
1338.05
426.403
1327.04
4570.44
3532.73
4350.45
2518.8
1685.76
2952.29
3737.33
1033.77
1016.15
4232.4
4662.64
7553.37
2146.61
7877.38
3025.65
362.768
2901.42
265
326.333
40.9461
80.5603
95.7233
101.834
1040.65
1016.4
1277.6
1373.98
5755.26
3486.9
7013.53
5972.01
340.988
187.898
376.771
1085.51
311.486
534.396
511.184
1008.24
1363.61
666.224
2449.78
923.702
3968.15
5.86997
0
6.49647
0.397126
7.28948
13.4819
0
0
18.7164
85.2981
16.3622
16.5656
46.8469
104.957
26.1108
1369.49
952.804
19.1731
897.376
21.8493
0
0
278.73
5.25359
615.252
43.9162
148.754
57.8287
208.073
6.24106
127.137
136.676
172.996
700.068
795.086
539.327
1421.63
1183.59
943.001
1971.08
1637.41
4821.93
27.5686
97.8901
71.4235
294.317
13633.4
11024.8
11506.2
1183.74
10321.3
2406.29
10295.1
621.103
487.233
930.396
620.224
115.969
5488.4
9243.94
4397.07
906.677
1981.14
3442.77
8073.72
13175.1
10777.9
10996.5
6147.4
10355.8
11054.9
11784.3
83.0726
35.9027
44.9715
29.9186
68.3938
37.1123
27.9954
25.0375
37.9495
3598.36
1326.75
6382.24
12.1996
388.562
114.01
926.578
3634.94
53.3354
35.0839
236.803
119.904
30.2115
56.9747
71.5866
952.975
414.863
137.057
107.927
104.994
366.011
0
0
0
0
0
0
0
0
14.2775
25.1462
0
15.7035
19.9908
79.9501
41.768
91.8219
12.037
0
11.8625
0.860099
0
0
10.0987
0
143.647
2.49364
114.803
22.308
126.717
0
67.7274
55.7902
0
51.2904
4.54415
0
0.290992
0
0
713.428
786.255
688.984
0
38.0476
26.9059
2.10113
8.00419
2.22981
1.8317
9.03261
0
0
163.63
0
136.145
0
0
0
0
248.872
57.3916
29.0754
34.6526
39.6586
67.465
122.624
405.726
1.91837
0
0
2.95562e-13
162.617
488.243
772.338
0
0
0
0
31.2239
14.9173
27.5816
29.133
36.265
9.13854
26.0186
8.62724
33.4265
21.1974
39.1644
90.2762
10.323
5.21713
8.90164
7.57691
178.112
0
0
304.056
0
0
10.9487
22.3474
47.3386
53.9614
34.2783
50.3195
18.5095
12.9775
55.9153
31.2428
43.7642
20.8585
6.75721
0
0
0
0
0
0
0
0
0
20.4951
33.2062
9.46243
10.1217
3.61522
8.32013
0
0
0
5.59735e-13
0
0
0
0
0
45.9355
4.3361
57.2618
6.3091
46.8402
0
37.2861
62.7498
0
60.2225
0
0
0
0
0
0
0
0
0
0
0
0
0
0
12.4274
0
0
0
0
0
0
0
0
0
0
0
8.26893
0
5.29108
14.8393
0
0
0
0
0
2.73313
0
0
0
0
0
0
0
0
0
49.8786
21.8883
21.7836
61.3273
29.1214
32.0162
24.5971
29.8688
9.09406
3.30492
3.47296
12.4485
2.45842
1.25273
9.69561
0
0.169449
0
0
0
0
0.522343
40.4239
13.8456
3.34972
18.7432
15.2777
17.3197
18.7813
48.7816
8.73099
19.2947
33.7113
12.9074
0
0
0
0
0
0
0
0
9.59218
0
0
0
0
9.87622
11.9388
0
12.4155
0
4.93383
0
0
0
4.46286e-13
0
40.7614
0
25.0751
0
3.13263
5.01036
19.3932
61.3445
7.6115
0
0
6.13375
6.24133
20.4946
0
0
5.07142
0
0
0
0
0
0
0
0
0
0
0
0
5.27496
10.5707
0
0
0
0
0
0
0
0
3.30762
0
0
0
0
0
0
0
0
22.7208
0
34.6351
20.4137
0.299433
16.361
3.72489
27.9768
1.13595
5.14328
3.0617
6.389
3.65631
4.86575
6.34426
11.3753
0
12.6356
0
18.0628
32.3801
0.394049
20.3416
0
0
16.0831
33.2935
14.2651
0.469302
0
0
0
0
0
0
0
0
0
0
0
0
0
0
0
0
15.9358
0
0
4.93013
0
0
0
0
0
3.46715
0
4.14005
0
0
0
0
6.50878
0
3.55433
0
6.09572
6.19217
21.5541
0
0
0
0
4.03928
11.4246
5.42038
6.42962
0
5.39695
6.4658
0
0
3.35688
0
0
11.5122
23.3494
5.61622
8.59578
9.82309
14.3426
5.59481
0.362907
0
0
1.13278e-14
0
3.44717
0
2.48231
10.5457
0
6.49045
0
4.40828
1.10519
6.47172
12.0111
14.665
5.04299
14.3886
0
14.6371
3.57716e-13
7.88046
0
0
0
0
0
0
0
0
0
0
0
0
0
0
0
0
0
0
0
0
8.64463
0.495953
0
0
0
0
0
0
0
0
0
0
0
0
0
6.08086
0
20.9751
5.91443
0
0
0
0
0
0
0
16.0338
0.109285
13.3938
0
0
0
0
2.66988
0
11.6113
0.184737
5.11568
6.34038
4.87048
5.52062
8.46479
4.78845
2.65862
6.62659e-14
0
0
5.68455
0
0
6.59915
0
0
4.21027
13.9236
0
1.66265e-13
0
9.67909
0
0
3.66747
0
0
0
0
0
0
0
0
0
0
0
0
0
0
0
0
0
0
13.0084
0
0
0
0
0
0
0
0
0
0
0
0
0
0
0
0
0
0
6.00296
0
0
12.1262
0
0
0
0
0
5.50277
13.6009
0
11.3419
0
0
4.27553
0
0
1.5963e-13
23.2965
0
0
0
0
0
0
0
0
3.76017
0
10.6989
0
9.91748e-14
0
4.77583
0
0
0
3.62091
0
0
0
0
0.976659
0
0
0
0
0
0
0
0
0
0
0
0
0
0
0
0
0
0
0
0
0
0.351995
0
0
0
0
0
0
0
0
0
0
0
0
0
0
0
0
0
0
12.0619
6.38088
0
13.4057
0
0
0
0
0
5.51196
13.9837
0
17.0181
1.61656e-13
0
0
0
0
0.96866
11.756
0
0
0
0
0
0
0
0
2.86037
3.38683
0
0
0
0
0
4.61701
0
0
0
0
0
0
0
0
0
0
0
0
15.951
0
0
0
0
0
0
0
0
0
0
0
0
0
0
0
0
0
0
0
0
0
0
0
0
0
0
0
0
0
0
0
0
0
1.53176e-13
0
16.8005
3.48285
0
3.94046
0
0
0
0
0
5.64489
0
0
5.59846
7.02661
0
4.3055
0
12.6117
0
0
12.1621
0
0
0
0
0
0
0
0
0.249281
5.71788
3.53858
2.98754
4.38654
0
0
8.70361
0
0
0
0
0
0
0.943713
0
0
6.65004
0
5.9713
0
0
0
0
0
0
0
0
0
0
0
0
0
0
0
0
0
0
0
0
0
0
0
0
0
0
0
0
0
0
0
0
0
4.34607
0
7.39489
6.58696
0
11.9265
0
0
0
0
0
5.64586
0
0
5.6631
0.415862
4.78735e-14
0
0
0
1.17724
0
11.311
0
0
0
0
0
0
0
0
0.256154
0
0
10.473
0
6.10246
2.68255
0
0
0
11.8699
0
3.20541
0
0
0
0
6.85433
0
1.54093
0
0
0
0
0
0
0
0
0
0
0
0
0
0
0
0
0
0
0
0
0
0
0
0
0
0
4.629
0
0
0
0
0
0
6.38766
0
5.83718
0
2.01148e-12
11.6004
0
0
0
0
0
0
0
0
0
14.1266
0
0
1.04863
0
7.43208
0
0
0
0
0
0
0
0
0
0
0
0
6.98634
3.34928
3.37093
1.32255
7.66286
0
0
5.73413
0.632766
0
1.17213
0
1.07016
13.2512
5.16978
6.72034
0
4.80497
0
0
0
0
0
0
0
0
0
0
0
0
0
0
0
11.4552
0
0
0
0
0
0
0
0
0
0
0
0
0
0
0
0
0
0
0
0
0
0
0
0
0
0
0
0
3.67088
4.53963
0
11.0143
9.37758
0
4.25241
0
0
9.3567
0
0
0
0
0
0
0
0
0
0
4.55631
15.1754
0
3.41947e-14
3.04345
7.03157
7.95133e-14
8.07332
0
3.39869
0
0
2.07637
0
0.923972
12.893
3.59532
0
0
14.045
0
0
0
0
0
0
0
0
0
0
0
0
0
0
0
0
10.918
0
0
0
0
0
0
0
0
0
0
0
0
0
0
0
0
0
14.3973
5.86693
0
3.72766
0
0
0
0
4.16642
0
16.7763
9.02105
0
3.92633
8.75736
0
4.30694
0
0
0
7.44747
0.414834
0
0
4.4896
0
0
0
0
7.43774
3.44068
12.4181
0.291511
3.49754
11.122
16.6779
7.6253
0
2.74615
0
0
0
3.20174
0
12.6668
0
7.51115
1.61085
0
14.0967
0
0
0
0
0
0
0
0
0
0
0
0
0
0
0
10.5565
0
0
0.142125
0
0
0
0
0
0
0
0
0
0
0
0
0
0
0
0
11.5708
0
0
0
0
0
0
0
0
5.28285
6.69634
18.5515
5.1508
6.6305
0
0
0
0
0
0
0
0
0
0
0
0
0
0
6.94175
1.17843
6.15716
3.63861
8.98895
4.68585
6.2767
0
5.21291
0
3.22286
0
0
0
0
8.00883
0
0
10.1879
0
11.7812
0
0
0
0
0
0
0
0
0
0
0
0
0
0
0
0
0
0
0
0
0
0
0
0
0
0
0
0
0
0
0
0
0
6.57438
0
0
0
0
4.47268
0
0
0
0
0
5.0921
2.19557
6.39045
0
4.27452
0
0
3.81968
0
4.62628
0
0
0
0
0
0
0
0
0.246848
2.91932
3.33958
13.2791
2.4794
6.79541
23.4528
10.4466
8.06559
0
4.00276
0
0
0
0
0
3.69279
0
0
0
0
17.0941
0
0
0
0
0
0
0
0
0
0
0
0
0
0
0
0
0
0
0
0
0
0
0
1.88876
0
0
0
0
0
0
0
0
0
0
0.587751
8.64766
0
0
3.62113
0
0
0
0
0
1.84628e-14
1.77395
0
9.86284
16.557
0
0
0
0
0
0
2.28091
0
0
0.132869
0
0
0
0
6.74892
8.72898
14.4307
7.38853
3.32975
14.0345
6.7184
0
2.32103
0
0
0
0
0
0
4.48667
8.56943
0
5.64088
0
21.5884
0
0
0
0
0
0
0
0
0
0
0
0
0
0
0
0
0
0
0
0
0
0
0
0
0
0
0
0
0
0
0
0
0
1.29364
0
0
4.98708
0
0
0
0
0
0
0
4.86122
7.61084
6.27937
0
0
0
0
0
0
0
0
0
0
0
0
1.74028
0
9.58821
0
0
1.50424
9.93558
3.47963
0
1.14085
0
0
0
0
0
14.0229
5.30499
0
0
8.23215
4.6041e-14
1.35367
4.33043
0
0
0
0
0
0
0
0
0
0
0
0
0
0
0
0
0
0
0
0
0
0
0
0
0
0
0
0
0
0
0
0
0
0
0
0
37.0608
0
0
0
0
0
0
0
0
0
4.779
6.25484
0
0
0
0
0
0
0
0
23.1292
0
5.20926
0
0
7.6552
0
1.30732
0
0
2.1454
6.22138
0
3.36364
0
0
0
0
0
0
0
0
0
0
6.75497
0
2.21108
4.42255
9.79095
6.16174
0
0
0
0
0
0
0
0
0
0
0
0
0
0
0
0
0
0
0
0
0
0
0
0
0
0
0
0
0
0
0
0
0
2.38062e-13
17.7541
0
6.22987
0
4.65542
0
0
0
0
0
3.26527
10.0369
35.4523
4.59318
2.31625
0
0
0
0
0
0
7.76871
0
9.70885
0
14.5003
3.98027
8.78223
0
0
0
0
0
0
0
6.4102
0
6.70966
0
0
0
0
0
0
0
9.74522
3.58806
4.20006
0
0
0
0
0
0
0
0
0
0
0
0
0
0
0
0
0
0
0
0
0
0
0
0
0
0
0
0
0
0
0
0
0
0
0
0
0
0
0
0
9.17981
0
0
0
0
0
0
0
0
4.86753e-13
4.63696
0
0
0
0
0
0
12.719
3.43021
0
0
7.8709
5.11245
8.95224
0
0
0
0
0
0
3.2305
0
0
0
0
0
0
0
0
0
2.79052
0
0
0
0
0
0
0
0
0
0
0
0
0
0
0
0
0
0
0
0
0
0
0
0
0
0
0
0
0
0
0
0
0
0
0
0
0
0
0
0
0
0
0
0
0
0
0
0
0
1.17043
4.16618
0
0
5.68968
0
0
0
0
0
3.02841
31.2633
0
0
0.938502
4.54702
0
8.3714
1.65896
0
0
0
0
0
3.32807
6.56707
0
0
0
0
0
3.93142
0
0
0
0
0
4.51879
0
0
0
0
0
0
0
0
0
0
0
0
0
0
0
0
0
0
0
0
0
0
0
0
0
0
0
0
0
0
0
0
0
0
0
0
0
0
0
0
0
0
0
0
0
0
0
5.66349
0
0
0
0
0
0
0
0
20.4857
0
1.50255
0
0
0
2.99971
0
1.01557
0
0
0
0
0
0
0
0
0
5.89416
0
0
0
0
0
0
0
0
0
0
0
0
0
0
0
0
0
0
0
0
0
0
0
0
0
0
0
0
0
0
0
0
0
0
0
0
0
0
0
0
0
0
0
0
0
0
0
0
0
0
0
0
0
0
0
0
0
0
0
5.62158
0
0
0
0
0
0
0
1.83941e-13
3.20256e-14
4.37361
8.71426
4.78817
16.8844
0
0
1.0613
0
0
0
0
0
0
9.1026
3.21845
0
0
0
0
0
0
0
0
0
0
0
0
0
0
0
0
0
0
0
0
0
0
0
0
0
0
0
0
0
0
0
0
0
0
0
0
0
0
0
0
0
0
0
0
0
0
0
0
0
0
0
0
0
0
0
4.06076
0.383728
0
4.39969
5.72846
0
0
0
0
0
0
0
0
0
0
0
0
0
0
0
0
0
0
0
0
0
0
5.98514
9.19802
0
10.517
3.40007
0
0
0
0
0
0
0
0
0
0
0
0
0
0
0
0
0
0
0
0
0
0
0
0
0
0
0
0
0
0
0
0
0
0
0
0
0
0
0
0
0
0
0
0
0
0
0
0
0
0
0
0
0
0
0
0
0
0
0
0
0
0
10.5665
0.69216
4.86444
8.57144
0
4.16356
0
0
0
0
0
0
0
0
0
0
0
0
8.77567
0
0
0
3.22098
0
0
0
0
0
0
0
0
0
0
0
0
0
0
0
0
0
0
0
0
0
0
0
0
0
0
0
0
0
0
0
0
0
0
0
0
0
0
0
0
0
0
0
0
0
0
0
0
0
0
0
0
0
0
0
0
0
0
0
0
0
0
10.6681
0
0
0.13922
4.44798
0
0
3.31597
0
0
0
2.79851
0
1.28751
0
0
0
0
0
0
0
0
0
0
0
0
0
0
0
0
0
0
0
0
0
0
0
0
0
0
0
0
0
0
0
0
0
0
0
0
0
0
0
0
0
0
0
0
0
0
0
0
0
0
0
0
0
0
0
0
0
0
0
4.53882
2.32149e-13
0
0
5.98989
0
0
0
0
0
0
0
1.92161e-13
8.5644
0
0
5.52937
8.02956
0
0
0
0
0
0
0
0
0
0
0
0
0
4.20877
0
0
0
0
0
0
0
0
0
0
0
0
0
0
0
0
0
0
0
0
0
0
0
0
0
0
0
0
0
0
0
0
0
0
0
0
0
0
0
0
0
0
0
0
0
0
0
0
0
0
0
0
0
0
0
0
0
0
0
0
0
0
0
0
0
0
0
0
0
0
0
0
0
0
0
0
0
0
0
0
0
0
0
0
0
0
0
0
0
0
0
0
0
0
0
0
0
0
0
0
0
0
0
0
0
0
0
0
0
0
0
0
0
0
0
0
0
0
0
0
0
0
0
0
0
0
0
0
0
0
0
0
0
0
0
0
0
0
0
0
0
0
0
0
0
0
0
0
0
0
0
0
0
0
0
0
0
0
0
0
0
0
0
0
0
0
0
3.69995e-14
3.47693e-13
0
0
0
0
0
0
0
0
0
0
0
0
0
0
0
0
0
0
0
0
0
0
0
0
0
0
0
0
0
0
0
0
0
0
0
0
0
0
0
0
0
0
0
0
0
0
0
0
0
0
0
0
0
0
0
0
0
0
0
0
0
0
0
0
0
0
0
0
0
0
0
0
0
0
0
0
0
0
0
0
2.05388
0
0
0
0
0
0
0
0
0
0
0
0
0
0
0
0
0
0
0
0
0
0
0
0
0
0
0
0
0
0
0
0
0
0
0
0
0
0
0
0
0
0
0
0
0
0
0
0
0
0
0
0
0
0
0
0
0
0
0
0
0
0
0
0
0
0
0
0
0
0
0
0
0
0
0
0
0
0
0
0
0
0
0
0
0
0
0
0
0
0
0
0
0
0
0
0
0
0
0
0
0
0
0
0
0
0
0
0
0
0
0
0
0
0
0
0
0
0
0
0
0
0
0
0
0
0
0
0
0
0
0
0
0
0
0
0
0
0
0
0
0
0
0
0
0
0
0
0
0
0
0
0
0
0
0
0
0
0
0
0
0
0
0
0
0
0
0
0
0
0
0
0
0
0
0
0
0
0
0
0
0
0
0
0
0
0
0
0
0
0
0
0
0
0
0
0
0
0
0
0
0
0
0
0
0
0
0
0
0
0
0
0
0
0
0
0
0
0
0
0
0
0
0
0
0
0
0
0
0
0
0
0
0
0
0
0
0
0
0
0
0
0
0
0
0
0
0
0
0
0
0
0
0
0
0
0
0
0
0
0
0
0
0
0
0
0
0
0
0
0
0
0
0
0
0
0
0
0
0
0
0
0
0
0
0
0
0
0
0
0
0
0
0
0
0
0
0
0
0
0
0
0
0
0
0
0
0
0
0
0
0
0
0
0
0
0
0
0
0
0
0
0
0
0
0
0
0
0
0
0
0
0
0
0
0
0
0
0
0
0
0
0
0
0
0
0
0
0
0
0
0
0
0
0
0
0
0
0
0
0
0
0
0
0
0
0
0
0
0
0
0
0
0
0
0
0
0
0
0
0
0
0
0
0
0
0
0
0
0
0
0
0
0
0
0
0
0
0
0
0
0
0
0
0
0
0
0
0
0
0
0
0
0
0
0
0
0
0
0
0
0
0
0
0
0
0
0
0
0
0
0
0
0
0
0
0
0
0
0
0
0
0
0
0
0
0
0
0
0
0
0
0
0
0
0
0
0
0
0
0
0
0
0
0
0
0
0
0
0
0
0
0
0
0
0
0
0
0
0
0
0
0
0
0
0
0
0
0
0
0
0
0
0
0
0
0
0
0
0
0
0
0
0
0
0
0
0
0
0
0
0
0
0
0
0
0
0
0
0
0
0
0
0
0
0
0
0
0
0
0
0
0
0
0
0
0
0
0
0
0
0
0
0
0
0
0
0
0
0
0
0
0
0
0
0
0
0
0
0
0
0
0
0
0
0
0
0
0
0
0
0
0
0
0
0
0
0
0
0
0
0
0
0
0
0
0
0
0
0
0
0
0
0
0
0
0
0
0
0
0
0
0
0
0
0
0
0
0
0
0
0
0
0
0
0
0
0
0
0
0
0
0
0
0
0
0
0
0
0
0
0
0
0
0
0
0
0
0
0
0
0
0
0
0
0
0
0
0
0
0
0
0
0
0
0
0
0
0
0
0
0
0
0
0
0
0
0
0
0
0
0
0
0
0
0
0
0
0
0
0
0
0
0
0
0
0
0
0
0
0
0
0
0
0
0
0
0
0
0
0
0
0
0
0
0
0
0
0
0
0
0
0
0
0
0
0
0
0
0
0
0
0
0
0
0
0
0
0
0
0
0
0
0
0
0
0
0
0
0
0
0
0
0
0
0
0
0
0
0
0
0
0
0
0
0
0
0
0
0
0
0
0
0
0
0
0
0
0
0
0
0
0
0
0
0
0
0
0
0
0
0
0
0
0
0
0
0
0
0
0
0
0
0
0
0
0
0
0
0
0
0
0
0
0
0
0
0
0
0
0
0
0
0
0
0
0
0
0
0
0
0
0
0
0
0
0
0
0
0
0
0
0
0
0
0
0
0
0
0
0
0
0
0
0
0
0
0
0
0
0
0
0
0
0
0
0
0
0
0
0
0
0
0
0
0
0
0
0
0
0
0
0
0
0
0
0
0
0
0
0
0
0
0
0
0
0
0
0
0
0
0
0
0
0
0
0
0
0
0
0
0
0
0
0
0
0
0
0
0
0
0
0
0
0
0
0
0
0
0
0
0
0
0
0
0
0
0
0
0
0
0
0
0
0
0
0
0
0
0
0
0
0
0
0
0
0
0
0
0
0
0
0
0
0
0
0
0
0
0
0
0
0
0
0
0
0
0
0
0
0
0
0
0
0
0
0
0
0
0
0
0
0
0
0
0
0
0
0
0
0
0
0
0
0
0
0
0
0
0
0
0
0
0
0
0
0
0
0
0
0
0
0
0
0
0
0
0
0
0
0
0
0
0
0
0
0
0
0
0
0
0
0
0
0
0
0
0
0
0
0
0
0
0
0
0
0
0
0
0
0
0
0
0
0
0
0
0
0
0
0
0
0
0
0
0
0
0
0
0
0
0
0
0
0
0
0
0
0
0
0
0
0
0
0
0
0
0
0
0
0
0
0
0
0
0
0
0
0
0
0
0
0
0
0
0
0
0
0
0
0
0
0
0
0
0
0
0
0
0
0
0
0
0
0
0
0
0
0
0
0
0
0
0
0
0
0
0
0
0
0
0
0
0
0
0
0
0
0
0
0
0
0
0
0
0
0
0
0
0
0
0
0
0
0
0
0
0
0
0
0
0
0
0
0
0
0
0
0
0
0
0
0
0
0
0
0
0
0
0
0
0
0
0
0
0
0
0
0
0
0
0
0
0
0
0
0
0
0
0
0
0
0
0
0
0
0
0
0
0
0
0
0
0
0
0
0
0
0
0
0
0
0
0
0
0
0
0
0
0
0
0
0
0
0
0
0
0
0
0
0
0
0
0
0
0
0
0
0
0
0
0
0
0
0
0
0
0
0
0
0
0
0
0
0
0
0
0
0
0
0
0
0
0
0
0
0
0
0
0
0
0
0
0
0
0
0
0
0
0
0
0
0
0
0
0
0
0
0
0
0
0
0
0
0
0
0
0
0
0
0
0
0
0
0
0
0
0
0
0
0
0
0
0
0
0
0
0
0
0
0
0
0
0
0
0
0
0
0
0
0
0
0
0
0
0
0
0
0
0
0
0
0
0
0
0
0
0
0
0
0
0
0
0
0
0
0
0
0
0
0
0
0
0
0
0
0
0
0
0
0
0
0
0
0
0
0
0
0
0
0
0
0
0
0
0
0
0
0
0
0
0
0
0
0
0
0
0
0
0
0
0
0
0
0
0
0
0
0
0
0
0
0
0
0
0
0
0
0
0
0
0
0
0
0
0
0
0
0
0
0
0
0
0
0
0
0
0
0
0
0
0
0
0
0
0
0
0
0
0
0
0
0
0
0
0
0
0
0
0
0
0
0
0
0
0
0
0
0
0
0
0
0
0
0
0
0
0
0
0
0
0
0
0
0
0
0
0
0
0
0
0
0
0
0
0
0
0
0
0
0
0
0
0
0
0
0
0
0
0
0
0
0
0
0
0
0
0
0
0
0
0
0
0
0
0
0
0
0
0
0
0
0
0
0
0
0
0
0
0
0
0
0
0
0
0
0
0
0
0
0
0
0
0
0
0
0
0
0
0
0
0
0
0
0
0
0
0
0
0
0
0
0
0
0
0
0
0
0
0
0
0
0
0
0
0
0
0
0
0
0
0
0
0
0
0
0
0
0
0
0
0
0
0
0
0
0
0
0
0
0
0
0
0
0
0
0
0
0
0
0
0
0
0
0
0
0
0
0
0
0
0
0
0
0
0
0
0
0
0
0
0
0
0
0
0
0
0
0
0
0
0
0
0
0
0
0
0
0
0
0
0
0
0
0
0
0
0
0
0
0
0
0
0
0
0
0
0
0
0
0
0
0
0
0
0
0
0
0
0
0
0
0
0
0
0
0
0
0
0
0
0
0
0
0
0
0
0
0
0
0
0
0
0
0
0
0
0
0
0
0
0
0
0
0
0
0
0
0
0
0
0
0
0
0
0
0
0
0
0
0
0
0
0
0
0
0
0
0
0
0
0
0
0
0
0
0
0
0
0
0
0
0
0
0
0
0
0
0
0
0
0
0
0
0
0
0
0
0
0
0
0
0
0
0
0
0
0
0
0
0
0
0
0
0
0
0
0
0
0
0
0
0
0
0
0
0
0
0
0
0
0
0
0
0
0
0
0
0
0
0
0
0
0
0
0
0
0
0
0
0
0
0
0
0
0
0
0
0
0
0
0
0
0
0
0
0
0
0
0
0
0
0
0
0
0
0
0
0
0
0
0
0
0
0
0
0
0
0
0
0
0
0
0
0
0
0
0
0
0
0
0
0
0
0
0
0
0
0
0
0
0
0
0
0
0
0
0
0
0
0
0
0
0
0
0
0
0
0
0
0
0
0
0
0
0
0
0
0
0
0
0
0
0
0
0
0
0
0
0
0
0
0
0
0
0
0
0
0
0
0
0
0
0
0
0
0
0
0
0
0
0
0
0
0
0
0
0
0
0
0
0
0
0
0
0
0
0
0
0
0
0
0
0
0
0
0
0
0
0
0
0
0
0
0
0
0
0
0
0
0
0
0
0
0
0
0
0
0
0
0
0
0
0
0
0
0
0
0
0
0
0
0
0
0
0
0
0
0
0
0
0
0
0
0
0
0
0
0
0
0
0
0
0
0
0
0
0
0
0
0
0
0
0
0
0
0
0
0
0
0
0
0
0
0
0
0
0
0
0
0
0
0
0
0
0
0
0
0
0
0
0
0
0
0
0
0
0
0
0
0
0
0
0
0
0
0
0
0
0
0
0
0
0
0
0
0
0
0
0
0
0
0
0
0
0
0
0
0
0
0
0
0
0
0
0
0
0
0
0
0
0
0
0
0
0
0
0
0
0
0
0
0
0
0
0
0
0
0
0
0
0
0
0
0
0
0
0
0
0
0
0
0
0
0
0
0
0
0
0
0
0
0
0
0
0
0
0
0
0
0
0
0
0
0
0
0
0
0
0
0
0
0
0
0
0
0
0
0
0
0
0
0
0
0
0
0
0
0
0
0
0
0
0
0
0
0
0
0
0
0
0
0
0
0
0
0
0
0
0
0
0
0
0
0
0
0
0
0
0
0
0
0
0
0
0
0
0
0
0
0
0
0
0
0
0
0
0
0
0
0
0
0
0
0
0
0
0
0
0
0
0
0
0
0
0
0
0
0
0
0
0
0
0
0
0
0
0
0
0
0
0
0
0
0
0
0
0
0
0
0
0
0
0
0
0
0
0
0
0
0
0
0
0
0
0
0
0
0
0
0
0
0
0
0
0
0
0
0
0
0
0
0
0
0
0
0
0
0
0
0
0
0
0
0
0
0
0
0
0
0
0
0
0
0
0
0
0
0
0
0
0
0
0
0
0
0
0
0
0
0
0
0
0
0
0
0
0
0
0
0
0
0
0
0
0
0
0
0
0
0
0
0
0
0
0
0
0
0
0
0
0
0
0
0
0
0
0
0
0
0
0
0
0
0
0
0
0
0
0
0
0
0
0
0
0
0
0
0
0
0
0
0
0
0
0
0
0
0
0
0
0
0
0
0
0
0
0
0
0
0
0
0
0
0
0
0
0
0
0
0
0
0
0
0
0
0
0
0
0
0
0
0
0
0
0
0
0
0
0
0
0
0
0
0
0
0
0
0
0
0
0
0
0
0
0
0
0
0
0
0
0
0
0
0
0
0
0
0
0
0
0
0
0
0
0
0
0
0
0
0
0
0
0
0
0
0
0
0
0
0
0
0
0
0
0
0
0
0
0
0
0
0
0
0
0
0
0
0
0
0
0
0
0
0
0
0
0
0
0
0
0
0
0
0
0
0
0
0
0
0
0
0
0
0
0
0
0
0
0
0
0
0
0
0
0
0
0
0
0
0
0
0
0
0
0
0
0
0
0
0
0
0
0
0
0
0
0
0
0
0
0
0
0
0
0
0
0
0
0
0
0
0
0
0
0
0
0
0
0
0
0
0
0
0
0
0
0
0
0
0
0
0
0
0
0
0
0
0
0
0
0
0
0
0
0
0
0
0
0
0
0
0
0
0
0
0
0
0
0
0
0
0
0
0
0
0
0
0
0
0
0
0
0
0
0
0
0
0
0
0
0
0
0
0
0
0
0
0
0
0
0
0
0
0
0
0
0
0
0
0
0
0
0
0
0
0
0
0
0
0
0
0
0
0
0
0
0
0
0
0
0
0
0
0
0
0
0
0
0
0
0
0
0
0
0
0
0
0
0
0
0
0
0
0
0
0
0
0
0
0
0
0
0
0
0
0
0
0
0
0
0
0
0
0
0
0
0
0
0
0
0
0
0
0
0
0
0
0
0
0
0
0
0
0
0
0
0
0
0
0
0
0
0
0
0
0
0
0
0
0
0
0
0
0
0
0
0
0
0
0
0
0
0
0
0
0
0
0
0
0
0
0
0
0
0
0
0
0
0
0
0
0
0
0
0
0
0
0
0
0
0
0
0
0
0
0
0
0
0
0
0
0
0
0
0
0
0
0
0
0
0
0
0
0
0
0
0
0
0
0
0
0
0
0
0
0
0
0
0
0
0
0
0
0
0
0
0
0
0
0
0
0
0
0
0
0
0
0
0
0
0
0
0
0
0
0
0
0
0
0
0
0
0
0
0
0
0
0
0
0
0
0
0
0
0
0
0
0
0
0
0
0
0
0
0
0
0
0
0
0
0
0
0
0
0
0
0
0
0
0
0
0
0
0
0
0
0
0
0
0
0
0
0
0
0
0
0
0
0
0
0
0
0
0
0
0
0
0
0
0
0
0
0
0
0
0
0
0
0
0
0
0
0
0
0
0
0
0
0
0
0
0
0
0
0
0
0
0
0
0
0
0
0
0
0
0
0
0
0
0
0
0
0
0
0
0
0
0
0
0
0
0
0
0
0
0
0
0
0
0
0
0
0
0
0
0
0
0
0
0
0
0
0
0
0
0
0
0
0
0
0
0
0
0
0
0
0
0
0
0
0
0
0
0
0
0
0
0
0
0
0
0
0
0
0
0
0
0
0
0
0
0
0
0
0
0
0
0
0
0
0
0
0
0
0
0
0
0
0
0
0
0
0
0
0
0
0
0
0
0
0
0
0
0
0
0
0
0
0
0
0
0
0
0
0
0
0
0
0
0
0
0
0
0
0
0
0
0
0
0
0
0
0
0
0
0
0
0
0
0
0
0
0
0
0
0
0
0
0
0
0
0
0
0
0
0
0
0
0
0
0
0
0
0
0
0
0
0
0
0
0
0
0
0
0
0
0
0
0
0
0
0
0
0
0
0
0
0
0
0
0
0
0
0
0
0
0
0
0
0
0
0
0
0
0
0
0
0
0
0
0
0
0
0
0
0
0
0
0
0
0
0
0
0
0
0
0
0
0
0
0
0
0
0
0
0
0
0
0
0
0
0
0
0
0
0
0
0
0
0
0
0
0
0
0
0
0
0
0
0
0
0
0
0
0
0
0
0
0
0
0
0
0
0
0
0
0
0
0
0
0
0
0
0
0
0
0
0
0
0
0
0
0
0
0
0
0
0
0
0
0
0
0
0
0
0
0
0
0
0
0
0
0
0
0
0
0
0
0
0
0
0
0
0
0
0
0
0
0
0
0
0
0
0
0
0
0
0
0
0
0
0
0
0
0
0
0
0
0
0
0
0
0
0
0
0
0
0
0
0
0
0
0
0
0
0
0
0
0
0
0
0
0
0
0
0
0
0
0
0
0
0
0
0
0
0
0
0
0
0
0
0
0
0
0
0
0
0
0
0
0
0
0
0
0
0
0
0
520.991
996.199
603.79
2518.97
2799.84
698.856
1468.92
3327.23
1591.21
3130.86
966.493
892.151
1228.93
995.04
1618.53
2870.98
1308.92
3378.52
1278.17
3345.82
2029.05
1709.27
5167.69
5018.44
686.535
3351.8
2931.84
4349.34
1314.09
3185.42
979.719
1306.5
1789.58
6893.25
3336.01
3076.16
2984.15
1747.19
586.25
1330.25
4169.91
4967.49
1756
2249.48
4750.9
1836
3379.25
1413.04
3317.12
4426.75
8473.05
4821.45
1806.28
2320.88
4048.04
2182.79
3283.5
1977.91
2256.87
3798.85
4791.19
1640.33
1597.72
3809.88
1882.32
6585.42
1439.16
3611.4
1763.66
3454.47
3769.73
7242.2
1017.87
9878.24
6707.53
7597.3
1793.24
1881.47
1118.52
1357.12
1506.97
1302.16
164.295
1639.01
2467.96
218.347
1868.32
173.736
562.697
234.426
647.442
528.389
2249.2
350.737
4680.45
596.361
4125.53
350.569
605.141
2631.13
421.059
697.314
316.628
1141.86
122.122
938.887
209.3
204.523
905.387
367.817
144.748
8.90788
341.216
128.956
568.017
42.7582
2399.31
1033.59
5632.19
1355.6
7182.34
1486.21
9623.71
4772.98
10054.7
8042.06
196.935
576.298
71.8963
252.944
204.261
469.803
295.105
274.798
2793.15
437.542
730.408
361.65
3963.77
222.028
6616.58
6448.99
9463.57
8897.72
5874.86
6222.95
3737.95
1647.47
8579.29
8223.97
309.898
189.327
1507.16
4022.21
1401.9
263.843
966.678
326.242
4816.33
306.291
3907.43
83.8254
1218
138.761
1398.09
2805.11
1352.85
313.462
2134.85
2392.02
482.158
1999.8
986.354
184.462
37.1584
507.157
341.127
1395.94
677.33
1843.12
127.692
472.948
6189.49
1110.2
4153.5
1703.8
2599.4
741.687
470.901
6999.27
3715.13
6473.88
208.909
1436.4
279.418
1323.59
31.57
2.28481
17.234
0
0
3.42653
6.01327
167.866
10.1122
11.7905
0
12.8475
0.213618
10.3366
95.6678
557.076
20.1855
888.767
10.5834
375.678
4.83667
14.4255
89.3508
6.88839
251.445
14.0083
47.6603
17.4589
5.71919
4.30717
0
0
5.25246
5.6069e-14
0
29.6985
0
9.77018
4.97952
10.4364
0
4.89666
0
77.8843
5.90444
0
0
11.345
2.35061e-14
15.4567
19.25
20.9383
20.4078
0
38.9266
18.918
0
0
0
0
5.79993
5.54878
0
5.69203
12.8377
7.39669
7.38269
13.3812
0
0
0
1.52491
5.40443
4.51161
0
5.24894
3.9495
17.0386
11.1022
15.5226
0
7.30797
13.3058
29.0898
0
0
0
0
0
5.6546
1.81132e-14
0
6.02822
0
6.17888
0
0
0
0
0
0
1.64304e-14
7.73875
0
0
5.69674
2.75565
3.0945
0
0
15.5567
7.69456
0
0
6.12689
0
0
0
6.06871
0
0
0
0
0
0
0
10.9605
0
5.12596
0
8.44694e-13
0
1.2117
0
0
0
0
0
0
0
0
0
0
0
0
0
0
0
5.65073
0
0
0
0
0
0
5.93032
3.96737
0
4.78168
0
0
0
5.62321
16.1996
0
5.11898
1.912
0
0
0
0
0
0
0
0
0
0
0
0
0
0
0
0
0
0
0
0
5.72683
0
1.9735e-14
15.062
0
0
0
0
0
0
0
0
0
0
0
0
0
0
0
0
0
0
0
0
5.72808
2.67799e-14
10.1036
0
5.58676
5.02522
0
7.71858
0
0
0
9.42113
0
0
0
0
0
0
0
0
0
0
0
0
0
0
0
0
0
0
3.4356
0
0
5.84382
0
0
0
0
5.13442
0
0
0
0
0
0
0
0
0
0
0
0
0
0
0
0
0
0
0
0
0
5.64876
0
0
0
0
3.86992
0
0
0
0
0
0
0
0
0
0
0
0
0
0
0
0
0
0
0
0
0
0
11.5855
0
0
11.6591
0
0
0
0
0.184877
0
0
0
0
0
0
0
0
0
0
0
0
0
0
0
0
0
0
0
12.9335
0
0
0
9.99853
10.4037
0
0
0
0
0
0
0
0
0
0
0
0
0
0
0
0
0
0
2.19436e-14
0
0
0
0
0
0
1.4075
3.33631
0
0
0
0
0
0
0
0
0
0
0
0
0
0
0
0
0
0
0
0
0
0
0
0
0
5.10828
5.49481
0.22882
5.19969
0
0
0
0
0
0
0
0
0
0
0
0
0
0
0
0
0
0
0