thermo_log      ../DEM/post/thermo.txt

atom_style      granular
atom_modify     map array
communicate     single vel yes

boundary        f f f
newton          off

units           si
processors      2 2 1

# read the restart file
read_restart    ../DEM/post/restart/liggghts.restart
WARNING: Restart file version does not match LIGGGHTS version (../read_restart.cpp:507)
  orthogonal box = (-0.05 -0.05 -0.01) to (0.05 0.05 0.5)
  2 by 2 by 1 MPI processor grid
  286046 atoms

neighbor        0.0005 bin
neigh_modify    delay 0


# Material properties required for granular pair styles (Two atom types)
fix         m1 all property/global youngsModulus peratomtype 5e6 5e6
fix         m2 all property/global poissonsRatio peratomtype 0.3 0.3
fix         m3 all property/global coefficientRestitution peratomtypepair 2 0.79 0.645 0.645 0.5
fix         m4 all property/global coefficientFriction peratomtypepair 2 0.45 0.5 0.5 0.55
fix         m5 all property/global coefficientRollingFriction peratomtypepair 2 0.000016 0.000016 0.000016 0.000016

##Material properties required for granular pair styles (Three atom types)
#fix         m1 all property/global youngsModulus peratomtype 5e6 5e6 5e6
#fix         m2 all property/global poissonsRatio peratomtype 0.3 0.3 0.35
#fix         m3 all property/global coefficientRestitution peratomtypepair 3 0.79 0.645 0.82 0.645 0.5 0.675 0.82 0.675 0.85
#fix         m4 all property/global coefficientFriction peratomtypepair 3 0.45 0.5 0.275 0.5 0.55 0.325 0.275 0.325 0.1
#fix         m5 all property/global coefficientRollingFriction peratomtypepair 3 0.000016 0.000016 0.000016 0.000016 0.000016 0.000016  0.000016 0.000016 0.000016

# pair style
pair_style  gran model hertz tangential history # Hertzian without cohesion
pair_coeff  * *

# timestep, gravity
timestep    0.00001
fix         gravi all gravity 9.81 vector 0.0 0.0 -1.0

#import mesh from cad:(two atom types)
fix  fb1 all mesh/surface file ../DEM/STL/fluidizedbedriser1.stl type 1 scale 0.0254
INFO: mesh file (../DEM/STL/fluidizedbedriser1.stl) is required, but data will be taken from restart file (../fix_mesh.cpp:417)
Resetting global state of Fix fb1 Style mesh/surface from restart file info
fix  fb2 all mesh/surface file ../DEM/STL/fluidizedbedriser2.stl type 1 scale 0.0254
INFO: mesh file (../DEM/STL/fluidizedbedriser2.stl) is required, but data will be taken from restart file (../fix_mesh.cpp:417)
Resetting global state of Fix fb2 Style mesh/surface from restart file info
fix  fbBioin all mesh/surface file ../DEM/STL/fluidizedbedBioin.stl type 1 scale 0.0254
INFO: mesh file (../DEM/STL/fluidizedbedBioin.stl) is required, but data will be taken from restart file (../fix_mesh.cpp:417)
Resetting global state of Fix fbBioin Style mesh/surface from restart file info
fix  fbGasin all mesh/surface file ../DEM/STL/fluidizedbedGasin.stl type 1 scale 0.0254
INFO: mesh file (../DEM/STL/fluidizedbedGasin.stl) is required, but data will be taken from restart file (../fix_mesh.cpp:417)
Resetting global state of Fix fbGasin Style mesh/surface from restart file info
fix  fbOut all mesh/surface file ../DEM/STL/fluidizedbedOut.stl type 1 scale 0.0254
INFO: mesh file (../DEM/STL/fluidizedbedOut.stl) is required, but data will be taken from restart file (../fix_mesh.cpp:417)
Resetting global state of Fix fbOut Style mesh/surface from restart file info

#import mesh from cad:(three atom types)
#fix  fb1 all mesh/surface file STL/fluidizedbedriser1.stl type 3 scale 0.0254
#fix  fb2 all mesh/surface file STL/fluidizedbedriser2.stl type 3 scale 0.0254
#fix  fbBioin all mesh/surface file STL/fluidizedbedBioin.stl type 3 scale 0.0254
#fix  fbGasin all mesh/surface file STL/fluidizedbedGasin.stl type 3 scale 0.0254
#fix fbOut all mesh/surface file STL/fluidizedbedOut.stl type 3 scale 0.0254

#use the imported mesh as granular wall
#fix  walls all wall/gran model hertz tangential history rolling_friction epsd2 mesh n_meshes 2 meshes fb fbGasin
fix	walls all wall/gran model hertz tangential history mesh n_meshes 4 meshes fb1 fb2  fbGasin fbBioin
Resetting global state of Fix n_neighs_mesh_fb1 Style property/atom from restart file info
Resetting per-atom state of Fix n_neighs_mesh_fb1 Style property/atom from restart file info
Resetting global state of Fix tracker_fb1 Style contacthistory/mesh from restart file info
Resetting per-atom state of Fix tracker_fb1 Style contacthistory/mesh from restart file info
Resetting global state of Fix n_neighs_mesh_fb2 Style property/atom from restart file info
Resetting per-atom state of Fix n_neighs_mesh_fb2 Style property/atom from restart file info
Resetting global state of Fix tracker_fb2 Style contacthistory/mesh from restart file info
Resetting per-atom state of Fix tracker_fb2 Style contacthistory/mesh from restart file info
Resetting global state of Fix n_neighs_mesh_fbGasin Style property/atom from restart file info
Resetting per-atom state of Fix n_neighs_mesh_fbGasin Style property/atom from restart file info
Resetting global state of Fix tracker_fbGasin Style contacthistory/mesh from restart file info
Resetting per-atom state of Fix tracker_fbGasin Style contacthistory/mesh from restart file info
Resetting global state of Fix n_neighs_mesh_fbBioin Style property/atom from restart file info
Resetting per-atom state of Fix n_neighs_mesh_fbBioin Style property/atom from restart file info
Resetting global state of Fix tracker_fbBioin Style contacthistory/mesh from restart file info
Resetting per-atom state of Fix tracker_fbBioin Style contacthistory/mesh from restart file info


#particle distributions and insertion ### insert biomass

#region     bc2 cylinder x 0.0 0.0444 0.0125 0.035 0.038 units box
#fix        pts2 all particletemplate/sphere 49979693 atom_type 2 density constant 294 radius constant 0.0005
#fix        pdd2 all particledistribution/discrete 86028157 1 pts2 1.0
#fix        ins2 all insert/stream seed 86028121 distributiontemplate pdd2 mass 0.002 massrate 0.0001 insert_every 2000 overlapcheck yes vel constant -0.1 0.0 0.0  insertion_face fbBioin ntry_mc 10000
##extrude_length 5
#fix        ins2 all insert/rate/region seed 86028121 distributiontemplate pdd2 mass 0.00002 massrate 0.00001 insert_every 1000 overlapcheck yes vel constant -0.01 0.0 0.0 region bc2 ntry_mc 10000

# apply nve integration to all particles that are inserted as single particles
fix         integr all nve/sphere

# cfd coupling
fix     cfd all couple/cfd couple_every 100 mpi
couple_every as specified in LIGGGHTS is overriden by calling external program (../fix_cfd_coupling.cpp:114)
fix     cfd2 all couple/cfd/force

# apply nve integration to all particles that are inserted as single particles
fix     integr all nve/sphere

# center of mass
compute     centerOfMass all com

# compute total dragforce
compute     dragtotal all reduce sum f_dragforce[1] f_dragforce[2] f_dragforce[3]

# screen output
 compute         rke all erotate/sphere
# Define a computation that calculates the rotational kinetic energy of a group of spherical particles. The rotational energy is computed as 1/2Iw^2, where I is the moment of inertia for a sphere and w is # the particle’s angular velocity.
thermo_style    custom step atoms ke c_rke vol c_centerOfMass[3] c_dragtotal[1] c_dragtotal[2] c_dragtotal[3]
thermo          100
thermo_modify   lost ignore norm no
compute_modify  thermo_temp dynamic yes
WARNING: Changing thermo_temp compute object. This object is deprecated and will be removed in the future. (../compute.cpp:161)

dump        dmp all custom/vtk 50000 post/dump*.liggghts_restart.vtk id type x y z vx vy vz fx fy fz f_dragforce[1] f_dragforce[2] f_dragforce[3] radius

run 1
Resetting global state of Fix contacthistory Style contacthistory from restart file info
Resetting per-atom state of Fix contacthistory Style contacthistory from restart file info
Setting up run at Sat Sep 12 22:07:19 2020

Memory usage per processor = 166.507 Mbytes
    Step    Atoms         KinEng            rke         Volume       centerOf       dragtota       dragtota       dragtota 
  400000   286046  2.4118933e-11  2.5221962e-11         0.0051   0.0072869104              0              0              0 
  400001   286046  2.4099678e-11   2.521543e-11         0.0051   0.0072869104              0              0              0 
Loop time of 0.130815 on 4 procs for 1 steps with 286046 atoms, finish time Sat Sep 12 22:07:40 2020


Pair  time (%) = 0.0962912 (73.6089)
Neigh time (%) = 0 (0)
Comm  time (%) = 0.00142151 (1.08666)
Outpt time (%) = 0.0163012 (12.4613)
Other time (%) = 0.0168008 (12.8432)

Nlocal:    71511.5 ave 71868 max 71191 min
Histogram: 1 1 0 0 0 0 0 1 0 1
Nghost:    7381.75 ave 7424 max 7349 min
Histogram: 1 0 0 1 1 0 0 0 0 1
Neighs:    1.52169e+06 ave 1.52932e+06 max 1.516e+06 min
Histogram: 2 0 0 0 0 0 0 1 0 1

Total # of neighbors = 6086757
Ave neighs/atom = 21.2789
Neighbor list builds = 0
Dangerous builds = 0

run 100    
Setting up run at Sat Sep 12 22:07:40 2020

Memory usage per processor = 166.508 Mbytes
    Step    Atoms         KinEng            rke         Volume       centerOf       dragtota       dragtota       dragtota 
  400001   286046  2.4099678e-11   2.521543e-11         0.0051   0.0072869104              0              0              0 
CFD Coupling established at step 400100
  400100   286046  2.2743071e-11  2.4623924e-11         0.0051   0.0072869103              0              0              0 
  400101   286046  2.2730478e-11  2.4617542e-11         0.0051   0.0072869103              0              0              0 
Loop time of 10.8781 on 4 procs for 100 steps with 286046 atoms, finish time Sat Sep 12 22:07:51 2020


Pair  time (%) = 7.67884 (70.59)
Neigh time (%) = 0 (0)
Comm  time (%) = 0.12489 (1.14809)
Outpt time (%) = 0.0385973 (0.354817)
Other time (%) = 3.03576 (27.9071)

Nlocal:    71511.5 ave 71868 max 71191 min
Histogram: 1 1 0 0 0 0 0 1 0 1
Nghost:    7381.75 ave 7424 max 7349 min
Histogram: 1 0 0 1 1 0 0 0 0 1
Neighs:    1.52169e+06 ave 1.52932e+06 max 1.516e+06 min
Histogram: 2 0 0 0 0 0 0 1 0 1

Total # of neighbors = 6086757
Ave neighs/atom = 21.2789
Neighbor list builds = 0
Dangerous builds = 0
run 100    
Setting up run at Sat Sep 12 22:08:02 2020

Memory usage per processor = 166.508 Mbytes
    Step    Atoms         KinEng            rke         Volume       centerOf       dragtota       dragtota       dragtota 
  400101   286046  2.2730478e-11  2.4617542e-11         0.0051   0.0072869103  4.3130419e-09  -6.618183e-09  5.2738622e-05 
CFD Coupling established at step 400200
  400200   286046  2.1510527e-11  2.4087607e-11         0.0051   0.0072869107  4.3130419e-09  -6.618183e-09  5.2738622e-05 
  400201   286046  2.1499016e-11  2.4082441e-11         0.0051   0.0072869107  4.3130419e-09  -6.618183e-09  5.2738622e-05 
Loop time of 10.6159 on 4 procs for 100 steps with 286046 atoms, finish time Sat Sep 12 22:08:13 2020


Pair  time (%) = 7.58814 (71.4793)
Neigh time (%) = 0 (0)
Comm  time (%) = 0.120667 (1.13667)
Outpt time (%) = 0.0504521 (0.475252)
Other time (%) = 2.8566 (26.9088)

Nlocal:    71511.5 ave 71868 max 71191 min
Histogram: 1 1 0 0 0 0 0 1 0 1
Nghost:    7381.75 ave 7424 max 7349 min
Histogram: 1 0 0 1 1 0 0 0 0 1
Neighs:    1.52169e+06 ave 1.52932e+06 max 1.516e+06 min
Histogram: 2 0 0 0 0 0 0 1 0 1

Total # of neighbors = 6086757
Ave neighs/atom = 21.2789
Neighbor list builds = 0
Dangerous builds = 0
run 100    
Setting up run at Sat Sep 12 22:08:14 2020

Memory usage per processor = 166.508 Mbytes
    Step    Atoms         KinEng            rke         Volume       centerOf       dragtota       dragtota       dragtota 
  400201   286046  2.1499016e-11  2.4082441e-11         0.0051   0.0072869107    0.060113945    0.019521497      3.9457667 
CFD Coupling established at step 400300
  400300   286046  0.00013200485    4.75811e-07         0.0051   0.0073222638    0.060113945    0.019521497      3.9457667 
  400301   286046  0.00013448027  4.8105777e-07         0.0051   0.0073229636    0.060113945    0.019521497      3.9457667 
Loop time of 10.9023 on 4 procs for 100 steps with 286046 atoms, finish time Sat Sep 12 22:08:26 2020


Pair  time (%) = 7.74022 (70.9962)
Neigh time (%) = 0 (0)
Comm  time (%) = 0.124003 (1.1374)
Outpt time (%) = 0.0409054 (0.375199)
Other time (%) = 2.99717 (27.4912)

Nlocal:    71511.5 ave 71868 max 71191 min
Histogram: 1 1 0 0 0 0 0 1 0 1
Nghost:    7381.75 ave 7424 max 7349 min
Histogram: 1 0 0 1 1 0 0 0 0 1
Neighs:    1.52169e+06 ave 1.52932e+06 max 1.516e+06 min
Histogram: 2 0 0 0 0 0 0 1 0 1

Total # of neighbors = 6086757
Ave neighs/atom = 21.2789
Neighbor list builds = 0
Dangerous builds = 0
run 100    
Setting up run at Sat Sep 12 22:08:27 2020

Memory usage per processor = 167.652 Mbytes
    Step    Atoms         KinEng            rke         Volume       centerOf       dragtota       dragtota       dragtota 
  400301   286046  0.00013448027  4.8105777e-07         0.0051   0.0073229636    0.099571254    0.028553598      5.4000409 
CFD Coupling established at step 400400
  400400   286046  0.00072124484  1.5079321e-06         0.0051   0.0074394337    0.099571254    0.028553598      5.4000409 
  400401   286046  0.00072947929  1.5265849e-06         0.0051   0.0074410847    0.099571254    0.028553598      5.4000409 
Loop time of 10.3974 on 4 procs for 100 steps with 286046 atoms, finish time Sat Sep 12 22:08:38 2020


Pair  time (%) = 7.30454 (70.2539)
Neigh time (%) = 0 (0)
Comm  time (%) = 0.125249 (1.20462)
Outpt time (%) = 0.0475565 (0.45739)
Other time (%) = 2.92 (28.0841)

Nlocal:    71511.5 ave 71866 max 71192 min
Histogram: 1 1 0 0 0 0 0 1 0 1
Nghost:    7381.25 ave 7424 max 7347 min
Histogram: 1 0 0 1 1 0 0 0 0 1
Neighs:    1.51672e+06 ave 1.52437e+06 max 1.51115e+06 min
Histogram: 2 0 0 0 0 0 1 0 0 1

Total # of neighbors = 6066864
Ave neighs/atom = 21.2094
Neighbor list builds = 0
Dangerous builds = 0
run 100    
Setting up run at Sat Sep 12 22:08:39 2020

Memory usage per processor = 167.652 Mbytes
    Step    Atoms         KinEng            rke         Volume       centerOf       dragtota       dragtota       dragtota 
  400401   286046  0.00072947929  1.5265849e-06         0.0051   0.0074410847     0.09146383    0.025635207      5.2046769 
CFD Coupling established at step 400500
  400500   286046   0.0017180499  4.2328118e-06         0.0051   0.0076489342     0.09146383    0.025635207      5.2046769 
  400501   286046   0.0017301283  4.2678654e-06         0.0051   0.0076514799     0.09146383    0.025635207      5.2046769 
Loop time of 10.4155 on 4 procs for 100 steps with 286046 atoms, finish time Sat Sep 12 22:08:50 2020


Pair  time (%) = 7.09399 (68.1097)
Neigh time (%) = 0.139693 (1.3412)
Comm  time (%) = 0.155735 (1.49522)
Outpt time (%) = 0.0504144 (0.484032)
Other time (%) = 2.9757 (28.5698)

Nlocal:    71511.5 ave 71831 max 71205 min
Histogram: 1 1 0 0 0 0 0 1 0 1
Nghost:    7373.25 ave 7425 max 7346 min
Histogram: 1 1 1 0 0 0 0 0 0 1
Neighs:    1.49237e+06 ave 1.49727e+06 max 1.48769e+06 min
Histogram: 1 1 0 0 0 0 0 1 0 1

Total # of neighbors = 5969488
Ave neighs/atom = 20.869
Neighbor list builds = 1
Dangerous builds = 0
run 100    
Setting up run at Sat Sep 12 22:08:51 2020

Memory usage per processor = 167.652 Mbytes
    Step    Atoms         KinEng            rke         Volume       centerOf       dragtota       dragtota       dragtota 
  400501   286046   0.0017301283  4.2678654e-06         0.0051   0.0076514799    0.090357165    0.025287589       5.047869 
CFD Coupling established at step 400600
  400600   286046   0.0030883304  7.5255756e-06         0.0051   0.0079461583    0.090357165    0.025287589       5.047869 
  400601   286046    0.003104133  7.5537382e-06         0.0051   0.0079495677    0.090357165    0.025287589       5.047869 
Loop time of 10.4805 on 4 procs for 100 steps with 286046 atoms, finish time Sat Sep 12 22:09:02 2020


Pair  time (%) = 7.37216 (70.3415)
Neigh time (%) = 0.146349 (1.39639)
Comm  time (%) = 0.148555 (1.41744)
Outpt time (%) = 0.0233486 (0.22278)
Other time (%) = 2.79011 (26.6219)

Nlocal:    71511.5 ave 71810 max 71209 min
Histogram: 1 0 1 0 0 0 0 1 0 1
Nghost:    7367.25 ave 7429 max 7337 min
Histogram: 2 0 1 0 0 0 0 0 0 1
Neighs:    1.47744e+06 ave 1.48125e+06 max 1.47278e+06 min
Histogram: 1 0 0 1 0 0 0 0 1 1

Total # of neighbors = 5909769
Ave neighs/atom = 20.6602
Neighbor list builds = 1
Dangerous builds = 0
run 100    
Setting up run at Sat Sep 12 22:09:03 2020

Memory usage per processor = 167.652 Mbytes
    Step    Atoms         KinEng            rke         Volume       centerOf       dragtota       dragtota       dragtota 
  400601   286046    0.003104133  7.5537382e-06         0.0051   0.0079495677     0.09204524    0.027361297      4.7904314 
CFD Coupling established at step 400700
  400700   286046   0.0047701019  9.5309186e-06         0.0051   0.0083279387     0.09204524    0.027361297      4.7904314 
  400701   286046   0.0047888816  9.5423944e-06         0.0051   0.0083321756     0.09204524    0.027361297      4.7904314 
Loop time of 10.6732 on 4 procs for 100 steps with 286046 atoms, finish time Sat Sep 12 22:09:14 2020


Pair  time (%) = 7.44811 (69.7832)
Neigh time (%) = 0.29635 (2.77658)
Comm  time (%) = 0.188364 (1.76483)
Outpt time (%) = 0.0428716 (0.401675)
Other time (%) = 2.69752 (25.2737)

Nlocal:    71511.5 ave 71753 max 71218 min
Histogram: 1 0 0 1 0 0 0 0 1 1
Nghost:    7357.5 ave 7412 max 7323 min
Histogram: 2 0 0 0 0 1 0 0 0 1
Neighs:    1.45239e+06 ave 1.4549e+06 max 1.44797e+06 min
Histogram: 1 0 0 0 0 0 0 1 1 1

Total # of neighbors = 5809563
Ave neighs/atom = 20.3099
Neighbor list builds = 2
Dangerous builds = 0
run 100    
Setting up run at Sat Sep 12 22:09:15 2020

Memory usage per processor = 167.652 Mbytes
    Step    Atoms         KinEng            rke         Volume       centerOf       dragtota       dragtota       dragtota 
  400701   286046   0.0047888816  9.5423944e-06         0.0051   0.0083321756    0.090739288    0.029782433      4.4060765 
CFD Coupling established at step 400800
  400800   286046   0.0066486025  9.9132521e-06         0.0051   0.0087893837    0.090739288    0.029782433      4.4060765 
  400801   286046   0.0066690429  9.9189328e-06         0.0051   0.0087943848    0.090739288    0.029782433      4.4060765 
Loop time of 10.4126 on 4 procs for 100 steps with 286046 atoms, finish time Sat Sep 12 22:09:26 2020


Pair  time (%) = 7.27176 (69.8363)
Neigh time (%) = 0.298035 (2.86226)
Comm  time (%) = 0.177123 (1.70105)
Outpt time (%) = 0.0298101 (0.28629)
Other time (%) = 2.63584 (25.3141)

Nlocal:    71511.5 ave 71718 max 71232 min
Histogram: 1 0 0 0 1 0 0 0 1 1
Nghost:    7355.5 ave 7414 max 7322 min
Histogram: 2 0 0 0 1 0 0 0 0 1
Neighs:    1.4329e+06 ave 1.43529e+06 max 1.42868e+06 min
Histogram: 1 0 0 0 0 0 1 0 0 2

Total # of neighbors = 5731599
Ave neighs/atom = 20.0373
Neighbor list builds = 2
Dangerous builds = 0
run 100    
Setting up run at Sat Sep 12 22:09:28 2020

Memory usage per processor = 167.652 Mbytes
    Step    Atoms         KinEng            rke         Volume       centerOf       dragtota       dragtota       dragtota 
  400801   286046   0.0066690429  9.9189328e-06         0.0051   0.0087943848    0.078365942    0.026016304       3.885845 
CFD Coupling established at step 400900
  400900   286046   0.0085474049  1.0182275e-05         0.0051   0.0093224609    0.078365942    0.026016304       3.885845 
  400901   286046   0.0085676194  1.0183753e-05         0.0051   0.0093281282    0.078365942    0.026016304       3.885845 
Loop time of 9.91331 on 4 procs for 100 steps with 286046 atoms, finish time Sat Sep 12 22:09:38 2020


Pair  time (%) = 6.77403 (68.3327)
Neigh time (%) = 0.277206 (2.7963)
Comm  time (%) = 0.177421 (1.78973)
Outpt time (%) = 0.0329232 (0.332111)
Other time (%) = 2.65173 (26.7492)

Nlocal:    71511.5 ave 71690 max 71231 min
Histogram: 1 0 0 0 0 1 0 0 0 2
Nghost:    7350.5 ave 7420 max 7298 min
Histogram: 1 1 0 0 0 0 1 0 0 1
Neighs:    1.41256e+06 ave 1.4164e+06 max 1.40822e+06 min
Histogram: 1 0 1 0 0 0 0 0 1 1

Total # of neighbors = 5650259
Ave neighs/atom = 19.753
Neighbor list builds = 2
Dangerous builds = 0
run 100    
Setting up run at Sat Sep 12 22:09:39 2020

Memory usage per processor = 167.652 Mbytes
    Step    Atoms         KinEng            rke         Volume       centerOf       dragtota       dragtota       dragtota 
  400901   286046   0.0085676194  1.0183753e-05         0.0051   0.0093281282    0.066695211    0.021311725      3.3479799 
CFD Coupling established at step 401000
  401000   286046     0.01032937  1.1324415e-05         0.0051   0.0099168591    0.066695211    0.021311725      3.3479799 
  401001   286046    0.010347972  1.1338022e-05         0.0051   0.0099230844    0.066695211    0.021311725      3.3479799 
Loop time of 9.63417 on 4 procs for 100 steps with 286046 atoms, finish time Sat Sep 12 22:09:49 2020


Pair  time (%) = 6.4196 (66.6336)
Neigh time (%) = 0.417469 (4.33321)
Comm  time (%) = 0.218566 (2.26866)
Outpt time (%) = 0.0263215 (0.273209)
Other time (%) = 2.55222 (26.4913)

Nlocal:    71511.5 ave 71646 max 71240 min
Histogram: 1 0 0 0 0 0 1 0 0 2
Nghost:    7337.5 ave 7423 max 7263 min
Histogram: 1 0 1 0 0 0 1 0 0 1
Neighs:    1.38455e+06 ave 1.39053e+06 max 1.37995e+06 min
Histogram: 2 0 0 0 0 0 1 0 0 1

Total # of neighbors = 5538214
Ave neighs/atom = 19.3613
Neighbor list builds = 3
Dangerous builds = 0
run 100    
Setting up run at Sat Sep 12 22:09:50 2020

Memory usage per processor = 167.652 Mbytes
    Step    Atoms         KinEng            rke         Volume       centerOf       dragtota       dragtota       dragtota 
  401001   286046    0.010347972  1.1338022e-05         0.0051   0.0099230844    0.064312662    0.024286798       2.915806 
CFD Coupling established at step 401100
  401100   286046     0.01196211  1.2732783e-05         0.0051    0.010562595    0.064312662    0.024286798       2.915806 
  401101   286046    0.011978996   1.274485e-05         0.0051    0.010569289    0.064312662    0.024286798       2.915806 
Loop time of 9.62377 on 4 procs for 100 steps with 286046 atoms, finish time Sat Sep 12 22:10:01 2020


Pair  time (%) = 6.2121 (64.5495)
Neigh time (%) = 0.416198 (4.32469)
Comm  time (%) = 0.231938 (2.41006)
Outpt time (%) = 0.0420941 (0.437397)
Other time (%) = 2.72145 (28.2784)

Nlocal:    71511.5 ave 71630 max 71251 min
Histogram: 1 0 0 0 0 0 0 0 1 2
Nghost:    7326.75 ave 7419 max 7235 min
Histogram: 1 0 1 0 0 0 0 1 0 1
Neighs:    1.3627e+06 ave 1.37037e+06 max 1.35626e+06 min
Histogram: 1 1 0 0 0 0 1 0 0 1

Total # of neighbors = 5450810
Ave neighs/atom = 19.0557
Neighbor list builds = 3
Dangerous builds = 0
run 100    
Setting up run at Sat Sep 12 22:10:02 2020

Memory usage per processor = 167.652 Mbytes
    Step    Atoms         KinEng            rke         Volume       centerOf       dragtota       dragtota       dragtota 
  401101   286046    0.011978996   1.274485e-05         0.0051    0.010569289    0.056582246    0.022718264      2.6078829 
CFD Coupling established at step 401200
  401200   286046    0.013476909  1.4511942e-05         0.0051    0.011252025    0.056582246    0.022718264      2.6078829 
  401201   286046    0.013492519  1.4517867e-05         0.0051    0.011259123    0.056582246    0.022718264      2.6078829 
Loop time of 9.65592 on 4 procs for 100 steps with 286046 atoms, finish time Sat Sep 12 22:10:12 2020


Pair  time (%) = 6.22662 (64.485)
Neigh time (%) = 0.412755 (4.27463)
Comm  time (%) = 0.230352 (2.3856)
Outpt time (%) = 0.0300853 (0.311574)
Other time (%) = 2.75611 (28.5432)

Nlocal:    71511.5 ave 71631 max 71267 min
Histogram: 1 0 0 0 0 0 0 1 0 2
Nghost:    7319.25 ave 7428 max 7223 min
Histogram: 1 1 0 0 0 0 1 0 0 1
Neighs:    1.34203e+06 ave 1.35208e+06 max 1.33279e+06 min
Histogram: 1 0 1 0 0 0 1 0 0 1

Total # of neighbors = 5368102
Ave neighs/atom = 18.7666
Neighbor list builds = 3
Dangerous builds = 0
run 100    
Setting up run at Sat Sep 12 22:10:13 2020

Memory usage per processor = 167.652 Mbytes
    Step    Atoms         KinEng            rke         Volume       centerOf       dragtota       dragtota       dragtota 
  401201   286046    0.013492519  1.4517867e-05         0.0051    0.011259123     0.05410581    0.023645708      2.2595958 
CFD Coupling established at step 401300
  401300   286046    0.014809877  1.5561929e-05         0.0051    0.011978536     0.05410581    0.023645708      2.2595958 
  401301   286046    0.014823574   1.557023e-05         0.0051    0.011985971     0.05410581    0.023645708      2.2595958 
Loop time of 9.63934 on 4 procs for 100 steps with 286046 atoms, finish time Sat Sep 12 22:10:23 2020


Pair  time (%) = 6.37511 (66.1364)
Neigh time (%) = 0.420857 (4.36603)
Comm  time (%) = 0.211978 (2.19909)
Outpt time (%) = 0.0417474 (0.433094)
Other time (%) = 2.58964 (26.8654)

Nlocal:    71511.5 ave 71666 max 71273 min
Histogram: 1 0 0 0 0 1 0 0 1 1
Nghost:    7305.5 ave 7422 max 7190 min
Histogram: 1 0 1 0 0 0 0 1 0 1
Neighs:    1.32265e+06 ave 1.3356e+06 max 1.31114e+06 min
Histogram: 1 0 0 1 0 1 0 0 0 1

Total # of neighbors = 5290608
Ave neighs/atom = 18.4957
Neighbor list builds = 3
Dangerous builds = 0
run 100    
Setting up run at Sat Sep 12 22:10:24 2020

Memory usage per processor = 167.652 Mbytes
    Step    Atoms         KinEng            rke         Volume       centerOf       dragtota       dragtota       dragtota 
  401301   286046    0.014823574   1.557023e-05         0.0051    0.011985971    0.041989074    0.018650418       1.887148 
CFD Coupling established at step 401400
  401400   286046    0.015915535  1.6192056e-05         0.0051    0.012735155    0.041989074    0.018650418       1.887148 
  401401   286046    0.015926841   1.618676e-05         0.0051    0.012742856    0.041989074    0.018650418       1.887148 
Loop time of 10.7738 on 4 procs for 100 steps with 286046 atoms, finish time Sat Sep 12 22:10:36 2020


Pair  time (%) = 7.27704 (67.5441)
Neigh time (%) = 0.608488 (5.64788)
Comm  time (%) = 0.22141 (2.05509)
Outpt time (%) = 0.0274364 (0.25466)
Other time (%) = 2.63938 (24.4982)

Nlocal:    71511.5 ave 71730 max 71307 min
Histogram: 1 0 1 0 0 0 1 0 0 1
Nghost:    7290.5 ave 7432 max 7171 min
Histogram: 1 0 1 0 0 0 1 0 0 1
Neighs:    1.29988e+06 ave 1.31601e+06 max 1.28448e+06 min
Histogram: 1 0 0 1 0 1 0 0 0 1

Total # of neighbors = 5199540
Ave neighs/atom = 18.1773
Neighbor list builds = 4
Dangerous builds = 0
run 100    
Setting up run at Sat Sep 12 22:10:37 2020

Memory usage per processor = 167.652 Mbytes
    Step    Atoms         KinEng            rke         Volume       centerOf       dragtota       dragtota       dragtota 
  401401   286046    0.015926841   1.618676e-05         0.0051    0.012742856    0.034310197     0.01023407      1.7797916 
CFD Coupling established at step 401500
  401500   286046    0.016992969  1.5741903e-05         0.0051     0.01351741    0.034310197     0.01023407      1.7797916 
  401501   286046    0.017003966  1.5737479e-05         0.0051    0.013525358    0.034310197     0.01023407      1.7797916 
Loop time of 11.5883 on 4 procs for 100 steps with 286046 atoms, finish time Sat Sep 12 22:10:49 2020


Pair  time (%) = 8.00879 (69.1111)
Neigh time (%) = 0.655792 (5.65909)
Comm  time (%) = 0.227014 (1.95899)
Outpt time (%) = 0.0240919 (0.207899)
Other time (%) = 2.6726 (23.063)

Nlocal:    71511.5 ave 71785 max 71328 min
Histogram: 2 0 0 0 0 1 0 0 0 1
Nghost:    7268.75 ave 7426 max 7130 min
Histogram: 1 0 1 0 0 0 1 0 0 1
Neighs:    1.28157e+06 ave 1.29926e+06 max 1.26462e+06 min
Histogram: 1 0 0 1 0 1 0 0 0 1

Total # of neighbors = 5126271
Ave neighs/atom = 17.9211
Neighbor list builds = 4
Dangerous builds = 0
run 100    
Setting up run at Sat Sep 12 22:10:51 2020

Memory usage per processor = 167.652 Mbytes
    Step    Atoms         KinEng            rke         Volume       centerOf       dragtota       dragtota       dragtota 
  401501   286046    0.017003966  1.5737479e-05         0.0051    0.013525358    0.039588884    0.010208621      1.8504107 
CFD Coupling established at step 401600
  401600   286046    0.018187116  1.5806352e-05         0.0051     0.01432512    0.039588884    0.010208621      1.8504107 
  401601   286046    0.018199315  1.5813516e-05         0.0051     0.01433333    0.039588884    0.010208621      1.8504107 
Loop time of 11.2909 on 4 procs for 100 steps with 286046 atoms, finish time Sat Sep 12 22:11:03 2020


Pair  time (%) = 7.6513 (67.7654)
Neigh time (%) = 0.641292 (5.67973)
Comm  time (%) = 0.250686 (2.22026)
Outpt time (%) = 0.0178233 (0.157856)
Other time (%) = 2.72977 (24.1768)

Nlocal:    71511.5 ave 71857 max 71293 min
Histogram: 2 0 0 0 1 0 0 0 0 1
Nghost:    7262 ave 7427 max 7089 min
Histogram: 1 0 0 1 0 0 1 0 0 1
Neighs:    1.26422e+06 ave 1.2837e+06 max 1.24597e+06 min
Histogram: 1 0 0 1 0 1 0 0 0 1

Total # of neighbors = 5056892
Ave neighs/atom = 17.6786
Neighbor list builds = 4
Dangerous builds = 0
run 100    
Setting up run at Sat Sep 12 22:11:05 2020

Memory usage per processor = 167.652 Mbytes
    Step    Atoms         KinEng            rke         Volume       centerOf       dragtota       dragtota       dragtota 
  401601   286046    0.018199315  1.5813516e-05         0.0051     0.01433333    0.037571632    0.011520004      1.7400722 
CFD Coupling established at step 401700
  401700   286046    0.019335341  1.5609205e-05         0.0051    0.015158079    0.037571632    0.011520004      1.7400722 
  401701   286046    0.019347032  1.5602757e-05         0.0051    0.015166531    0.037571632    0.011520004      1.7400722 
Loop time of 11.018 on 4 procs for 100 steps with 286046 atoms, finish time Sat Sep 12 22:11:16 2020


Pair  time (%) = 7.31851 (66.4232)
Neigh time (%) = 0.645631 (5.85978)
Comm  time (%) = 0.226843 (2.05883)
Outpt time (%) = 0.021485 (0.194999)
Other time (%) = 2.80554 (25.4632)

Nlocal:    71511.5 ave 71921 max 71220 min
Histogram: 1 0 1 0 1 0 0 0 0 1
Nghost:    7240 ave 7407 max 7059 min
Histogram: 1 0 0 1 0 0 1 0 0 1
Neighs:    1.24805e+06 ave 1.26931e+06 max 1.22788e+06 min
Histogram: 1 0 0 0 1 1 0 0 0 1

Total # of neighbors = 4992186
Ave neighs/atom = 17.4524
Neighbor list builds = 4
Dangerous builds = 0
run 100    
Setting up run at Sat Sep 12 22:11:18 2020

Memory usage per processor = 167.652 Mbytes
    Step    Atoms         KinEng            rke         Volume       centerOf       dragtota       dragtota       dragtota 
  401701   286046    0.019347032  1.5602757e-05         0.0051    0.015166531    0.031171765    0.011315473      1.4165937 
CFD Coupling established at step 401800
  401800   286046    0.020217146   1.545856e-05         0.0051    0.016012113    0.031171765    0.011315473      1.4165937 
  401801   286046    0.020226076  1.5463858e-05         0.0051    0.016020743    0.031171765    0.011315473      1.4165937 
Loop time of 10.8621 on 4 procs for 100 steps with 286046 atoms, finish time Sat Sep 12 22:11:29 2020


Pair  time (%) = 7.20801 (66.3595)
Neigh time (%) = 0.664814 (6.12051)
Comm  time (%) = 0.239427 (2.20425)
Outpt time (%) = 0.0215225 (0.198144)
Other time (%) = 2.72829 (25.1176)

Nlocal:    71511.5 ave 71986 max 71157 min
Histogram: 1 0 1 0 1 0 0 0 0 1
Nghost:    7219 ave 7395 max 7003 min
Histogram: 1 0 0 0 1 0 0 1 0 1
Neighs:    1.2336e+06 ave 1.25712e+06 max 1.21139e+06 min
Histogram: 1 0 0 0 1 1 0 0 0 1

Total # of neighbors = 4934380
Ave neighs/atom = 17.2503
Neighbor list builds = 4
Dangerous builds = 0
run 100    
Setting up run at Sat Sep 12 22:11:31 2020

Memory usage per processor = 167.652 Mbytes
    Step    Atoms         KinEng            rke         Volume       centerOf       dragtota       dragtota       dragtota 
  401801   286046    0.020226076  1.5463858e-05         0.0051    0.016020743       0.035055    0.016140513      1.2040299 
CFD Coupling established at step 401900
  401900   286046    0.020915384   1.529965e-05         0.0051    0.016881942       0.035055    0.016140513      1.2040299 
  401901   286046    0.020922425  1.5307371e-05         0.0051     0.01689071       0.035055    0.016140513      1.2040299 
Loop time of 11.0201 on 4 procs for 100 steps with 286046 atoms, finish time Sat Sep 12 22:11:42 2020


Pair  time (%) = 7.34878 (66.6852)
Neigh time (%) = 0.63878 (5.79649)
Comm  time (%) = 0.259636 (2.35602)
Outpt time (%) = 0.0162994 (0.147906)
Other time (%) = 2.75662 (25.0144)

Nlocal:    71511.5 ave 72048 max 71088 min
Histogram: 1 0 0 1 1 0 0 0 0 1
Nghost:    7199.25 ave 7398 max 6943 min
Histogram: 1 0 0 0 1 0 0 1 0 1
Neighs:    1.22054e+06 ave 1.2472e+06 max 1.1952e+06 min
Histogram: 1 0 0 0 1 1 0 0 0 1

Total # of neighbors = 4882142
Ave neighs/atom = 17.0677
Neighbor list builds = 4
Dangerous builds = 0
run 100    
Setting up run at Sat Sep 12 22:11:44 2020

Memory usage per processor = 167.652 Mbytes
    Step    Atoms         KinEng            rke         Volume       centerOf       dragtota       dragtota       dragtota 
  401901   286046    0.020922425  1.5307371e-05         0.0051     0.01689071    0.035803543    0.016135693      1.1876999 
CFD Coupling established at step 402000
  402000   286046    0.021614071  1.5166029e-05         0.0051    0.017765309    0.035803543    0.016135693      1.1876999 
  402001   286046    0.021621162  1.5159775e-05         0.0051     0.01777421    0.035803543    0.016135693      1.1876999 
Loop time of 10.79 on 4 procs for 100 steps with 286046 atoms, finish time Sat Sep 12 22:11:55 2020


Pair  time (%) = 7.19632 (66.6946)
Neigh time (%) = 0.63679 (5.90169)
Comm  time (%) = 0.212132 (1.96602)
Outpt time (%) = 0.0255418 (0.236718)
Other time (%) = 2.71917 (25.2009)

Nlocal:    71511.5 ave 72117 max 71005 min
Histogram: 1 0 0 1 1 0 0 0 0 1
Nghost:    7177.25 ave 7408 max 6907 min
Histogram: 1 0 0 0 1 0 0 1 0 1
Neighs:    1.20752e+06 ave 1.23741e+06 max 1.17934e+06 min
Histogram: 1 0 0 0 1 1 0 0 0 1

Total # of neighbors = 4830062
Ave neighs/atom = 16.8856
Neighbor list builds = 4
Dangerous builds = 0
run 100    
Setting up run at Sat Sep 12 22:11:57 2020

Memory usage per processor = 167.652 Mbytes
    Step    Atoms         KinEng            rke         Volume       centerOf       dragtota       dragtota       dragtota 
  402001   286046    0.021621162  1.5159775e-05         0.0051     0.01777421    0.031481333    0.012364694      1.2785912 
CFD Coupling established at step 402100
  402100   286046     0.02242604  1.4716574e-05         0.0051    0.018663012    0.031481333    0.012364694      1.2785912 
  402101   286046    0.022434289  1.4710147e-05         0.0051    0.018672067    0.031481333    0.012364694      1.2785912 
Loop time of 10.6401 on 4 procs for 100 steps with 286046 atoms, finish time Sat Sep 12 22:12:09 2020


Pair  time (%) = 7.07888 (66.53)
Neigh time (%) = 0.632894 (5.94817)
Comm  time (%) = 0.228546 (2.14796)
Outpt time (%) = 0.0222283 (0.20891)
Other time (%) = 2.67759 (25.165)

Nlocal:    71511.5 ave 72189 max 70928 min
Histogram: 1 0 0 0 2 0 0 0 0 1
Nghost:    7162.5 ave 7417 max 6852 min
Histogram: 1 0 0 0 1 0 0 1 0 1
Neighs:    1.19502e+06 ave 1.22801e+06 max 1.16419e+06 min
Histogram: 1 0 0 0 2 0 0 0 0 1

Total # of neighbors = 4780094
Ave neighs/atom = 16.7109
Neighbor list builds = 4
Dangerous builds = 0
run 100    
Setting up run at Sat Sep 12 22:12:10 2020

Memory usage per processor = 167.652 Mbytes
    Step    Atoms         KinEng            rke         Volume       centerOf       dragtota       dragtota       dragtota 
  402101   286046    0.022434289  1.4710147e-05         0.0051    0.018672067    0.042572961    0.019305068      1.4079841 
CFD Coupling established at step 402200
  402200   286046    0.023396323  1.4592531e-05         0.0051    0.019577325    0.042572961    0.019305068      1.4079841 
  402201   286046    0.023406185  1.4583659e-05         0.0051    0.019586559    0.042572961    0.019305068      1.4079841 
Loop time of 10.7353 on 4 procs for 100 steps with 286046 atoms, finish time Sat Sep 12 22:12:21 2020


Pair  time (%) = 7.06919 (65.85)
Neigh time (%) = 0.648297 (6.03893)
Comm  time (%) = 0.250961 (2.33772)
Outpt time (%) = 0.0206376 (0.19224)
Other time (%) = 2.74621 (25.5811)

Nlocal:    71511.5 ave 72265 max 70858 min
Histogram: 1 0 0 0 2 0 0 0 0 1
Nghost:    7146.25 ave 7430 max 6794 min
Histogram: 1 0 0 0 1 0 0 1 0 1
Neighs:    1.18288e+06 ave 1.21834e+06 max 1.14999e+06 min
Histogram: 1 0 0 0 2 0 0 0 0 1

Total # of neighbors = 4731528
Ave neighs/atom = 16.5411
Neighbor list builds = 4
Dangerous builds = 0
run 100    
Setting up run at Sat Sep 12 22:12:23 2020

Memory usage per processor = 167.652 Mbytes
    Step    Atoms         KinEng            rke         Volume       centerOf       dragtota       dragtota       dragtota 
  402201   286046    0.023406185  1.4583659e-05         0.0051    0.019586559    0.040217425    0.019962821      1.3728737 
CFD Coupling established at step 402300
  402300   286046     0.02435568  1.4799417e-05         0.0051    0.020509227    0.040217425    0.019962821      1.3728737 
  402301   286046     0.02436536  1.4814496e-05         0.0051    0.020518633    0.040217425    0.019962821      1.3728737 
Loop time of 10.939 on 4 procs for 100 steps with 286046 atoms, finish time Sat Sep 12 22:12:34 2020


Pair  time (%) = 7.03517 (64.3126)
Neigh time (%) = 0.794832 (7.26602)
Comm  time (%) = 0.239021 (2.18503)
Outpt time (%) = 0.0246466 (0.225309)
Other time (%) = 2.84535 (26.011)

Nlocal:    71511.5 ave 72358 max 70759 min
Histogram: 1 0 0 0 2 0 0 0 0 1
Nghost:    7133.25 ave 7438 max 6755 min
Histogram: 1 0 0 0 1 0 0 1 0 1
Neighs:    1.17057e+06 ave 1.20909e+06 max 1.13474e+06 min
Histogram: 1 0 0 0 2 0 0 0 0 1

Total # of neighbors = 4682296
Ave neighs/atom = 16.369
Neighbor list builds = 5
Dangerous builds = 0
run 100    
Setting up run at Sat Sep 12 22:12:36 2020

Memory usage per processor = 167.652 Mbytes
    Step    Atoms         KinEng            rke         Volume       centerOf       dragtota       dragtota       dragtota 
  402301   286046     0.02436536  1.4814496e-05         0.0051    0.020518633    0.029956996    0.014871253       1.133396 
CFD Coupling established at step 402400
  402400   286046    0.025076544  1.5064402e-05         0.0051    0.021455978    0.029956996    0.014871253       1.133396 
  402401   286046    0.025083802  1.5058706e-05         0.0051    0.021465509    0.029956996    0.014871253       1.133396 
Loop time of 10.9629 on 4 procs for 100 steps with 286046 atoms, finish time Sat Sep 12 22:12:47 2020


Pair  time (%) = 7.07085 (64.4978)
Neigh time (%) = 0.825689 (7.53165)
Comm  time (%) = 0.242394 (2.21103)
Outpt time (%) = 0.0175321 (0.159922)
Other time (%) = 2.80647 (25.5996)

Nlocal:    71511.5 ave 72443 max 70663 min
Histogram: 1 0 0 0 2 0 0 0 0 1
Nghost:    7110.25 ave 7451 max 6720 min
Histogram: 1 0 0 0 1 0 0 1 0 1
Neighs:    1.16138e+06 ave 1.20318e+06 max 1.12243e+06 min
Histogram: 1 0 0 0 2 0 0 0 0 1

Total # of neighbors = 4645514
Ave neighs/atom = 16.2404
Neighbor list builds = 5
Dangerous builds = 0
run 100    
Setting up run at Sat Sep 12 22:12:49 2020

Memory usage per processor = 167.652 Mbytes
    Step    Atoms         KinEng            rke         Volume       centerOf       dragtota       dragtota       dragtota 
  402401   286046    0.025083802  1.5058706e-05         0.0051    0.021465509    0.035241468    0.019511411     0.98130019 
CFD Coupling established at step 402500
  402500   286046     0.02564077  1.5469247e-05         0.0051    0.022413637    0.035241468    0.019511411     0.98130019 
  402501   286046    0.025646454  1.5477166e-05         0.0051    0.022423261    0.035241468    0.019511411     0.98130019 
Loop time of 11.21 on 4 procs for 100 steps with 286046 atoms, finish time Sat Sep 12 22:13:01 2020


Pair  time (%) = 7.30776 (65.1898)
Neigh time (%) = 0.788658 (7.03533)
Comm  time (%) = 0.248739 (2.21891)
Outpt time (%) = 0.0198326 (0.176919)
Other time (%) = 2.84498 (25.379)

Nlocal:    71511.5 ave 72530 max 70572 min
Histogram: 1 0 0 0 1 1 0 0 0 1
Nghost:    7082.25 ave 7446 max 6657 min
Histogram: 1 0 0 1 0 0 0 1 0 1
Neighs:    1.15308e+06 ave 1.19802e+06 max 1.11154e+06 min
Histogram: 1 0 0 0 2 0 0 0 0 1

Total # of neighbors = 4612312
Ave neighs/atom = 16.1244
Neighbor list builds = 5
Dangerous builds = 0
run 100    
Setting up run at Sat Sep 12 22:13:02 2020

Memory usage per processor = 167.652 Mbytes
    Step    Atoms         KinEng            rke         Volume       centerOf       dragtota       dragtota       dragtota 
  402501   286046    0.025646454  1.5477166e-05         0.0051    0.022423261    0.030669177    0.017132417       1.004904 
CFD Coupling established at step 402600
  402600   286046    0.026244138  1.5543299e-05         0.0051    0.023380902    0.030669177    0.017132417       1.004904 
  402601   286046    0.026250235  1.5551267e-05         0.0051    0.023390625    0.030669177    0.017132417       1.004904 
Loop time of 10.8771 on 4 procs for 100 steps with 286046 atoms, finish time Sat Sep 12 22:13:14 2020


Pair  time (%) = 7.11621 (65.4238)
Neigh time (%) = 0.784591 (7.21324)
Comm  time (%) = 0.235746 (2.16736)
Outpt time (%) = 0.0273235 (0.251202)
Other time (%) = 2.71322 (24.9444)

Nlocal:    71511.5 ave 72607 max 70491 min
Histogram: 1 0 0 0 1 1 0 0 0 1
Nghost:    7068 ave 7467 max 6603 min
Histogram: 1 0 0 1 0 0 0 1 0 1
Neighs:    1.14414e+06 ave 1.19204e+06 max 1.09956e+06 min
Histogram: 1 0 0 0 2 0 0 0 0 1

Total # of neighbors = 4576570
Ave neighs/atom = 15.9994
Neighbor list builds = 5
Dangerous builds = 0
run 100    
Setting up run at Sat Sep 12 22:13:16 2020

Memory usage per processor = 167.652 Mbytes
    Step    Atoms         KinEng            rke         Volume       centerOf       dragtota       dragtota       dragtota 
  402601   286046    0.026250235  1.5551267e-05         0.0051    0.023390625    0.032813652    0.017890569      1.1242207 
CFD Coupling established at step 402700
  402700   286046    0.026995766  1.5759599e-05         0.0051    0.024359228    0.032813652    0.017890569      1.1242207 
  402701   286046    0.027003362  1.5762451e-05         0.0051    0.024369073    0.032813652    0.017890569      1.1242207 
Loop time of 10.8211 on 4 procs for 100 steps with 286046 atoms, finish time Sat Sep 12 22:13:27 2020


Pair  time (%) = 6.99799 (64.6698)
Neigh time (%) = 0.793327 (7.33129)
Comm  time (%) = 0.240691 (2.22427)
Outpt time (%) = 0.0197384 (0.182407)
Other time (%) = 2.76936 (25.5922)

Nlocal:    71511.5 ave 72709 max 70376 min
Histogram: 1 0 0 0 1 1 0 0 0 1
Nghost:    7051 ave 7471 max 6573 min
Histogram: 1 0 0 1 0 0 0 1 0 1
Neighs:    1.13502e+06 ave 1.18498e+06 max 1.08795e+06 min
Histogram: 1 0 0 0 2 0 0 0 0 1

Total # of neighbors = 4540078
Ave neighs/atom = 15.8718
Neighbor list builds = 5
Dangerous builds = 0
run 100    
Setting up run at Sat Sep 12 22:13:29 2020

Memory usage per processor = 167.652 Mbytes
    Step    Atoms         KinEng            rke         Volume       centerOf       dragtota       dragtota       dragtota 
  402701   286046    0.027003362  1.5762451e-05         0.0051    0.024369073    0.045629406    0.026520273      1.1772993 
CFD Coupling established at step 402800
  402800   286046     0.02782661  1.5838822e-05         0.0051    0.025350361    0.045629406    0.026520273      1.1772993 
  402801   286046    0.027834999  1.5852892e-05         0.0051    0.025360339    0.045629406    0.026520273      1.1772993 
Loop time of 10.7241 on 4 procs for 100 steps with 286046 atoms, finish time Sat Sep 12 22:13:40 2020


Pair  time (%) = 6.80335 (63.4397)
Neigh time (%) = 0.792021 (7.38542)
Comm  time (%) = 0.271615 (2.53275)
Outpt time (%) = 0.0168014 (0.156669)
Other time (%) = 2.84033 (26.4854)

Nlocal:    71511.5 ave 72800 max 70288 min
Histogram: 1 0 0 0 1 1 0 0 0 1
Nghost:    7035.5 ave 7476 max 6531 min
Histogram: 1 0 0 1 0 0 0 1 0 1
Neighs:    1.12701e+06 ave 1.17824e+06 max 1.07826e+06 min
Histogram: 1 0 0 0 2 0 0 0 0 1

Total # of neighbors = 4508052
Ave neighs/atom = 15.7599
Neighbor list builds = 5
Dangerous builds = 0
run 100    
Setting up run at Sat Sep 12 22:13:42 2020

Memory usage per processor = 167.652 Mbytes
    Step    Atoms         KinEng            rke         Volume       centerOf       dragtota       dragtota       dragtota 
  402801   286046    0.027834999  1.5852892e-05         0.0051    0.025360339    0.034156938    0.017825811      1.0072986 
CFD Coupling established at step 402900
  402900   286046     0.02847752  1.6005857e-05         0.0051    0.026353205    0.034156938    0.017825811      1.0072986 
  402901   286046    0.028484087  1.5988498e-05         0.0051    0.026363284    0.034156938    0.017825811      1.0072986 
Loop time of 10.7541 on 4 procs for 100 steps with 286046 atoms, finish time Sat Sep 12 22:13:53 2020


Pair  time (%) = 6.8604 (63.793)
Neigh time (%) = 0.778237 (7.23662)
Comm  time (%) = 0.225109 (2.09323)
Outpt time (%) = 0.0228685 (0.212648)
Other time (%) = 2.86754 (26.6645)

Nlocal:    71511.5 ave 72929 max 70176 min
Histogram: 1 0 0 1 0 1 0 0 0 1
Nghost:    7022.25 ave 7456 max 6493 min
Histogram: 1 0 0 0 1 0 0 1 0 1
Neighs:    1.1189e+06 ave 1.17268e+06 max 1.06768e+06 min
Histogram: 1 0 0 0 2 0 0 0 0 1

Total # of neighbors = 4475588
Ave neighs/atom = 15.6464
Neighbor list builds = 5
Dangerous builds = 0
run 100    
Setting up run at Sat Sep 12 22:13:55 2020

Memory usage per processor = 167.652 Mbytes
    Step    Atoms         KinEng            rke         Volume       centerOf       dragtota       dragtota       dragtota 
  402901   286046    0.028484087  1.5988498e-05         0.0051    0.026363284    0.036816078    0.019943578     0.85955817 
CFD Coupling established at step 403000
  403000   286046    0.028963016  1.6072527e-05         0.0051     0.02736459    0.036816078    0.019943578     0.85955817 
  403001   286046     0.02896789  1.6088109e-05         0.0051     0.02737474    0.036816078    0.019943578     0.85955817 
Loop time of 10.7846 on 4 procs for 100 steps with 286046 atoms, finish time Sat Sep 12 22:14:06 2020


Pair  time (%) = 6.8715 (63.7156)
Neigh time (%) = 0.790479 (7.32967)
Comm  time (%) = 0.264015 (2.44807)
Outpt time (%) = 0.0172521 (0.159969)
Other time (%) = 2.8414 (26.3467)

Nlocal:    71511.5 ave 73051 max 70056 min
Histogram: 1 0 0 1 0 1 0 0 0 1
Nghost:    7005 ave 7470 max 6458 min
Histogram: 1 0 0 0 1 0 0 1 0 1
Neighs:    1.11168e+06 ave 1.16872e+06 max 1.05763e+06 min
Histogram: 1 0 0 0 2 0 0 0 0 1

Total # of neighbors = 4446739
Ave neighs/atom = 15.5455
Neighbor list builds = 5
Dangerous builds = 0
run 100    
Setting up run at Sat Sep 12 22:14:08 2020

Memory usage per processor = 167.652 Mbytes
    Step    Atoms         KinEng            rke         Volume       centerOf       dragtota       dragtota       dragtota 
  403001   286046     0.02896789  1.6088109e-05         0.0051     0.02737474       0.040349    0.019154241     0.84401684 
CFD Coupling established at step 403100
  403100   286046    0.029436207   1.591703e-05         0.0051    0.028382863       0.040349    0.019154241     0.84401684 
  403101   286046    0.029440972  1.5900397e-05         0.0051     0.02839308       0.040349    0.019154241     0.84401684 
Loop time of 10.9967 on 4 procs for 100 steps with 286046 atoms, finish time Sat Sep 12 22:14:20 2020


Pair  time (%) = 6.87123 (62.4842)
Neigh time (%) = 0.807366 (7.34187)
Comm  time (%) = 0.381158 (3.4661)
Outpt time (%) = 0.0343158 (0.312054)
Other time (%) = 2.90267 (26.3957)

Nlocal:    71511.5 ave 73214 max 69933 min
Histogram: 1 0 0 1 0 1 0 0 0 1
Nghost:    6985.75 ave 7434 max 6421 min
Histogram: 1 0 0 0 1 0 0 1 0 1
Neighs:    1.10437e+06 ave 1.16547e+06 max 1.04712e+06 min
Histogram: 1 0 0 0 2 0 0 0 0 1

Total # of neighbors = 4417481
Ave neighs/atom = 15.4433
Neighbor list builds = 5
Dangerous builds = 0
run 100    
Setting up run at Sat Sep 12 22:14:21 2020

Memory usage per processor = 167.652 Mbytes
    Step    Atoms         KinEng            rke         Volume       centerOf       dragtota       dragtota       dragtota 
  403101   286046    0.029440972  1.5900397e-05         0.0051     0.02839308    0.046845357    0.019548687     0.93744837 
CFD Coupling established at step 403200
  403200   286046    0.030031818  1.5954883e-05         0.0051    0.029408801    0.046845357    0.019548687     0.93744837 
  403201   286046    0.030037841  1.5964543e-05         0.0051    0.029419104    0.046845357    0.019548687     0.93744837 
Loop time of 10.6615 on 4 procs for 100 steps with 286046 atoms, finish time Sat Sep 12 22:14:32 2020


Pair  time (%) = 6.81847 (63.9541)
Neigh time (%) = 0.79671 (7.47279)
Comm  time (%) = 0.255343 (2.395)
Outpt time (%) = 0.0263962 (0.247585)
Other time (%) = 2.76458 (25.9305)

Nlocal:    71511.5 ave 73341 max 69788 min
Histogram: 1 0 0 1 0 1 0 0 0 1
Nghost:    6973.25 ave 7460 max 6411 min
Histogram: 1 0 0 0 1 0 0 1 0 1
Neighs:    1.09667e+06 ave 1.16078e+06 max 1.03634e+06 min
Histogram: 1 0 0 0 2 0 0 0 0 1

Total # of neighbors = 4386667
Ave neighs/atom = 15.3355
Neighbor list builds = 5
Dangerous builds = 0
run 100    
Setting up run at Sat Sep 12 22:14:34 2020

Memory usage per processor = 167.652 Mbytes
    Step    Atoms         KinEng            rke         Volume       centerOf       dragtota       dragtota       dragtota 
  403201   286046    0.030037841  1.5964543e-05         0.0051    0.029419104     0.05985084    0.025663497     0.93541442 
CFD Coupling established at step 403300
  403300   286046    0.030635426  1.6090978e-05         0.0051    0.030443353     0.05985084    0.025663497     0.93541442 
  403301   286046    0.030641489  1.6101438e-05         0.0051    0.030453742     0.05985084    0.025663497     0.93541442 
Loop time of 10.7484 on 4 procs for 100 steps with 286046 atoms, finish time Sat Sep 12 22:14:45 2020


Pair  time (%) = 6.81133 (63.3707)
Neigh time (%) = 0.776202 (7.22156)
Comm  time (%) = 0.275116 (2.5596)
Outpt time (%) = 0.0231049 (0.214961)
Other time (%) = 2.86264 (26.6332)

Nlocal:    71511.5 ave 73450 max 69674 min
Histogram: 1 0 0 1 0 1 0 0 0 1
Nghost:    6949.25 ave 7485 max 6350 min
Histogram: 1 0 0 1 0 0 0 1 0 1
Neighs:    1.09011e+06 ave 1.15648e+06 max 1.02723e+06 min
Histogram: 1 0 0 0 2 0 0 0 0 1

Total # of neighbors = 4360434
Ave neighs/atom = 15.2438
Neighbor list builds = 5
Dangerous builds = 0
run 100    
Setting up run at Sat Sep 12 22:14:47 2020

Memory usage per processor = 167.652 Mbytes
    Step    Atoms         KinEng            rke         Volume       centerOf       dragtota       dragtota       dragtota 
  403301   286046    0.030641489  1.6101438e-05         0.0051    0.030453742    0.050937793    0.016448488     0.78353718 
CFD Coupling established at step 403400
  403400   286046    0.031059951  1.6157368e-05         0.0051    0.031484997    0.050937793    0.016448488     0.78353718 
  403401   286046     0.03106422  1.6163642e-05         0.0051    0.031495442    0.050937793    0.016448488     0.78353718 
Loop time of 11.0658 on 4 procs for 100 steps with 286046 atoms, finish time Sat Sep 12 22:14:59 2020


Pair  time (%) = 6.81316 (61.5692)
Neigh time (%) = 0.950814 (8.59233)
Comm  time (%) = 0.275864 (2.49293)
Outpt time (%) = 0.0226092 (0.204315)
Other time (%) = 3.0034 (27.1412)

Nlocal:    71511.5 ave 73581 max 69534 min
Histogram: 1 0 0 1 0 1 0 0 0 1
Nghost:    6933.25 ave 7516 max 6285 min
Histogram: 1 0 0 1 0 0 0 1 0 1
Neighs:    1.08334e+06 ave 1.15278e+06 max 1.01733e+06 min
Histogram: 1 0 0 0 2 0 0 0 0 1

Total # of neighbors = 4333366
Ave neighs/atom = 15.1492
Neighbor list builds = 6
Dangerous builds = 0
run 100    
Setting up run at Sat Sep 12 22:15:00 2020

Memory usage per processor = 167.652 Mbytes
    Step    Atoms         KinEng            rke         Volume       centerOf       dragtota       dragtota       dragtota 
  403401   286046     0.03106422  1.6163642e-05         0.0051    0.031495442    0.051032016    0.017724289     0.66743199 
CFD Coupling established at step 403500
  403500   286046    0.031345393  1.6195971e-05         0.0051    0.032531079    0.051032016    0.017724289     0.66743199 
  403501   286046    0.031348249  1.6195427e-05         0.0051    0.032541556    0.051032016    0.017724289     0.66743199 
Loop time of 10.5896 on 4 procs for 100 steps with 286046 atoms, finish time Sat Sep 12 22:15:12 2020


Pair  time (%) = 6.77804 (64.0068)
Neigh time (%) = 0.775064 (7.31913)
Comm  time (%) = 0.273312 (2.58096)
Outpt time (%) = 0.0219787 (0.207551)
Other time (%) = 2.74117 (25.8856)

Nlocal:    71511.5 ave 73699 max 69401 min
Histogram: 1 0 0 1 0 1 0 0 0 1
Nghost:    6923 ave 7531 max 6266 min
Histogram: 1 0 0 1 0 0 1 0 0 1
Neighs:    1.07824e+06 ave 1.15067e+06 max 1.00924e+06 min
Histogram: 1 0 0 0 1 1 0 0 0 1

Total # of neighbors = 4312953
Ave neighs/atom = 15.0778
Neighbor list builds = 5
Dangerous builds = 0
run 100    
Setting up run at Sat Sep 12 22:15:13 2020

Memory usage per processor = 167.652 Mbytes
    Step    Atoms         KinEng            rke         Volume       centerOf       dragtota       dragtota       dragtota 
  403501   286046    0.031348249  1.6195427e-05         0.0051    0.032541556    0.053391269    0.016258515     0.62647709 
CFD Coupling established at step 403600
  403600   286046    0.031581331  1.6594183e-05         0.0051    0.033580011    0.053391269    0.016258515     0.62647709 
  403601   286046    0.031583729  1.6587591e-05         0.0051    0.033590513    0.053391269    0.016258515     0.62647709 
Loop time of 10.644 on 4 procs for 100 steps with 286046 atoms, finish time Sat Sep 12 22:15:25 2020


Pair  time (%) = 6.84415 (64.3009)
Neigh time (%) = 0.75542 (7.09718)
Comm  time (%) = 0.269258 (2.52969)
Outpt time (%) = 0.0361353 (0.339492)
Other time (%) = 2.73899 (25.7328)

Nlocal:    71511.5 ave 73870 max 69261 min
Histogram: 1 0 0 1 0 1 0 0 0 1
Nghost:    6891.5 ave 7509 max 6197 min
Histogram: 1 0 0 0 1 0 1 0 0 1
Neighs:    1.0722e+06 ave 1.1486e+06 max 1.00039e+06 min
Histogram: 1 0 0 0 2 0 0 0 0 1

Total # of neighbors = 4288784
Ave neighs/atom = 14.9933
Neighbor list builds = 5
Dangerous builds = 0
run 100    
Setting up run at Sat Sep 12 22:15:26 2020

Memory usage per processor = 167.652 Mbytes
    Step    Atoms         KinEng            rke         Volume       centerOf       dragtota       dragtota       dragtota 
  403601   286046    0.031583729  1.6587591e-05         0.0051    0.033590513    0.063248975    0.017841857     0.63414022 
CFD Coupling established at step 403700
  403700   286046    0.031832306   1.662912e-05         0.0051    0.034631483    0.063248975    0.017841857     0.63414022 
  403701   286046    0.031834849  1.6642762e-05         0.0051    0.034642011    0.063248975    0.017841857     0.63414022 
Loop time of 10.7226 on 4 procs for 100 steps with 286046 atoms, finish time Sat Sep 12 22:15:37 2020


Pair  time (%) = 6.8832 (64.1934)
Neigh time (%) = 0.76228 (7.1091)
Comm  time (%) = 0.278215 (2.59466)
Outpt time (%) = 0.0263087 (0.245357)
Other time (%) = 2.77259 (25.8575)

Nlocal:    71511.5 ave 74019 max 69122 min
Histogram: 1 0 0 1 0 1 0 0 0 1
Nghost:    6881 ave 7517 max 6163 min
Histogram: 1 0 0 0 1 0 1 0 0 1
Neighs:    1.06634e+06 ave 1.14569e+06 max 991970 min
Histogram: 1 0 0 0 1 1 0 0 0 1

Total # of neighbors = 4265368
Ave neighs/atom = 14.9115
Neighbor list builds = 5
Dangerous builds = 0
run 100    
Setting up run at Sat Sep 12 22:15:39 2020

Memory usage per processor = 167.652 Mbytes
    Step    Atoms         KinEng            rke         Volume       centerOf       dragtota       dragtota       dragtota 
  403701   286046    0.031834849  1.6642762e-05         0.0051    0.034642011    0.061819429    0.016950584     0.54148248 
CFD Coupling established at step 403800
  403800   286046    0.031970154  1.6673158e-05         0.0051    0.035684694    0.061819429    0.016950584     0.54148248 
  403801   286046    0.031971547  1.6681135e-05         0.0051     0.03569523    0.061819429    0.016950584     0.54148248 
Loop time of 10.3924 on 4 procs for 100 steps with 286046 atoms, finish time Sat Sep 12 22:15:50 2020


Pair  time (%) = 6.62019 (63.7023)
Neigh time (%) = 0.789255 (7.59455)
Comm  time (%) = 0.2599 (2.50087)
Outpt time (%) = 0.0309425 (0.297742)
Other time (%) = 2.6921 (25.9046)

Nlocal:    71511.5 ave 74186 max 68984 min
Histogram: 1 0 0 1 0 1 0 0 0 1
Nghost:    6885.75 ave 7531 max 6138 min
Histogram: 1 0 0 0 1 0 1 0 0 1
Neighs:    1.06041e+06 ave 1.14279e+06 max 983684 min
Histogram: 1 0 0 0 1 1 0 0 0 1

Total # of neighbors = 4241636
Ave neighs/atom = 14.8285
Neighbor list builds = 5
Dangerous builds = 0
run 100    
Setting up run at Sat Sep 12 22:15:52 2020

Memory usage per processor = 167.652 Mbytes
    Step    Atoms         KinEng            rke         Volume       centerOf       dragtota       dragtota       dragtota 
  403801   286046    0.031971547  1.6681135e-05         0.0051     0.03569523    0.050654011    0.011574652     0.43110052 
CFD Coupling established at step 403900
  403900   286046    0.031972523  1.6282737e-05         0.0051    0.036737651    0.050654011    0.011574652     0.43110052 
  403901   286046    0.031972543  1.6285608e-05         0.0051    0.036748173    0.050654011    0.011574652     0.43110052 
Loop time of 10.3217 on 4 procs for 100 steps with 286046 atoms, finish time Sat Sep 12 22:16:02 2020


Pair  time (%) = 6.48402 (62.8194)
Neigh time (%) = 0.762933 (7.39156)
Comm  time (%) = 0.269317 (2.60924)
Outpt time (%) = 0.022265 (0.215711)
Other time (%) = 2.78315 (26.9641)

Nlocal:    71511.5 ave 74329 max 68825 min
Histogram: 1 0 0 1 0 1 0 0 0 1
Nghost:    6891 ave 7570 max 6147 min
Histogram: 1 0 0 0 1 0 1 0 0 1
Neighs:    1.05479e+06 ave 1.14019e+06 max 975032 min
Histogram: 1 0 0 0 1 1 0 0 0 1

Total # of neighbors = 4219174
Ave neighs/atom = 14.75
Neighbor list builds = 5
Dangerous builds = 0
run 100    
Setting up run at Sat Sep 12 22:16:04 2020

Memory usage per processor = 167.652 Mbytes
    Step    Atoms         KinEng            rke         Volume       centerOf       dragtota       dragtota       dragtota 
  403901   286046    0.031972543  1.6285608e-05         0.0051    0.036748173    0.045574917    0.011355906     0.36041571 
CFD Coupling established at step 404000
  404000   286046    0.031884163  1.6301005e-05         0.0051    0.037788564    0.045574917    0.011355906     0.36041571 
  404001   286046    0.031883314  1.6280413e-05         0.0051    0.037799059    0.045574917    0.011355906     0.36041571 
Loop time of 10.2959 on 4 procs for 100 steps with 286046 atoms, finish time Sat Sep 12 22:16:15 2020


Pair  time (%) = 6.45643 (62.7089)
Neigh time (%) = 0.749465 (7.27928)
Comm  time (%) = 0.268872 (2.61145)
Outpt time (%) = 0.0290174 (0.281836)
Other time (%) = 2.79208 (27.1185)

Nlocal:    71511.5 ave 74486 max 68656 min
Histogram: 1 0 0 1 0 1 0 0 0 1
Nghost:    6874.75 ave 7593 max 6113 min
Histogram: 1 0 0 1 0 0 1 0 0 1
Neighs:    1.0492e+06 ave 1.138e+06 max 966077 min
Histogram: 1 0 0 0 1 1 0 0 0 1

Total # of neighbors = 4196783
Ave neighs/atom = 14.6717
Neighbor list builds = 5
Dangerous builds = 0
run 100    
Setting up run at Sat Sep 12 22:16:17 2020

Memory usage per processor = 167.652 Mbytes
    Step    Atoms         KinEng            rke         Volume       centerOf       dragtota       dragtota       dragtota 
  404001   286046    0.031883314  1.6280413e-05         0.0051    0.037799059    0.046325967     0.01100251     0.36457152 
CFD Coupling established at step 404100
  404100   286046    0.031804562  1.5949886e-05         0.0051    0.038836769    0.046325967     0.01100251     0.36457152 
  404101   286046    0.031803762  1.5950262e-05         0.0051    0.038847237    0.046325967     0.01100251     0.36457152 
Loop time of 10.5535 on 4 procs for 100 steps with 286046 atoms, finish time Sat Sep 12 22:16:28 2020


Pair  time (%) = 6.44783 (61.0969)
Neigh time (%) = 0.785702 (7.44497)
Comm  time (%) = 0.299831 (2.84107)
Outpt time (%) = 0.029319 (0.277814)
Other time (%) = 2.99077 (28.3393)

Nlocal:    71511.5 ave 74644 max 68504 min
Histogram: 1 0 0 1 0 1 0 0 0 1
Nghost:    6869 ave 7631 max 6090 min
Histogram: 1 0 0 1 0 0 1 0 0 1
Neighs:    1.04368e+06 ave 1.13605e+06 max 957454 min
Histogram: 1 0 0 0 1 1 0 0 0 1

Total # of neighbors = 4174720
Ave neighs/atom = 14.5946
Neighbor list builds = 5
Dangerous builds = 0
run 100    
Setting up run at Sat Sep 12 22:16:30 2020

Memory usage per processor = 167.652 Mbytes
    Step    Atoms         KinEng            rke         Volume       centerOf       dragtota       dragtota       dragtota 
  404101   286046    0.031803762  1.5950262e-05         0.0051    0.038847237    0.044821002    0.011933751     0.33574492 
CFD Coupling established at step 404200
  404200   286046    0.031690598  1.5929549e-05         0.0051    0.039882065    0.044821002    0.011933751     0.33574492 
  404201   286046    0.031689479  1.5916725e-05         0.0051    0.039892502    0.044821002    0.011933751     0.33574492 
Loop time of 10.5155 on 4 procs for 100 steps with 286046 atoms, finish time Sat Sep 12 22:16:41 2020


Pair  time (%) = 6.5448 (62.2396)
Neigh time (%) = 0.755831 (7.18779)
Comm  time (%) = 0.271021 (2.57735)
Outpt time (%) = 0.0224658 (0.213645)
Other time (%) = 2.92137 (27.7816)

Nlocal:    71511.5 ave 74811 max 68356 min
Histogram: 1 0 0 1 0 1 0 0 0 1
Nghost:    6862.5 ave 7642 max 6060 min
Histogram: 1 0 0 1 0 0 1 0 0 1
Neighs:    1.0383e+06 ave 1.1339e+06 max 949384 min
Histogram: 1 0 0 0 1 1 0 0 0 1

Total # of neighbors = 4153208
Ave neighs/atom = 14.5194
Neighbor list builds = 5
Dangerous builds = 0
run 100    
Setting up run at Sat Sep 12 22:16:42 2020

Memory usage per processor = 167.652 Mbytes
    Step    Atoms         KinEng            rke         Volume       centerOf       dragtota       dragtota       dragtota 
  404201   286046    0.031689479  1.5916725e-05         0.0051    0.039892502    0.033593807   0.0085386322     0.27683625 
CFD Coupling established at step 404300
  404300   286046     0.03150339  1.5627786e-05         0.0051    0.040923594    0.033593807   0.0085386322     0.27683625 
  404301   286046    0.031501523  1.5621645e-05         0.0051    0.040933988    0.033593807   0.0085386322     0.27683625 
Loop time of 10.292 on 4 procs for 100 steps with 286046 atoms, finish time Sat Sep 12 22:16:53 2020


Pair  time (%) = 6.37867 (61.9769)
Neigh time (%) = 0.783258 (7.61035)
Comm  time (%) = 0.268482 (2.60865)
Outpt time (%) = 0.0179631 (0.174534)
Other time (%) = 2.84364 (27.6296)

Nlocal:    71511.5 ave 74976 max 68191 min
Histogram: 1 0 0 1 0 1 0 0 0 1
Nghost:    6866.75 ave 7679 max 6036 min
Histogram: 1 0 0 1 0 0 1 0 0 1
Neighs:    1.03318e+06 ave 1.1316e+06 max 941224 min
Histogram: 1 0 0 0 1 1 0 0 0 1

Total # of neighbors = 4132732
Ave neighs/atom = 14.4478
Neighbor list builds = 5
Dangerous builds = 0
run 100    
Setting up run at Sat Sep 12 22:16:55 2020

Memory usage per processor = 167.652 Mbytes
    Step    Atoms         KinEng            rke         Volume       centerOf       dragtota       dragtota       dragtota 
  404301   286046    0.031501523  1.5621645e-05         0.0051    0.040933988    0.025871122   0.0076469522     0.23517248 
CFD Coupling established at step 404400
  404400   286046    0.031264221  1.5501567e-05         0.0051    0.041960345    0.025871122   0.0076469522     0.23517248 
  404401   286046    0.031261838   1.549627e-05         0.0051    0.041970687    0.025871122   0.0076469522     0.23517248 
Loop time of 10.4083 on 4 procs for 100 steps with 286046 atoms, finish time Sat Sep 12 22:17:06 2020


Pair  time (%) = 6.35202 (61.0281)
Neigh time (%) = 0.765315 (7.3529)
Comm  time (%) = 0.305744 (2.93749)
Outpt time (%) = 0.0227699 (0.218765)
Other time (%) = 2.9625 (28.4627)

Nlocal:    71511.5 ave 75173 max 68021 min
Histogram: 1 0 0 1 0 1 0 0 0 1
Nghost:    6862.5 ave 7708 max 5996 min
Histogram: 1 0 0 1 0 0 1 0 0 1
Neighs:    1.02836e+06 ave 1.1305e+06 max 933308 min
Histogram: 1 0 0 0 1 1 0 0 0 1

Total # of neighbors = 4113441
Ave neighs/atom = 14.3803
Neighbor list builds = 5
Dangerous builds = 0
run 100    
Setting up run at Sat Sep 12 22:17:07 2020

Memory usage per processor = 167.652 Mbytes
    Step    Atoms         KinEng            rke         Volume       centerOf       dragtota       dragtota       dragtota 
  404401   286046    0.031261838   1.549627e-05         0.0051    0.041970687    0.023270093   0.0080587485     0.23735283 
CFD Coupling established at step 404500
  404500   286046     0.03102743  1.5576772e-05         0.0051    0.042991907    0.023270093   0.0080587485     0.23735283 
  404501   286046    0.031024989  1.5625693e-05         0.0051    0.043002196    0.023270093   0.0080587485     0.23735283 
Loop time of 10.5146 on 4 procs for 100 steps with 286046 atoms, finish time Sat Sep 12 22:17:18 2020


Pair  time (%) = 6.45778 (61.4175)
Neigh time (%) = 0.765985 (7.28498)
Comm  time (%) = 0.281908 (2.68112)
Outpt time (%) = 0.0423147 (0.402439)
Other time (%) = 2.96658 (28.214)

Nlocal:    71511.5 ave 75360 max 67873 min
Histogram: 1 0 0 1 0 1 0 0 0 1
Nghost:    6850.75 ave 7695 max 5940 min
Histogram: 1 0 0 0 1 0 1 0 0 1
Neighs:    1.02375e+06 ave 1.12924e+06 max 925867 min
Histogram: 1 0 0 0 1 1 0 0 0 1

Total # of neighbors = 4095013
Ave neighs/atom = 14.3159
Neighbor list builds = 5
Dangerous builds = 0
run 100    
Setting up run at Sat Sep 12 22:17:20 2020

Memory usage per processor = 167.652 Mbytes
    Step    Atoms         KinEng            rke         Volume       centerOf       dragtota       dragtota       dragtota 
  404501   286046    0.031024989  1.5625693e-05         0.0051    0.043002196    0.021865691    0.011032829     0.28412701 
CFD Coupling established at step 404600
  404600   286046    0.030846521   1.614224e-05         0.0051    0.044018685    0.021865691    0.011032829     0.28412701 
  404601   286046    0.030844736  1.6153677e-05         0.0051    0.044028931    0.021865691    0.011032829     0.28412701 
Loop time of 10.4881 on 4 procs for 100 steps with 286046 atoms, finish time Sat Sep 12 22:17:31 2020


Pair  time (%) = 6.43973 (61.4004)
Neigh time (%) = 0.742871 (7.08299)
Comm  time (%) = 0.283637 (2.70437)
Outpt time (%) = 0.0352626 (0.336216)
Other time (%) = 2.9866 (28.4761)

Nlocal:    71511.5 ave 75547 max 67720 min
Histogram: 1 0 0 1 0 1 0 0 0 1
Nghost:    6852.75 ave 7708 max 5904 min
Histogram: 1 0 0 0 1 0 1 0 0 1
Neighs:    1.01929e+06 ave 1.12814e+06 max 918579 min
Histogram: 1 0 0 0 1 1 0 0 0 1

Total # of neighbors = 4077176
Ave neighs/atom = 14.2536
Neighbor list builds = 5
Dangerous builds = 0
run 100    
Setting up run at Sat Sep 12 22:17:33 2020

Memory usage per processor = 167.652 Mbytes
    Step    Atoms         KinEng            rke         Volume       centerOf       dragtota       dragtota       dragtota 
  404601   286046    0.030844736  1.6153677e-05         0.0051    0.044028931   0.0086159584    0.012737148     0.30494984 
CFD Coupling established at step 404700
  404700   286046    0.030692946  1.6601186e-05         0.0051    0.045041297   0.0086159584    0.012737148     0.30494984 
  404701   286046    0.030691404  1.6583979e-05         0.0051    0.045051503   0.0086159584    0.012737148     0.30494984 
Loop time of 10.4263 on 4 procs for 100 steps with 286046 atoms, finish time Sat Sep 12 22:17:44 2020


Pair  time (%) = 6.44475 (61.8122)
Neigh time (%) = 0.746845 (7.16306)
Comm  time (%) = 0.273639 (2.6245)
Outpt time (%) = 0.0269225 (0.258217)
Other time (%) = 2.93418 (28.142)

Nlocal:    71511.5 ave 75741 max 67551 min
Histogram: 1 0 0 1 0 1 0 0 0 1
Nghost:    6834.25 ave 7678 max 5861 min
Histogram: 1 0 0 0 1 0 0 1 0 1
Neighs:    1.01499e+06 ave 1.12706e+06 max 911302 min
Histogram: 1 0 0 0 1 1 0 0 0 1

Total # of neighbors = 4059967
Ave neighs/atom = 14.1934
Neighbor list builds = 5
Dangerous builds = 0
run 100    
Setting up run at Sat Sep 12 22:17:45 2020

Memory usage per processor = 167.652 Mbytes
    Step    Atoms         KinEng            rke         Volume       centerOf       dragtota       dragtota       dragtota 
  404701   286046    0.030691404  1.6583979e-05         0.0051    0.045051503  0.00024759934    0.013422843      0.3297923 
CFD Coupling established at step 404800
  404800   286046    0.030565653  1.7220416e-05         0.0051    0.046060116  0.00024759934    0.013422843      0.3297923 
  404801   286046    0.030564254  1.7257598e-05         0.0051    0.046070286  0.00024759934    0.013422843      0.3297923 
Loop time of 10.4655 on 4 procs for 100 steps with 286046 atoms, finish time Sat Sep 12 22:17:57 2020


Pair  time (%) = 6.41307 (61.2779)
Neigh time (%) = 0.777913 (7.43309)
Comm  time (%) = 0.2732 (2.61047)
Outpt time (%) = 0.0489398 (0.467628)
Other time (%) = 2.95243 (28.2109)

Nlocal:    71511.5 ave 75916 max 67382 min
Histogram: 1 0 0 1 0 1 0 0 0 1
Nghost:    6835.5 ave 7705 max 5848 min
Histogram: 1 0 0 0 1 0 0 1 0 1
Neighs:    1.01113e+06 ave 1.12642e+06 max 904343 min
Histogram: 1 0 0 0 1 1 0 0 0 1

Total # of neighbors = 4044539
Ave neighs/atom = 14.1395
Neighbor list builds = 5
Dangerous builds = 0
run 100    
Setting up run at Sat Sep 12 22:17:58 2020

Memory usage per processor = 167.652 Mbytes
    Step    Atoms         KinEng            rke         Volume       centerOf       dragtota       dragtota       dragtota 
  404801   286046    0.030564254  1.7257598e-05         0.0051    0.046070286   9.867899e-05     0.01609391     0.36561779 
CFD Coupling established at step 404900
  404900   286046     0.03044907  2.1549075e-05         0.0051    0.047075293   9.867899e-05     0.01609391     0.36561779 
  404901   286046    0.030447715  2.1529387e-05         0.0051    0.047085423   9.867899e-05     0.01609391     0.36561779 
Loop time of 10.39 on 4 procs for 100 steps with 286046 atoms, finish time Sat Sep 12 22:18:09 2020


Pair  time (%) = 6.3472 (61.0897)
Neigh time (%) = 0.772115 (7.43135)
Comm  time (%) = 0.314786 (3.02971)
Outpt time (%) = 0.0264366 (0.254443)
Other time (%) = 2.92943 (28.1948)

Nlocal:    71511.5 ave 76121 max 67191 min
Histogram: 1 0 0 1 0 1 0 0 0 1
Nghost:    6838.5 ave 7707 max 5870 min
Histogram: 1 0 0 0 1 0 0 1 0 1
Neighs:    1.00742e+06 ave 1.12677e+06 max 896925 min
Histogram: 1 0 0 0 1 1 0 0 0 1

Total # of neighbors = 4029680
Ave neighs/atom = 14.0875
Neighbor list builds = 5
Dangerous builds = 0
run 100    
Setting up run at Sat Sep 12 22:18:11 2020

Memory usage per processor = 167.652 Mbytes
    Step    Atoms         KinEng            rke         Volume       centerOf       dragtota       dragtota       dragtota 
  404901   286046    0.030447715  2.1529387e-05         0.0051    0.047085423    0.014632504    0.020720072     0.45868348 
CFD Coupling established at step 405000
  405000   286046    0.030423032  2.3358846e-05         0.0051    0.048086924    0.014632504    0.020720072     0.45868348 
  405001   286046    0.030422579  2.3380464e-05         0.0051    0.048097026    0.014632504    0.020720072     0.45868348 
Loop time of 10.9341 on 4 procs for 100 steps with 286046 atoms, finish time Sat Sep 12 22:18:23 2020


Pair  time (%) = 6.49637 (59.4137)
Neigh time (%) = 0.913504 (8.35461)
Comm  time (%) = 0.34093 (3.11804)
Outpt time (%) = 0.0424092 (0.387861)
Other time (%) = 3.14092 (28.7258)

Nlocal:    71511.5 ave 76318 max 67046 min
Histogram: 1 0 0 1 0 1 0 0 0 1
Nghost:    6836.25 ave 7755 max 5798 min
Histogram: 1 0 0 0 1 0 0 1 0 1
Neighs:    1.00386e+06 ave 1.12729e+06 max 890619 min
Histogram: 1 0 0 0 1 1 0 0 0 1

Total # of neighbors = 4015427
Ave neighs/atom = 14.0377
Neighbor list builds = 6
Dangerous builds = 0
run 100    
Setting up run at Sat Sep 12 22:18:25 2020

Memory usage per processor = 167.652 Mbytes
    Step    Atoms         KinEng            rke         Volume       centerOf       dragtota       dragtota       dragtota 
  405001   286046    0.030422579  2.3380464e-05         0.0051    0.048097026     0.02555846    0.026993409      0.5357593 
CFD Coupling established at step 405100
  405100   286046    0.030495791  2.4433704e-05         0.0051    0.049096434     0.02555846    0.026993409      0.5357593 
  405101   286046    0.030496487  2.4456768e-05         0.0051    0.049106521     0.02555846    0.026993409      0.5357593 
Loop time of 10.9392 on 4 procs for 100 steps with 286046 atoms, finish time Sat Sep 12 22:18:36 2020


Pair  time (%) = 6.47968 (59.2338)
Neigh time (%) = 0.907783 (8.29847)
Comm  time (%) = 0.297034 (2.71533)
Outpt time (%) = 0.0267127 (0.244194)
Other time (%) = 3.22794 (29.5082)

Nlocal:    71511.5 ave 76522 max 66853 min
Histogram: 1 0 0 1 0 1 0 0 0 1
Nghost:    6840.25 ave 7800 max 5799 min
Histogram: 1 0 0 1 0 0 1 0 0 1
Neighs:    1.00032e+06 ave 1.12776e+06 max 883816 min
Histogram: 1 0 0 1 0 1 0 0 0 1

Total # of neighbors = 4001282
Ave neighs/atom = 13.9882
Neighbor list builds = 6
Dangerous builds = 0
write_restart ../DEM/post/restart/liggghts.restartCFDEM
run 100    
Setting up run at Sat Sep 12 22:18:45 2020

Memory usage per processor = 167.652 Mbytes
    Step    Atoms         KinEng            rke         Volume       centerOf       dragtota       dragtota       dragtota 
  405101   286046    0.030496487  2.4456768e-05         0.0051    0.049106521    0.031286774    0.028129617     0.55073994 
CFD Coupling established at step 405200
  405200   286046    0.030613743  2.4066009e-05         0.0051    0.050104611    0.031286774    0.028129617     0.55073994 
  405201   286046    0.030615064    2.40612e-05         0.0051    0.050114689    0.031286774    0.028129617     0.55073994 
Loop time of 10.9226 on 4 procs for 100 steps with 286046 atoms, finish time Sat Sep 12 22:18:57 2020


Pair  time (%) = 6.56626 (60.1164)
Neigh time (%) = 0.909606 (8.32776)
Comm  time (%) = 0.318637 (2.91723)
Outpt time (%) = 0.039203 (0.358917)
Other time (%) = 3.08888 (28.2797)

Nlocal:    71511.5 ave 76700 max 66674 min
Histogram: 1 0 0 1 0 1 0 0 0 1
Nghost:    6834.25 ave 7838 max 5794 min
Histogram: 1 0 0 1 0 0 1 0 0 1
Neighs:    997056 ave 1.12727e+06 max 877706 min
Histogram: 1 0 0 1 0 1 0 0 0 1

Total # of neighbors = 3988225
Ave neighs/atom = 13.9426
Neighbor list builds = 6
Dangerous builds = 0
write_restart ../DEM/post/restart/liggghts.restartCFDEM
run 100    
Setting up run at Sat Sep 12 22:18:59 2020

Memory usage per processor = 167.652 Mbytes
    Step    Atoms         KinEng            rke         Volume       centerOf       dragtota       dragtota       dragtota 
  405201   286046    0.030615064    2.40612e-05         0.0051    0.050114689    0.035354233    0.026745447     0.52121568 
CFD Coupling established at step 405300
  405300   286046    0.030728214  2.2100504e-05         0.0051     0.05111228    0.035354233    0.026745447     0.52121568 
  405301   286046    0.030729445  2.2078365e-05         0.0051    0.051122355    0.035354233    0.026745447     0.52121568 
Loop time of 10.9221 on 4 procs for 100 steps with 286046 atoms, finish time Sat Sep 12 22:19:10 2020


Pair  time (%) = 6.53782 (59.8589)
Neigh time (%) = 0.9139 (8.36748)
Comm  time (%) = 0.317597 (2.90785)
Outpt time (%) = 0.0300253 (0.274905)
Other time (%) = 3.12271 (28.5909)

Nlocal:    71511.5 ave 76907 max 66503 min
Histogram: 1 0 0 1 0 1 0 0 0 1
Nghost:    6839.25 ave 7864 max 5741 min
Histogram: 1 0 0 1 0 0 1 0 0 1
Neighs:    993186 ave 1.12668e+06 max 871220 min
Histogram: 1 0 0 1 0 1 0 0 0 1

Total # of neighbors = 3972742
Ave neighs/atom = 13.8885
Neighbor list builds = 6
Dangerous builds = 0
write_restart ../DEM/post/restart/liggghts.restartCFDEM
run 100    
Setting up run at Sat Sep 12 22:19:13 2020

Memory usage per processor = 167.652 Mbytes
    Step    Atoms         KinEng            rke         Volume       centerOf       dragtota       dragtota       dragtota 
  405301   286046    0.030729445  2.2078365e-05         0.0051    0.051122355    0.038363081    0.027391382     0.51328617 
CFD Coupling established at step 405400
  405400   286046    0.030844357  2.1876756e-05         0.0051    0.052119638    0.038363081    0.027391382     0.51328617 
  405401   286046    0.030845535  2.1860816e-05         0.0051    0.052129711    0.038363081    0.027391382     0.51328617 
Loop time of 10.7681 on 4 procs for 100 steps with 286046 atoms, finish time Sat Sep 12 22:19:24 2020


Pair  time (%) = 6.5216 (60.564)
Neigh time (%) = 0.903948 (8.39468)
Comm  time (%) = 0.351826 (3.26729)
Outpt time (%) = 0.0316855 (0.294253)
Other time (%) = 2.95906 (27.4798)

Nlocal:    71511.5 ave 77100 max 66299 min
Histogram: 1 0 0 1 0 1 0 0 0 1
Nghost:    6846.5 ave 7917 max 5739 min
Histogram: 1 0 0 1 0 0 1 0 0 1
Neighs:    989268 ave 1.12596e+06 max 864138 min
Histogram: 1 0 0 1 0 1 0 0 0 1

Total # of neighbors = 3957073
Ave neighs/atom = 13.8337
Neighbor list builds = 6
Dangerous builds = 0
write_restart ../DEM/post/restart/liggghts.restartCFDEM
run 100    
Setting up run at Sat Sep 12 22:19:26 2020

Memory usage per processor = 167.652 Mbytes
    Step    Atoms         KinEng            rke         Volume       centerOf       dragtota       dragtota       dragtota 
  405401   286046    0.030845535  2.1860816e-05         0.0051    0.052129711    0.048605921    0.032168966     0.54059259 
CFD Coupling established at step 405500
  405500   286046      0.0310025  2.1769877e-05         0.0051    0.053127051    0.048605921    0.032168966     0.54059259 
  405501   286046    0.031004137   2.176969e-05         0.0051    0.053137127    0.048605921    0.032168966     0.54059259 
Loop time of 10.7347 on 4 procs for 100 steps with 286046 atoms, finish time Sat Sep 12 22:19:38 2020


Pair  time (%) = 6.48755 (60.4352)
Neigh time (%) = 0.928122 (8.64598)
Comm  time (%) = 0.309801 (2.88597)
Outpt time (%) = 0.0349531 (0.325607)
Other time (%) = 2.97429 (27.7072)

Nlocal:    71511.5 ave 77375 max 66096 min
Histogram: 1 0 0 1 0 1 0 0 0 1
Nghost:    6839 ave 7896 max 5716 min
Histogram: 1 0 0 1 0 0 1 0 0 1
Neighs:    985301 ave 1.12639e+06 max 857412 min
Histogram: 1 0 0 1 0 1 0 0 0 1

Total # of neighbors = 3941205
Ave neighs/atom = 13.7782
Neighbor list builds = 6
Dangerous builds = 0
[...]
run 100    
Setting up run at Sat Sep 12 22:57:35 2020

Memory usage per processor = 167.652 Mbytes
    Step    Atoms         KinEng            rke         Volume       centerOf       dragtota       dragtota       dragtota 
  418401   286046   0.0047231066  2.9605305e-05         0.0051     0.14056129 -0.00094511621 -0.00062513109    0.060188885 
CFD Coupling established at step 418500
  418500   286046   0.0045967395  2.9237641e-05         0.0051     0.14078383 -0.00094511621 -0.00062513109    0.060188885 
  418501   286046   0.0045954953  2.9249892e-05         0.0051     0.14078604 -0.00094511621 -0.00062513109    0.060188885 
Loop time of 14.5585 on 4 procs for 100 steps with 286046 atoms, finish time Sat Sep 12 22:57:50 2020


Pair  time (%) = 4.03034 (27.6837)
Neigh time (%) = 0.386316 (2.65354)
Comm  time (%) = 0.718064 (4.93226)
Outpt time (%) = 0.189732 (1.30324)
Other time (%) = 9.23406 (63.4272)

Nlocal:    71511.5 ave 159297 max 39666 min
Histogram: 3 0 0 0 0 0 0 0 0 1
Nghost:    4806.5 ave 7159 max 2961 min
Histogram: 2 0 0 0 0 0 0 1 0 1
Neighs:    791544 ave 2.11392e+06 max 305466 min
Histogram: 3 0 0 0 0 0 0 0 0 1

Total # of neighbors = 3166178
Ave neighs/atom = 11.0688
Neighbor list builds = 3
Dangerous builds = 0
write_restart ../DEM/post/restart/liggghts.restartCFDEM
run 100    
Setting up run at Sat Sep 12 22:57:53 2020

Memory usage per processor = 167.652 Mbytes
    Step    Atoms         KinEng            rke         Volume       centerOf       dragtota       dragtota       dragtota 
  418501   286046   0.0045954953  2.9249892e-05         0.0051     0.14078604 -0.00087885886 -0.00056947482    0.059861786 
CFD Coupling established at step 418600
  418600   286046    0.004473078  2.8864591e-05         0.0051     0.14100142 -0.00087885886 -0.00056947482    0.059861786 
  418601   286046   0.0044718658  2.8863317e-05         0.0051     0.14100356 -0.00087885886 -0.00056947482    0.059861786 
Loop time of 14.5994 on 4 procs for 100 steps with 286046 atoms, finish time Sat Sep 12 22:58:09 2020


Pair  time (%) = 3.98513 (27.2965)
Neigh time (%) = 0.399518 (2.73654)
Comm  time (%) = 0.721521 (4.94213)
Outpt time (%) = 0.174806 (1.19735)
Other time (%) = 9.31844 (63.8275)

Nlocal:    71511.5 ave 159503 max 39598 min
Histogram: 3 0 0 0 0 0 0 0 0 1
Nghost:    4782.5 ave 7115 max 2944 min
Histogram: 2 0 0 0 0 0 0 1 0 1
Neighs:    791367 ave 2.11499e+06 max 305185 min
Histogram: 3 0 0 0 0 0 0 0 0 1

Total # of neighbors = 3165468
Ave neighs/atom = 11.0663
Neighbor list builds = 3
Dangerous builds = 0
write_restart ../DEM/post/restart/liggghts.restartCFDEM
run 100    
Setting up run at Sat Sep 12 22:58:12 2020

Memory usage per processor = 167.652 Mbytes
    Step    Atoms         KinEng            rke         Volume       centerOf       dragtota       dragtota       dragtota 
  418601   286046   0.0044718658  2.8863317e-05         0.0051     0.14100356 -0.00098395346 -0.00084060231    0.059977577 
CFD Coupling established at step 418700
  418700   286046   0.0043525614  2.8779916e-05         0.0051     0.14121176 -0.00098395346 -0.00084060231    0.059977577 
  418701   286046   0.0043513721  2.8772717e-05         0.0051     0.14121383 -0.00098395346 -0.00084060231    0.059977577 
Loop time of 14.473 on 4 procs for 100 steps with 286046 atoms, finish time Sat Sep 12 22:58:27 2020


Pair  time (%) = 3.96048 (27.3645)
Neigh time (%) = 0.407144 (2.81312)
Comm  time (%) = 0.726497 (5.01966)
Outpt time (%) = 0.164171 (1.13432)
Other time (%) = 9.21474 (63.6684)

Nlocal:    71511.5 ave 159718 max 39528 min
Histogram: 3 0 0 0 0 0 0 0 0 1
Nghost:    4777.75 ave 7091 max 2938 min
Histogram: 2 0 0 0 0 0 0 1 0 1
Neighs:    791091 ave 2.11563e+06 max 304911 min
Histogram: 3 0 0 0 0 0 0 0 0 1

Total # of neighbors = 3164363
Ave neighs/atom = 11.0624
Neighbor list builds = 3
Dangerous builds = 0
write_restart ../DEM/post/restart/liggghts.restartCFDEM
run 100    
Setting up run at Sat Sep 12 22:58:30 2020

Memory usage per processor = 167.652 Mbytes
    Step    Atoms         KinEng            rke         Volume       centerOf       dragtota       dragtota       dragtota 
  418701   286046   0.0043513721  2.8772717e-05         0.0051     0.14121383 -0.00084308781 -0.00074473059    0.060982981 
CFD Coupling established at step 418800
  418800   286046   0.0042364997  2.8414984e-05         0.0051     0.14141491 -0.00084308781 -0.00074473059    0.060982981 
  418801   286046   0.0042354195  2.8406161e-05         0.0051      0.1414169 -0.00084308781 -0.00074473059    0.060982981 
Loop time of 14.5615 on 4 procs for 100 steps with 286046 atoms, finish time Sat Sep 12 22:58:45 2020


Pair  time (%) = 3.95214 (27.141)
Neigh time (%) = 0.389949 (2.67794)
Comm  time (%) = 0.706929 (4.85477)
Outpt time (%) = 0.171014 (1.17442)
Other time (%) = 9.34148 (64.1519)

Nlocal:    71511.5 ave 159956 max 39459 min
Histogram: 3 0 0 0 0 0 0 0 0 1
Nghost:    4775.5 ave 7086 max 2941 min
Histogram: 2 0 0 0 0 0 0 1 0 1
Neighs:    790712 ave 2.11625e+06 max 304724 min
Histogram: 3 0 0 0 0 0 0 0 0 1

Total # of neighbors = 3162849
Ave neighs/atom = 11.0571
Neighbor list builds = 3
Dangerous builds = 0
write_restart ../DEM/post/restart/liggghts.restartCFDEM
run 100    
Setting up run at Sat Sep 12 22:58:48 2020

Memory usage per processor = 167.652 Mbytes
    Step    Atoms         KinEng            rke         Volume       centerOf       dragtota       dragtota       dragtota 
  418801   286046   0.0042354195  2.8406161e-05         0.0051      0.1414169 -0.00068121366 -0.00049255803     0.06104235 
CFD Coupling established at step 418900
  418900   286046   0.0041232428  2.8345702e-05         0.0051     0.14161092 -0.00068121366 -0.00049255803     0.06104235 
  418901   286046   0.0041221139  2.8349727e-05         0.0051     0.14161284 -0.00068121366 -0.00049255803     0.06104235 
Loop time of 14.3598 on 4 procs for 100 steps with 286046 atoms, finish time Sat Sep 12 22:59:03 2020


Pair  time (%) = 3.95131 (27.5165)
Neigh time (%) = 0.398813 (2.7773)
Comm  time (%) = 0.715428 (4.98217)
Outpt time (%) = 0.168294 (1.17198)
Other time (%) = 9.12593 (63.552)

Nlocal:    71511.5 ave 160166 max 39383 min
Histogram: 3 0 0 0 0 0 0 0 0 1
Nghost:    4757.75 ave 7035 max 2939 min
Histogram: 2 0 0 0 0 0 0 1 0 1
Neighs:    790433 ave 2.11639e+06 max 304154 min
Histogram: 3 0 0 0 0 0 0 0 0 1

Total # of neighbors = 3161733
Ave neighs/atom = 11.0532
Neighbor list builds = 3
Dangerous builds = 0
write_restart ../DEM/post/restart/liggghts.restartCFDEM
run 100    
Setting up run at Sat Sep 12 22:59:06 2020

Memory usage per processor = 167.652 Mbytes
    Step    Atoms         KinEng            rke         Volume       centerOf       dragtota       dragtota       dragtota 
  418901   286046   0.0041221139  2.8349727e-05         0.0051     0.14161284 -0.00080698192  -0.0006608465    0.061209758 
CFD Coupling established at step 419000
  419000   286046   0.0040136727  2.8255431e-05         0.0051     0.14179978 -0.00080698192  -0.0006608465    0.061209758 
  419001   286046   0.0040126188  2.8247945e-05         0.0051     0.14180163 -0.00080698192  -0.0006608465    0.061209758 
Loop time of 14.0415 on 4 procs for 100 steps with 286046 atoms, finish time Sat Sep 12 22:59:21 2020


Pair  time (%) = 3.85319 (27.4415)
Neigh time (%) = 0.406468 (2.89476)
Comm  time (%) = 0.75012 (5.34217)
Outpt time (%) = 0.161365 (1.1492)
Other time (%) = 8.87034 (63.1724)

Nlocal:    71511.5 ave 160387 max 39323 min
Histogram: 3 0 0 0 0 0 0 0 0 1
Nghost:    4741.25 ave 7031 max 2927 min
Histogram: 2 0 0 0 0 0 0 1 0 1
Neighs:    789960 ave 2.11607e+06 max 303823 min
Histogram: 3 0 0 0 0 0 0 0 0 1

Total # of neighbors = 3159840
Ave neighs/atom = 11.0466
Neighbor list builds = 3
Dangerous builds = 0
write_restart ../DEM/post/restart/liggghts.restartCFDEM
run 100    
Setting up run at Sat Sep 12 22:59:24 2020

Memory usage per processor = 167.652 Mbytes
    Step    Atoms         KinEng            rke         Volume       centerOf       dragtota       dragtota       dragtota 
  419001   286046   0.0040126188  2.8247945e-05         0.0051     0.14180163 -0.00088133128 -0.00079150191    0.061385227 
CFD Coupling established at step 419100
  419100   286046   0.0039083171   2.800086e-05         0.0051     0.14198149 -0.00088133128 -0.00079150191    0.061385227 
  419101   286046     0.00390729  2.7999325e-05         0.0051     0.14198327 -0.00088133128 -0.00079150191    0.061385227 
Loop time of 14.1656 on 4 procs for 100 steps with 286046 atoms, finish time Sat Sep 12 22:59:39 2020


Pair  time (%) = 3.89303 (27.4824)
Neigh time (%) = 0.391984 (2.76716)
Comm  time (%) = 0.729696 (5.1512)
Outpt time (%) = 0.167023 (1.17908)
Other time (%) = 8.98382 (63.4202)

Nlocal:    71511.5 ave 160602 max 39263 min
Histogram: 3 0 0 0 0 0 0 0 0 1
Nghost:    4735.25 ave 7025 max 2926 min
Histogram: 2 0 0 0 0 0 0 1 0 1
Neighs:    789508 ave 2.11584e+06 max 303616 min
Histogram: 3 0 0 0 0 0 0 0 0 1

Total # of neighbors = 3158034
Ave neighs/atom = 11.0403
Neighbor list builds = 3
Dangerous builds = 0
write_restart ../DEM/post/restart/liggghts.restartCFDEM
run 100    
Setting up run at Sat Sep 12 22:59:42 2020

Memory usage per processor = 167.652 Mbytes
    Step    Atoms         KinEng            rke         Volume       centerOf       dragtota       dragtota       dragtota 
  419101   286046     0.00390729  2.7999325e-05         0.0051     0.14198327 -0.00073102886  -0.0005842704     0.06209527 
CFD Coupling established at step 419200
  419200   286046    0.003806646  2.7805905e-05         0.0051     0.14215609 -0.00073102886  -0.0005842704     0.06209527 
  419201   286046   0.0038056329   2.779898e-05         0.0051      0.1421578 -0.00073102886  -0.0005842704     0.06209527 
Loop time of 14.1529 on 4 procs for 100 steps with 286046 atoms, finish time Sat Sep 12 22:59:57 2020


Pair  time (%) = 3.87788 (27.3999)
Neigh time (%) = 0.390249 (2.75738)
Comm  time (%) = 0.791587 (5.59309)
Outpt time (%) = 0.183354 (1.29552)
Other time (%) = 8.90985 (62.9541)

Nlocal:    71511.5 ave 160818 max 39200 min
Histogram: 3 0 0 0 0 0 0 0 0 1
Nghost:    4712.5 ave 7032 max 2916 min
Histogram: 2 0 0 0 0 0 0 1 0 1
Neighs:    789063 ave 2.11536e+06 max 303378 min
Histogram: 3 0 0 0 0 0 0 0 0 1

Total # of neighbors = 3156251
Ave neighs/atom = 11.0341
Neighbor list builds = 3
Dangerous builds = 0
write_restart ../DEM/post/restart/liggghts.restartCFDEM
run 100    
Setting up run at Sat Sep 12 23:00:00 2020

Memory usage per processor = 167.652 Mbytes
    Step    Atoms         KinEng            rke         Volume       centerOf       dragtota       dragtota       dragtota 
  419201   286046   0.0038056329   2.779898e-05         0.0051      0.1421578 -0.00078832193 -0.00061171602     0.06256958 
CFD Coupling established at step 419300
  419300   286046   0.0037081559  2.7662436e-05         0.0051     0.14232359 -0.00078832193 -0.00061171602     0.06256958 
  419301   286046   0.0037072187  2.7652422e-05         0.0051     0.14232523 -0.00078832193 -0.00061171602     0.06256958 
Loop time of 14.0222 on 4 procs for 100 steps with 286046 atoms, finish time Sat Sep 12 23:00:15 2020


Pair  time (%) = 3.80757 (27.1539)
Neigh time (%) = 0.387648 (2.76453)
Comm  time (%) = 0.758752 (5.41108)
Outpt time (%) = 0.163779 (1.168)
Other time (%) = 8.90445 (63.5025)

Nlocal:    71511.5 ave 161009 max 39148 min
Histogram: 3 0 0 0 0 0 0 0 0 1
Nghost:    4712.5 ave 7026 max 2924 min
Histogram: 2 0 0 0 0 0 0 1 0 1
Neighs:    788666 ave 2.11473e+06 max 303228 min
Histogram: 3 0 0 0 0 0 0 0 0 1

Total # of neighbors = 3154666
Ave neighs/atom = 11.0285
Neighbor list builds = 3
Dangerous builds = 0
write_restart ../DEM/post/restart/liggghts.restartCFDEM
run 100    
Setting up run at Sat Sep 12 23:00:18 2020

Memory usage per processor = 167.652 Mbytes
    Step    Atoms         KinEng            rke         Volume       centerOf       dragtota       dragtota       dragtota 
  419301   286046   0.0037072187  2.7652422e-05         0.0051     0.14232523  -0.0007087016 -0.00057726768    0.062384214 
CFD Coupling established at step 419400
  419400   286046   0.0036135392  2.7370526e-05         0.0051     0.14248402  -0.0007087016 -0.00057726768    0.062384214 
  419401   286046   0.0036126055  2.7364914e-05         0.0051     0.14248559  -0.0007087016 -0.00057726768    0.062384214 
Loop time of 14.0641 on 4 procs for 100 steps with 286046 atoms, finish time Sat Sep 12 23:00:33 2020


Pair  time (%) = 3.84295 (27.3245)
Neigh time (%) = 0.386084 (2.74517)
Comm  time (%) = 0.743913 (5.28944)
Outpt time (%) = 0.166237 (1.18199)
Other time (%) = 8.92493 (63.4589)

Nlocal:    71511.5 ave 161233 max 39100 min
Histogram: 3 0 0 0 0 0 0 0 0 1
Nghost:    4703.75 ave 7009 max 2942 min
Histogram: 2 0 0 0 0 0 0 1 0 1
Neighs:    788234 ave 2.1142e+06 max 303116 min
Histogram: 3 0 0 0 0 0 0 0 0 1

Total # of neighbors = 3152934
Ave neighs/atom = 11.0225
Neighbor list builds = 3
Dangerous builds = 0
write_restart ../DEM/post/restart/liggghts.restartCFDEM
run 100    
Setting up run at Sat Sep 12 23:00:36 2020

Memory usage per processor = 167.652 Mbytes
    Step    Atoms         KinEng            rke         Volume       centerOf       dragtota       dragtota       dragtota 
  419401   286046   0.0036126055  2.7364914e-05         0.0051     0.14248559  -0.0006423754 -0.00065629253    0.062922354 
CFD Coupling established at step 419500
  419500   286046   0.0035216745  2.7148384e-05         0.0051     0.14263738  -0.0006423754 -0.00065629253    0.062922354 
  419501   286046   0.0035208095  2.7144741e-05         0.0051     0.14263888  -0.0006423754 -0.00065629253    0.062922354 
Loop time of 13.8296 on 4 procs for 100 steps with 286046 atoms, finish time Sat Sep 12 23:00:50 2020


Pair  time (%) = 3.80144 (27.4877)
Neigh time (%) = 0.383808 (2.77527)
Comm  time (%) = 0.713471 (5.15901)
Outpt time (%) = 0.162303 (1.17359)
Other time (%) = 8.76859 (63.4044)

Nlocal:    71511.5 ave 161434 max 39039 min
Histogram: 3 0 0 0 0 0 0 0 0 1
Nghost:    4707 ave 7024 max 2942 min
Histogram: 2 0 0 0 0 0 0 1 0 1
Neighs:    787696 ave 2.11315e+06 max 302933 min
Histogram: 3 0 0 0 0 0 0 0 0 1

Total # of neighbors = 3150786
Ave neighs/atom = 11.015
Neighbor list builds = 3
Dangerous builds = 0
write_restart ../DEM/post/restart/liggghts.restartCFDEM
run 100    
Setting up run at Sat Sep 12 23:00:53 2020

Memory usage per processor = 167.652 Mbytes
    Step    Atoms         KinEng            rke         Volume       centerOf       dragtota       dragtota       dragtota 
  419501   286046   0.0035208095  2.7144741e-05         0.0051     0.14263888 -0.00077125261 -0.00071146066    0.063228208 
CFD Coupling established at step 419600
  419600   286046   0.0034334676  2.6918103e-05         0.0051     0.14278373 -0.00077125261 -0.00071146066    0.063228208 
  419601   286046    0.003432623  2.6910994e-05         0.0051     0.14278516 -0.00077125261 -0.00071146066    0.063228208 
Loop time of 13.7784 on 4 procs for 100 steps with 286046 atoms, finish time Sat Sep 12 23:01:07 2020


Pair  time (%) = 3.77092 (27.3683)
Neigh time (%) = 0.383909 (2.78631)
Comm  time (%) = 0.725011 (5.26194)
Outpt time (%) = 0.169323 (1.2289)
Other time (%) = 8.72925 (63.3545)

Nlocal:    71511.5 ave 161617 max 38985 min
Histogram: 3 0 0 0 0 0 0 0 0 1
Nghost:    4683.5 ave 6992 max 2925 min
Histogram: 2 0 0 0 0 0 0 1 0 1
Neighs:    787121 ave 2.11176e+06 max 302912 min
Histogram: 3 0 0 0 0 0 0 0 0 1

Total # of neighbors = 3148483
Ave neighs/atom = 11.0069
Neighbor list builds = 3
Dangerous builds = 0
write_restart ../DEM/post/restart/liggghts.restartCFDEM
run 100    
Setting up run at Sat Sep 12 23:01:10 2020

Memory usage per processor = 167.652 Mbytes
    Step    Atoms         KinEng            rke         Volume       centerOf       dragtota       dragtota       dragtota 
  419601   286046    0.003432623  2.6910994e-05         0.0051     0.14278516 -0.00089702627 -0.00073182839    0.063626928 
CFD Coupling established at step 419700
  419700   286046   0.0033492335  2.6833542e-05         0.0051     0.14292311 -0.00089702627 -0.00073182839    0.063626928 
  419701   286046   0.0033484114   2.682828e-05         0.0051     0.14292447 -0.00089702627 -0.00073182839    0.063626928 
Loop time of 14.1567 on 4 procs for 100 steps with 286046 atoms, finish time Sat Sep 12 23:01:25 2020


Pair  time (%) = 3.87351 (27.3616)
Neigh time (%) = 0.376569 (2.66)
Comm  time (%) = 0.691644 (4.88562)
Outpt time (%) = 0.155293 (1.09696)
Other time (%) = 9.05971 (63.9958)

Nlocal:    71511.5 ave 161805 max 38926 min
Histogram: 3 0 0 0 0 0 0 0 0 1
Nghost:    4679.5 ave 6973 max 2913 min
Histogram: 2 0 0 0 0 0 0 1 0 1
Neighs:    786484 ave 2.11045e+06 max 302630 min
Histogram: 3 0 0 0 0 0 0 0 0 1

Total # of neighbors = 3145936
Ave neighs/atom = 10.998
Neighbor list builds = 3
Dangerous builds = 0
write_restart ../DEM/post/restart/liggghts.restartCFDEM
run 100    
Setting up run at Sat Sep 12 23:01:28 2020

Memory usage per processor = 167.652 Mbytes
    Step    Atoms         KinEng            rke         Volume       centerOf       dragtota       dragtota       dragtota 
  419701   286046   0.0033484114   2.682828e-05         0.0051     0.14292447 -0.00074835644 -0.00066954332    0.063879384 
CFD Coupling established at step 419800
  419800   286046   0.0032682962  2.6591138e-05         0.0051      0.1430555 -0.00074835644 -0.00066954332    0.063879384 
  419801   286046   0.0032674868  2.6605394e-05         0.0051     0.14305679 -0.00074835644 -0.00066954332    0.063879384 
Loop time of 13.7925 on 4 procs for 100 steps with 286046 atoms, finish time Sat Sep 12 23:01:43 2020


Pair  time (%) = 3.80549 (27.591)
Neigh time (%) = 0.376012 (2.72621)
Comm  time (%) = 0.687176 (4.98224)
Outpt time (%) = 0.19426 (1.40844)
Other time (%) = 8.72957 (63.2921)

Nlocal:    71511.5 ave 161972 max 38889 min
Histogram: 3 0 0 0 0 0 0 0 0 1
Nghost:    4670.25 ave 6954 max 2922 min
Histogram: 2 0 0 0 0 0 0 1 0 1
Neighs:    785689 ave 2.10868e+06 max 302443 min
Histogram: 3 0 0 0 0 0 0 0 0 1

Total # of neighbors = 3142756
Ave neighs/atom = 10.9869
Neighbor list builds = 3
Dangerous builds = 0
write_restart ../DEM/post/restart/liggghts.restartCFDEM
run 100    
Setting up run at Sat Sep 12 23:01:45 2020

Memory usage per processor = 167.652 Mbytes
    Step    Atoms         KinEng            rke         Volume       centerOf       dragtota       dragtota       dragtota 
  419801   286046   0.0032674868  2.6605394e-05         0.0051     0.14305679 -0.00071258267 -0.00065425598     0.06401231 
CFD Coupling established at step 419900
  419900   286046   0.0031907015  2.6386957e-05         0.0051     0.14318091 -0.00071258267 -0.00065425598     0.06401231 
  419901   286046    0.003189947  2.6387642e-05         0.0051     0.14318213 -0.00071258267 -0.00065425598     0.06401231 
Loop time of 15.303 on 4 procs for 100 steps with 286046 atoms, finish time Sat Sep 12 23:02:01 2020


Pair  time (%) = 4.02371 (26.2937)
Neigh time (%) = 0.471974 (3.0842)
Comm  time (%) = 1.06518 (6.96063)
Outpt time (%) = 0.158077 (1.03298)
Other time (%) = 9.58402 (62.6285)

Nlocal:    71511.5 ave 162172 max 38831 min
Histogram: 3 0 0 0 0 0 0 0 0 1
Nghost:    4667.5 ave 6946 max 2923 min
Histogram: 2 0 0 0 0 0 0 1 0 1
Neighs:    785088 ave 2.10737e+06 max 302258 min
Histogram: 3 0 0 0 0 0 0 0 0 1

Total # of neighbors = 3140352
Ave neighs/atom = 10.9785
Neighbor list builds = 3
Dangerous builds = 0
