/*--------------------------------*- C++ -*----------------------------------*\
| =========                 |                                                 |
| \\      /  F ield         | OpenFOAM: The Open Source CFD Toolbox           |
|  \\    /   O peration     | Version:  5.x                                   |
|   \\  /    A nd           | Web:      www.OpenFOAM.org                      |
|    \\/     M anipulation  |                                                 |
\*---------------------------------------------------------------------------*/
FoamFile
{
    version     2.0;
    format      ascii;
    class       volScalarField;
    location    "0.35";
    object      voidfraction;
}
// * * * * * * * * * * * * * * * * * * * * * * * * * * * * * * * * * * * * * //

dimensions      [0 0 0 0 0 0 0];

internalField   nonuniform List<scalar> 
10571
(
0.58326
0.676006
0.650851
0.824619
0.532502
0.721468
0.883236
0.845582
0.68995
0.703971
0.576404
0.63482
0.819322
0.780664
0.845382
0.477076
0.69173
0.813737
0.851574
0.471619
0.437106
0.815313
0.582026
0.66203
0.981562
0.983434
0.985672
0.996321
0.975875
0.985978
0.983237
0.816813
0.979173
0.969446
0.975345
0.969659
0.974394
0.81145
0.970665
0.66753
0.988773
0.974344
0.893458
0.763385
0.727401
0.995588
0.967988
0.861358
1
0.98376
0.989292
0.994385
0.986499
0.990004
0.993877
0.988773
0.992174
0.983708
0.997703
0.973435
0.998715
0.999519
0.878291
0.516407
0.987736
0.990363
0.942482
0.998435
0.656977
0.994853
0.977989
0.67091
0.994835
0.988699
0.993316
0.997679
0.992952
0.997107
0.992656
0.995253
0.979683
0.973421
0.980438
0.99381
0.999667
0.999996
0.715408
0.47124
0.99373
0.964677
0.843911
0.688203
0.599115
0.988897
0.898596
0.635621
1
0.993224
0.990899
0.995235
0.99705
0.991561
0.972339
0.991336
0.985316
0.975242
0.996921
0.993886
0.985392
0.960928
0.776255
0.470083
0.978928
0.991666
0.940793
0.549128
0.596979
0.979132
0.984723
0.677045
0.997471
0.990198
0.993353
0.99702
0.991332
0.989662
0.980665
0.996845
0.997963
0.990758
0.529114
0.992193
0.976699
0.988433
0.986917
0.859077
0.496387
0.409522
0.989986
0.98891
0.959878
0.634639
0.619455
0.995973
0.981124
0.671328
0.993624
0.979499
0.985048
0.995936
0.995633
1
0.993858
0.997405
0.999493
0.989722
1
1
0.96837
0.994559
0.995465
0.886501
0.535224
1
0.996932
0.974349
0.971772
0.700365
0.623297
1
0.996593
0.978376
0.64913
0.996812
0.987789
0.977419
0.988286
0.995493
0.996046
0.993618
0.999098
0.999187
0.986581
1
0.990873
0.972968
0.995386
0.994501
0.915711
0.6067
1
1
0.989834
0.973238
0.748052
0.618242
1
0.990901
0.986925
0.667515
0.993624
0.995519
0.986973
0.980564
0.990686
0.999662
0.976296
0.999662
0.999877
0.990311
1
0.99912
1
0.978424
0.996443
0.932855
0.68959
1
0.99997
0.996406
0.972595
0.759195
0.642666
0.991404
0.998822
0.678949
0.991755
0.990143
0.996154
0.98897
0.991992
0.999054
0.990674
0.997134
0.999365
0.972616
0.984935
1
0.995555
0.99527
0.923411
0.740764
0.99994
0.997221
0.983244
0.758423
0.616548
0.997754
0.999487
0.662114
1
1
0.99801
0.996789
0.972838
0.997973
0.995593
0.982745
0.999631
0.97816
0.988015
1
0.999299
0.995053
0.930209
0.82792
0.996452
0.997846
0.990536
0.769275
0.595354
0.997871
0.999124
0.752512
0.993953
0.995016
0.997808
0.99625
0.984922
0.996048
1
0.998495
0.994485
0.994035
0.99989
0.99902
0.998245
0.997742
0.935354
0.941531
0.997565
0.997872
0.997882
0.787643
0.636489
0.997754
0.998913
0.856982
0.996372
0.99776
0.997067
0.996419
0.99264
0.997062
0.999569
1
0.999766
0.998411
0.996371
0.999223
0.999777
0.99964
0.937084
0.980804
0.998406
0.996612
0.999361
0.800939
0.59218
0.998916
0.9984
0.929918
0.99989
1
0.997472
0.998378
0.996515
0.995407
0.999886
1
0.999532
0.994146
1
0.999662
0.999665
0.999818
0.936095
0.996433
0.999158
0.997977
0.999333
0.757948
0.653574
0.9988
1
0.973675
1
0.99776
0.994909
0.999932
0.998227
0.997062
0.999645
1
0.998615
0.991743
0.9989
1
1
0.999923
0.940078
0.999758
0.994979
0.996653
0.999648
0.728598
0.61578
0.997832
1
0.991599
1
0.998824
0.996764
0.998108
0.999129
0.993415
0.998394
1
0.999459
0.996356
0.993623
0.998073
0.999777
0.999961
0.950389
0.993288
0.996512
0.997537
0.999062
0.740615
0.70567
0.992915
0.998883
0.992229
1
0.99944
0.996326
0.99669
0.995944
0.994327
0.99815
1
0.999455
0.997402
0.995822
1
0.999777
0.999752
0.959468
0.994044
0.998617
0.998664
0.998799
0.74027
0.807854
0.992838
0.999819
0.987396
1
0.99608
0.994607
0.998987
0.998828
0.992437
0.997795
1
0.999842
0.997751
0.997031
0.996113
0.9997
0.999102
0.971831
0.995253
1
0.999451
0.999438
0.704306
0.86854
0.990981
0.994807
0.96934
0.996922
0.999328
0.995854
0.998379
0.998949
0.984502
0.993552
1
0.999883
0.999574
1
0.997972
0.999108
0.999187
0.983228
0.994317
0.999128
0.9996
0.998985
0.695727
0.88695
0.994232
0.991698
0.93595
1
0.996192
0.991573
0.994967
0.999129
0.992943
0.995693
0.998768
0.999851
0.998876
0.996812
0.995877
0.9992
0.996624
0.992627
0.991083
1
0.999301
0.99681
0.717826
0.89654
0.994929
0.976874
0.91551
0.988896
0.995577
0.99309
0.992637
0.994232
0.990748
0.995353
0.998891
1
0.996976
1
0.996418
0.999277
0.997092
0.994881
0.990206
0.997715
0.999838
0.994769
0.7924
0.87771
0.99729
0.966304
0.89843
0.996152
0.998824
0.993292
0.996724
0.996365
0.987946
0.997902
0.998684
0.999649
0.997519
0.996812
0.997263
0.998177
0.996271
0.995335
0.985551
0.999128
0.999673
0.99432
0.884567
0.88023
0.9988
0.974489
0.86693
0.990325
0.979058
0.980821
0.995508
0.993962
0.984806
0.996807
0.998407
0.999431
0.993255
1
0.997127
0.998542
0.994672
0.994188
0.973732
1
0.999507
0.995327
0.935974
0.85321
0.997987
0.951091
0.82892
0.987575
0.946804
0.97283
0.996318
0.98528
0.984468
0.998352
0.998515
0.998377
0.985658
0.99989
0.997094
0.997342
0.996264
0.9954
0.964271
0.997385
0.99962
0.995314
0.959742
0.82542
0.998451
0.94931
0.818
0.9989
0.817362
0.944783
0.993886
0.957647
0.987034
0.99681
0.998334
0.998385
0.907389
1
0.997127
0.999054
0.995179
0.996255
0.950487
0.997355
0.998991
0.996729
0.971092
0.80932
0.98645
0.924191
0.85986
0.725849
0.785672
0.893486
0.963656
0.730068
0.886504
0.996444
0.999332
0.996971
0.730733
1
0.998682
0.999412
0.995625
0.996445
0.974578
0.99507
0.998845
0.997126
0.979938
0.79021
0.933288
0.928931
0.89745
0.973828
0.983931
0.992887
1
0.923735
0.789168
0.993312
0.999255
0.996886
0.911692
0.998791
1
0.999104
0.997867
0.994877
0.984826
0.989328
0.998873
0.996523
0.986447
0.89059
0.762542
0.968722
0.94533
1
0.982475
0.997607
1
1
1
0.992904
0.999628
0.997496
0.970153
0.992524
0.841532
0.998404
0.997665
0.992206
0.979959
0.997474
0.99419
0.997174
0.989685
0.93021
0.868417
0.980767
0.96486
1
0.982193
1
1
1
0.998987
0.993735
0.998826
0.996563
0.983836
0.971414
0.963433
0.987219
0.99818
0.989968
0.987455
0.981541
0.983017
0.996188
0.984711
0.91474
0.974798
0.976779
0.98159
1
0.975645
0.997978
1
0.999129
1
0.997497
0.99777
0.997722
0.992439
0.975265
0.984319
0.993084
0.998161
0.990666
0.991536
0.987313
0.991973
0.997041
0.99092
0.94029
0.99369
0.983696
0.98656
1
0.979111
0.947109
1
1
0.998379
0.998565
0.998484
0.99723
0.995851
0.998131
0.999358
0.995365
0.997623
0.991914
0.98821
0.993446
0.993669
0.99548
0.98835
0.909628
0.994813
0.974275
0.97942
0.997031
1
0.998079
1
0.99988
0.999662
0.998875
0.998995
0.997714
0.996355
1
0.996384
0.996677
0.997417
0.99116
0.987335
0.999128
0.997925
0.993887
0.98411
0.916209
0.999071
0.979076
0.98621
0.99835
1
0.999022
1
0.999309
1
0.999889
0.999482
0.997024
0.995037
0.993294
0.996891
0.998519
0.997495
0.99255
0.992322
1
0.99895
0.993459
0.988183
0.927409
0.99489
0.988888
0.97494
1
1
0.997134
1
0.998257
0.999797
0.999557
0.999628
0.997056
0.996704
1
1
0.999181
0.998107
0.993397
0.987395
1
0.999398
0.995808
0.992122
0.951139
0.998374
0.985747
0.98586
1
1
1
0.996791
1
1
0.999668
0.999666
0.997355
0.998061
1
1
0.999442
0.998978
0.996482
0.992262
1
0.999455
0.995189
0.998131
0.945399
0.996515
0.988888
0.983828
1
1
1
0.993008
0.994321
1
0.999672
0.999889
0.998506
0.994843
1
1
0.999665
0.998986
0.997588
0.986366
1
0.999855
0.998399
0.99753
0.923069
0.995819
0.987801
0.986
1
1
1
0.995136
0.988012
1
0.96957
0.997513
0.999992
0.997053
1
1
0.998808
0.999663
0.999092
0.989327
1
0.997743
0.999078
0.997296
0.937342
0.995199
0.990186
0.98355
1
1
1
1
1
1
0.999103
0.991806
1
0.992633
1
1
0.993873
0.998846
0.999627
0.990869
1
0.988056
0.996705
1
0.898697
1
0.992632
0.97193
1
1
1
1
1
1
1
0.987984
0.987048
0.989648
1
1
0.999854
0.994115
0.979199
0.985731
1
0.999443
0.988038
0.994993
0.99139
1
1
0.96913
1
1
1
1
1
1
1
1
0.997674
0.999612
1
1
1
0.999783
0.999891
1
1
1
1
0.999032
1
1
1
1
1
1
1
1
1
1
1
1
1
1
1
1
1
1
1
1
1
1
1
1
1
1
1
1
1
1
1
1
1
1
1
1
1
1
1
1
1
1
1
1
1
1
1
1
1
1
1
1
1
1
1
1
1
1
1
1
1
1
1
1
1
1
1
1
1
1
1
1
1
1
1
1
1
1
1
1
1
1
1
1
1
1
1
1
1
1
1
1
1
1
1
1
1
1
1
1
1
1
1
1
1
1
1
1
1
1
1
1
1
1
1
1
1
1
1
1
1
1
1
1
1
1
1
1
1
1
1
1
1
1
1
1
1
1
1
1
1
1
1
1
1
1
1
1
1
1
1
1
1
1
1
1
1
1
1
1
1
1
1
1
1
1
1
1
1
1
1
1
1
1
1
1
1
1
1
1
1
1
1
1
1
1
1
1
1
1
1
1
1
1
1
1
1
1
1
1
1
1
1
1
1
1
1
1
1
1
1
1
1
1
1
1
1
1
1
1
1
1
1
1
1
1
1
1
1
1
1
1
1
1
1
1
1
1
1
1
1
1
1
1
1
1
1
1
1
1
1
1
1
1
1
1
1
1
1
1
1
1
1
1
1
1
1
1
1
1
1
1
1
1
1
1
1
1
1
1
1
1
1
1
1
1
1
1
1
1
1
1
1
1
1
1
1
1
1
1
1
1
1
1
1
1
1
1
1
1
1
1
1
1
1
1
1
1
1
1
1
1
1
1
1
1
1
1
1
1
1
1
1
1
1
1
1
1
1
1
1
1
1
1
1
1
1
1
1
1
1
1
1
1
1
1
1
1
1
1
1
1
1
1
1
1
1
1
1
1
1
1
1
1
1
1
1
1
1
1
1
1
1
1
1
1
1
1
1
1
1
1
1
1
1
1
1
1
1
1
1
1
1
1
1
1
1
1
1
1
1
1
1
1
1
1
1
1
1
1
1
1
1
1
1
1
1
1
1
1
1
1
1
1
1
1
1
1
1
1
1
1
1
1
1
1
1
1
1
1
1
1
1
1
1
1
1
1
1
1
1
1
1
1
1
1
1
1
1
1
1
1
1
1
1
1
1
1
1
1
1
1
1
1
1
1
1
1
1
1
1
1
1
1
1
1
1
1
1
1
1
1
1
1
1
1
1
1
1
1
1
1
1
1
1
1
1
1
1
1
1
1
1
1
1
1
1
1
1
1
1
1
1
1
1
1
1
1
1
1
1
1
1
1
1
1
1
1
1
1
1
1
1
1
1
1
1
1
1
1
1
1
1
1
1
1
1
1
1
1
1
1
1
1
1
1
1
1
1
1
1
1
1
1
1
1
1
1
1
1
1
1
1
1
1
1
1
1
1
1
1
1
1
1
1
1
1
1
1
1
1
1
1
1
1
1
1
1
1
1
1
1
1
1
1
1
1
1
1
1
1
1
1
1
1
1
1
1
1
1
1
1
1
1
1
1
1
1
1
1
1
1
1
1
1
1
1
1
1
1
1
1
1
1
1
1
1
1
1
1
1
1
1
1
1
1
1
1
1
1
1
1
1
1
1
1
1
1
1
1
1
1
1
1
1
1
1
1
1
1
1
1
1
1
1
1
1
1
1
1
1
1
1
1
1
1
1
1
1
1
1
1
1
1
1
1
1
1
1
1
1
1
1
1
1
1
1
1
1
1
1
1
1
1
1
1
1
1
1
1
1
1
1
1
1
1
1
1
1
1
1
1
1
1
1
1
1
1
1
1
1
1
1
1
1
1
1
1
1
1
1
1
1
1
1
1
1
1
1
1
1
1
1
1
1
1
1
1
1
1
1
1
1
1
1
1
1
1
1
1
1
1
1
1
1
1
1
1
1
1
1
1
1
1
1
1
1
1
1
1
1
1
1
1
1
1
1
1
1
1
1
1
1
1
1
1
1
1
1
1
1
1
1
0.433264
0.533178
0.45224
0.435037
0.540663
0.435596
0.490128
0.457278
0.412307
0.433084
0.46639
0.441325
0.464952
0.480417
0.491073
0.487578
0.478195
0.427379
0.460233
0.452016
0.464453
0.495403
0.440511
0.558381
0.5111
0.483534
0.411951
0.455113
0.423978
0.456544
0.46612
0.487984
0.522858
0.419014
0.42004
0.487364
0.423742
0.447962
0.506443
0.453354
0.506662
0.4973
0.495498
0.493924
0.500099
0.466473
0.455333
0.404901
0.428126
0.421925
0.43198
0.499597
0.562133
0.445658
0.42796
0.51504
0.444745
0.421912
0.431763
0.444178
0.507764
0.430588
0.514052
0.50377
0.499625
0.516476
0.479912
0.462896
0.408859
0.461343
0.417148
0.433871
0.462413
0.447715
0.452694
0.432665
0.417379
0.470974
0.41918
0.426586
0.483955
0.446482
0.4903
0.533554
0.455033
0.439198
0.427549
0.45332
0.466636
0.443377
0.435267
0.504396
0.477298
0.470258
0.487266
0.449653
0.618761
0.977751
0.542754
0.600083
0.652304
0.75053
0.888062
0.763597
0.671687
0.484416
0.576691
0.633773
0.78297
0.44891
0.91767
0.713274
0.957477
0.751511
0.662432
0.658696
0.973695
0.954837
0.880674
0.846884
0.519485
0.617131
0.513883
0.750674
0.911432
0.458548
0.787922
0.512965
0.871867
0.719836
0.548759
0.603408
0.882673
0.800594
0.884393
0.590888
0.557379
0.965937
0.854972
0.871392
0.559542
0.603055
0.816504
0.887169
0.883481
0.523324
0.463977
0.628786
0.890099
0.65602
0.619171
0.9328
0.733061
0.74328
0.814562
0.868485
0.52162
0.917297
0.942634
0.487174
0.564988
0.443484
0.49113
0.8492
0.794646
0.777234
0.710754
0.834459
0.978701
0.695922
0.691373
0.922125
0.651672
0.550074
0.751548
0.483508
0.748289
0.897449
0.700087
0.879353
0.994971
0.988361
0.992711
0.995287
0.993035
0.99685
0.995729
0.991933
0.988169
0.972011
0.99685
0.985044
0.976631
0.976368
0.981
0.994313
0.991633
0.95359
0.99531
0.985479
0.974351
0.969265
0.988853
0.986941
0.993956
0.864494
0.981695
0.989483
0.995181
0.998492
0.996608
0.993244
0.994125
0.987444
0.992496
0.985061
0.997127
0.99685
0.992789
0.850986
0.932534
0.978036
0.828582
0.944229
0.975097
0.990128
0.992615
0.983919
0.990885
0.913044
0.660821
0.593166
0.904378
0.604227
0.985698
0.991008
0.933662
0.907287
0.980098
0.989798
0.999969
0.92603
0.976104
0.826206
0.901009
0.748411
0.99949
0.716113
0.918491
0.693801
0.691554
0.978598
0.970403
0.977418
0.964863
0.996321
0.982786
0.972323
0.93413
0.976218
0.975617
0.923154
0.969284
0.802269
0.990679
0.992288
1
0.988775
0.996676
0.991987
0.991172
0.992194
0.983074
0.982178
0.99978
0.983809
0.989703
0.991296
0.985959
0.99586
0.988474
0.98235
0.995068
0.986041
0.981807
0.976952
0.991322
0.989792
0.996495
0.996621
0.998001
0.993427
0.994062
0.998727
0.995123
0.996811
0.997978
0.996053
1
0.986103
0.995952
0.992316
0.991559
0.802618
0.876262
0.980668
0.787195
0.880259
0.975762
0.99379
0.996597
0.987817
0.991359
0.82108
0.564283
0.485149
0.844423
0.528563
0.995439
0.989778
0.997971
0.934974
0.983436
0.989209
0.993599
0.910921
0.979312
0.61924
0.848552
0.633096
0.951355
0.50344
0.622381
0.600389
0.633775
0.986059
0.983951
0.987976
0.977494
0.991079
0.957673
0.949037
0.899509
0.971268
0.937861
0.84307
0.966245
0.622666
0.991853
0.996307
0.994835
0.993508
0.993834
0.987467
0.991413
0.988955
0.977051
0.987976
0.996592
0.97121
0.991176
0.983837
0.991353
0.995268
0.987535
0.977344
0.994114
0.985423
0.988914
0.989194
0.99089
0.989768
0.995001
0.998425
0.998277
0.994109
1
0.998285
0.996816
0.997065
0.990561
0.998454
0.993186
0.99075
0.996557
0.990325
0.992827
0.824057
0.867535
0.976711
0.872725
0.836444
0.988358
0.992923
0.991425
0.98462
0.99431
0.802731
0.519118
0.464612
0.758508
0.501851
0.992055
0.99198
0.997932
0.899352
0.974348
0.983325
0.99157
0.895288
0.961607
0.444757
0.465809
0.565986
0.541626
0.433041
0.447457
0.576745
0.597128
0.978115
0.98349
0.957417
0.947343
0.972205
0.991483
0.958407
0.774602
0.967311
0.97195
0.826174
0.965983
0.671069
0.997909
0.995957
0.987356
0.993499
0.996034
0.996701
0.996439
0.995306
0.983794
0.989312
1
0.982515
0.982681
0.985347
0.993437
0.998677
0.995403
0.980023
0.996574
0.988453
0.993559
0.991012
0.998272
0.985873
0.998367
0.999007
0.998052
0.996833
0.998368
0.996638
0.996224
0.995218
0.990085
1
0.988235
0.994732
0.993653
0.993512
0.986796
0.901263
0.791077
0.984995
0.933028
0.855488
0.986733
0.99245
0.993732
0.984307
0.992759
0.694464
0.49381
0.489201
0.787035
0.489523
0.992955
0.986815
0.98563
0.926262
0.939923
0.99122
0.981327
0.93638
0.958404
0.447914
0.466256
0.601101
0.588973
0.449126
0.477535
0.603651
0.597571
0.975723
0.977261
0.990548
0.971575
0.992062
0.988337
0.956975
0.794207
0.988697
0.982662
0.738177
0.976515
0.62954
0.997909
0.983967
0.996811
0.988427
0.995245
0.990654
0.994348
0.992094
0.981117
0.983877
0.997801
0.985905
0.984653
0.989807
0.986327
0.992198
0.992058
0.99194
0.996186
0.983849
0.991262
0.979323
0.995261
0.98645
0.990388
0.991007
0.98514
0.996768
0.996257
0.991703
0.987961
0.989482
0.993552
0.998839
0.995711
0.994063
0.994
0.996811
0.995305
0.904498
0.938181
0.753751
0.994518
0.998917
0.937203
0.92238
0.416467
0.430116
0.414834
0.983012
0.871023
0.931345
0.765559
0.985395
0.995392
0.99934
0.992061
0.994152
0.698789
0.47807
0.861452
0.508525
0.83822
0.477148
0.932485
0.402204
0.49001
0.369981
0.915631
0.758169
0.9498
0.860167
0.995186
0.996302
0.981195
0.952861
0.945294
0.996872
0.98046
0.987793
0.948135
0.457691
0.460865
0.635635
0.660476
0.445001
0.481354
0.604611
0.659952
0.974882
0.989085
0.992387
0.963563
0.994424
0.988034
0.965208
0.761969
0.972674
0.979639
0.768683
0.97827
0.653701
0.980411
0.992471
0.996921
0.988735
0.993064
0.992524
0.98738
0.996305
0.981573
0.987527
0.998901
0.983849
0.989585
0.985512
0.983792
0.995959
0.996935
0.988162
0.996334
0.987654
0.991654
0.987203
0.994337
0.994234
0.990695
0.991777
0.993878
0.996934
0.996875
0.997372
0.990714
0.992692
1
0.99775
1
1
1
1
1
0.995239
1
0.993124
0.995316
0.996811
0.995577
0.996503
0.950454
0.949163
0.993601
0.994447
0.965107
0.973245
1
0.999152
0.999252
1
0.999148
0.999972
1
0.996182
0.990511
0.996811
0.998242
0.994849
0.887935
0.483663
0.962839
0.582077
0.904166
0.468378
0.944644
1
1
0.999276
0.999254
1
1
1
0.98507
0.988419
0.987988
0.983236
0.970147
0.999098
0.996567
0.986499
0.992521
0.441385
0.47057
0.552892
0.725862
0.446474
0.477665
0.576388
1
0.623645
0.990828
1
1
1
0.988385
0.983767
0.993233
0.946991
0.993108
0.988428
0.970259
0.780508
0.943155
0.971401
0.793579
0.961813
0.648081
0.995957
0.996236
0.995712
0.994
0.996759
1
0.994619
0.993125
0.987637
0.990361
0.996812
0.992515
0.992604
0.989986
0.9913
0.99798
0.992755
0.9905
0.995887
0.990715
0.989694
0.99023
0.995291
0.980617
0.998385
0.998787
0.992645
0.991639
0.991632
0.999731
0.995958
0.995217
1
0.993107
1
1
1
1
1
0.998877
0.996811
0.998243
0.994581
0.993622
0.996486
0.994363
0.97298
0.980476
0.987621
0.998293
0.987833
0.989019
1
1
1
1
1
1
1
0.998697
0.994539
0.996701
0.999152
0.992951
0.918547
0.466481
0.930734
0.642101
0.927012
0.48909
0.955224
1
1
1
1
1
1
1
0.996582
0.991558
0.997756
0.984361
0.991099
0.999128
0.998086
0.982167
0.995519
0.457345
0.48136
0.633683
0.762351
0.460411
0.492815
0.61007
0.987282
0.610615
0.99948
1
1
1
0.992234
0.993423
0.991359
0.992647
0.991443
0.99284
1
0.80509
0.99594
0.98783
0.863447
0.99989
0.712195
0.999721
1
0.996811
0.989665
0.994821
0.990434
0.991252
0.991762
0.993757
0.992834
0.993733
0.992939
0.988185
0.989895
0.993514
0.990665
0.989969
0.993587
0.995738
0.996906
0.992887
0.986815
0.991328
0.9915
0.990399
0.997141
0.995721
0.991982
0.989973
0.999666
0.998435
0.998046
0.999223
0.994232
1
0.996335
0.995549
0.996811
0.98964
0.99754
0.988859
0.993618
0.987755
0.998114
0.993912
0.993675
1
1
1
1
1
1
1
0.999364
0.997792
0.995492
0.996303
0.996708
0.930468
0.509474
0.952458
0.697355
0.940486
0.52379
0.964364
1
1
1
1
1
1
1
1
0.99714
0.998845
0.986668
0.992128
0.997203
0.995743
0.981437
0.989978
0.470209
0.491329
0.572741
0.760431
0.488319
0.518612
0.586864
0.617751
0.989995
0.987266
0.997402
1
0.99547
0.998036
1
0.865797
1
0.999124
0.899143
1
0.657029
0.99756
0.98829
0.993623
0.993343
0.989037
0.996481
0.993808
0.99249
0.992061
0.97986
0.998131
0.995183
0.981454
0.986119
0.983264
0.993382
0.988576
0.993828
0.994517
0.994204
0.990759
0.995206
0.990256
0.990689
0.988667
0.998605
0.99997
0.983371
0.992192
0.997123
0.997754
0.995639
0.987586
0.991484
0.996701
0.986581
0.997329
0.993952
0.993851
0.992564
0.988264
0.967767
0.98867
0.984796
0.99797
0.996669
0.974159
0.998606
1
0.958656
0.537267
0.783156
0.944967
0.529145
0.993303
0.995256
0.997789
0.992969
0.990978
0.998256
0.996503
0.993025
0.987134
0.477311
0.528003
0.575114
0.763849
0.489751
0.50865
0.602599
0.635002
0.984888
0.986847
0.998278
1
0.997754
1
1
0.947343
1
0.998249
0.971747
1
0.68247
0.995958
0.99763
0.990324
0.994776
0.989613
0.987685
0.997756
0.992854
0.991609
0.971781
0.99989
0.99367
0.966558
0.966397
0.962219
0.996099
0.991293
0.993319
0.994845
0.993718
0.998656
0.9932
0.992909
0.99502
0.98051
0.996207
0.986231
0.982039
0.941481
0.999967
0.985671
0.946343
0.949688
0.996904
0.990543
0.998425
0.992646
0.992523
0.997365
0.992383
0.987245
0.993529
0.992528
0.997033
0.997364
0.997754
0.992963
0.996576
0.995314
0.968414
0.556252
0.895881
0.986826
0.547666
0.997977
0.993094
0.99901
0.994994
0.988738
0.998587
0.999044
1
0.992644
0.459243
0.516034
0.585242
0.769074
0.458776
0.509103
0.558073
0.623279
0.992864
0.993913
1
1
0.997058
1
1
0.984426
1
0.998249
0.986482
1
0.823525
0.995958
1
0.993623
0.997756
0.997487
0.99945
0.994699
0.999122
0.991398
0.972325
0.995602
0.997123
0.987962
0.947021
0.938097
0.994428
0.990527
0.994339
0.991598
0.991734
0.99384
0.998832
0.99419
0.997527
0.913723
0.993478
0.969828
0.992551
0.961122
0.98455
0.98636
0.954519
0.988323
0.993653
0.994722
0.99679
0.993188
0.996811
0.997365
0.988295
0.99681
0.996706
0.999092
0.991639
0.996486
0.994114
1
0.99491
0.996128
0.987583
0.601639
0.950705
0.993296
0.631734
0.987932
0.991071
0.999011
0.998369
0.993764
0.996242
0.99779
0.998313
0.986893
0.467595
0.535373
0.544875
0.815559
0.483129
0.635354
0.57002
0.606397
0.995173
0.992234
1
1
1
1
1
0.994733
0.99989
0.999034
0.996824
1
0.866149
1
0.997979
0.990984
0.996595
0.998062
0.996811
0.993693
0.996669
0.991004
0.995123
0.996702
0.997092
0.996865
0.987451
0.995956
0.977989
0.996796
0.99362
0.991271
0.992549
0.995688
0.99386
0.996187
0.995835
0.991122
0.996837
0.993375
0.998228
0.99556
0.999671
0.994221
0.99958
0.995943
0.99315
0.996811
0.994518
0.993846
1
0.995578
0.995098
0.995599
0.998876
0.997367
0.990428
0.997879
0.995508
0.996811
0.998546
1
0.98747
0.726592
0.995858
0.995713
0.78393
0.996652
1
0.999044
0.993138
0.991524
0.998587
0.997988
0.995332
0.991888
0.470589
0.67356
0.576779
0.771513
0.468583
0.704962
0.562511
0.631738
0.99972
0.997971
1
1
0.999961
1
1
0.99632
1
1
0.998644
1
0.962263
0.990452
0.996027
0.996811
0.993964
0.995943
1
0.988817
0.992127
0.99682
0.998916
0.99956
0.996608
1
0.9901
0.999861
0.990527
0.991711
0.992662
0.992909
0.997755
0.999384
0.996256
0.986713
0.988059
0.996179
1
0.995915
0.998258
0.993032
1
0.993071
0.995872
0.994543
0.992337
1
0.997244
0.996207
1
0.98934
0.994977
0.990428
0.986703
0.996308
0.990428
1
1
0.997911
0.999364
0.999303
0.98857
0.839171
0.995344
0.994175
0.904444
0.996512
0.997489
0.999901
0.993532
0.992069
0.997595
0.999044
0.996738
0.995611
0.469966
0.736484
0.560298
0.737936
0.475897
0.770901
0.559281
0.616114
0.988177
0.991885
1
1
0.998451
1
1
0.999961
0.996817
0.999124
0.999264
1
0.979206
0.997979
0.998327
1
0.99199
0.995882
0.996921
0.994157
0.994096
0.999879
0.997716
0.99989
0.999485
0.997794
0.998048
0.994632
0.996657
0.99596
0.997454
0.991033
0.994501
0.999496
0.997184
0.991271
0.998243
1
0.999077
0.992043
1
0.99837
1
0.999123
0.989436
0.994193
0.998916
1
0.993065
0.996865
0.996811
0.993852
0.995915
1
0.994301
0.998215
0.985148
0.997637
0.996438
0.99989
0.997576
0.998141
0.981097
0.926671
0.993651
0.995494
0.965697
0.999023
1
0.998417
0.994938
0.99549
0.99519
0.99967
0.990045
0.996549
0.460112
0.810429
0.568615
0.74489
0.452546
0.858558
0.585514
0.65008
0.995872
0.988526
0.999154
1
0.996825
0.99997
1
0.998141
1
1
0.998489
1
0.982567
0.994006
0.996724
0.993623
0.988431
0.990462
1
0.993229
0.988827
0.997304
0.996245
1
0.998546
0.997716
0.993935
0.993935
0.999582
0.99596
0.994549
0.994399
0.999187
0.995688
0.995807
0.994101
0.996844
1
1
0.994705
0.996215
1
1
0.999697
0.991675
0.996922
0.995936
0.996811
0.994579
0.999768
1
0.998062
0.996308
0.987238
0.99686
0.994825
0.993619
0.994486
0.996244
0.997801
0.998091
0.996128
0.971316
0.975608
0.990295
0.97714
0.977854
1
0.999163
0.999373
0.996738
0.997034
0.999098
0.997098
0.998369
0.995702
0.4624
0.888902
0.582744
0.74145
0.485553
0.925995
0.614337
0.784153
0.996012
0.987267
1
1
0.991715
0.999698
1
0.998877
0.997695
0.999305
0.997521
1
0.991809
0.995958
0.988012
0.993621
0.992842
0.991885
0.990435
0.994002
0.99346
0.999758
0.998916
0.996812
0.99794
0.998607
0.995956
0.995957
0.994637
0.995263
0.995328
0.995293
0.998308
0.997088
0.995596
0.996812
0.996225
0.99837
0.999967
0.99882
0.997086
0.994887
0.999077
0.998669
1
0.995873
0.995782
1
0.993641
0.994117
0.993623
0.990914
0.998214
0.996369
0.995504
0.997368
0.987019
0.995002
1
1
0.994697
0.998916
0.983843
0.989738
0.995254
0.972526
0.982154
0.997977
1
0.998055
1
0.99997
0.998256
0.999044
0.998369
0.999122
0.508481
0.933287
0.634733
0.720725
0.508598
0.927522
0.598072
0.84978
0.988526
0.993214
0.990003
0.996707
0.993263
0.985654
0.978931
0.995545
0.996817
1
0.992139
0.998903
0.97501
0.996655
0.997073
1
0.995783
0.994702
0.995711
0.995046
0.994034
0.997698
0.998878
0.996811
0.995335
1
0.996375
1
0.997911
0.996656
0.996136
0.995711
0.996844
0.992944
0.996196
0.994696
0.999056
0.989209
0.998089
0.999153
0.998738
0.994438
1
0.998245
0.998041
0.997972
0.993112
1
0.993096
0.997368
0.996591
0.9937
0.998245
0.996809
0.998837
0.995068
0.99472
0.999061
0.998838
0.995712
0.998606
0.998916
0.980216
0.975918
0.989933
0.977252
0.975957
1
1
0.996505
0.998369
0.998123
1
1
1
1
0.549234
0.946832
0.586149
0.695524
0.583039
0.936322
0.596465
0.877738
0.996222
0.997971
0.984419
0.987271
0.991094
0.993717
0.981997
0.990706
0.994294
0.991876
0.992291
0.98606
0.94251
0.994635
0.996166
0.997911
0.993268
0.989707
0.997251
0.99404
0.991884
0.997063
0.999768
0.996811
0.993093
0.998722
0.998397
0.997908
0.997144
0.998677
0.996436
0.995829
0.995283
0.997816
0.997154
0.991955
0.996355
0.998371
1
0.997035
0.997386
0.987298
0.999044
0.999122
0.990697
1
0.9988
0.996812
0.99564
0.996632
0.996811
0.996517
0.99649
0.9989
1
0.998245
0.996809
0.998243
0.997754
1
0.999121
0.997754
0.955387
0.971316
0.992531
0.969772
0.970725
1
1
0.99911
1
1
1
0.999802
1
0.999304
0.611699
0.928774
0.597959
0.691383
0.655655
0.9265
0.578547
0.891953
0.995943
0.997971
0.985928
0.978602
0.993224
0.980758
0.99034
0.980598
0.972348
0.987527
0.975556
0.981998
0.939079
0.997979
0.999442
0.988785
0.991101
0.991644
0.985155
0.989358
0.991763
0.996608
0.9976
0.996811
0.991851
0.999264
0.996027
0.997978
0.99408
0.99589
0.996286
0.990021
0.992583
0.996808
0.994129
0.989362
0.995281
0.99646
0.999045
0.998215
0.998918
0.992244
1
0.995037
1
0.993493
0.993112
1
0.997033
0.994426
1
0.995305
0.998245
0.99362
0.998876
0.995036
0.990317
0.996032
0.994425
1
0.996152
0.997367
0.986594
0.966632
0.986725
0.957351
0.959147
0.99993
0.996582
1
0.999944
0.998275
0.998136
0.999044
0.995106
0.999122
0.688225
0.923272
0.563208
0.743676
0.71387
0.913941
0.550284
0.8825
0.997971
0.997971
0.992027
0.982768
0.995509
0.985109
0.964113
0.961855
0.943593
0.966114
0.952932
0.95105
0.894124
0.997701
0.995609
0.988457
0.986808
0.991342
0.986253
0.992879
0.988583
0.996638
0.996555
0.997691
0.996607
0.99102
1
0.997699
0.996657
0.994288
0.995358
0.989545
0.996422
0.994511
0.991282
0.990882
0.995509
0.990391
0.999045
0.995704
0.996515
0.990615
1
0.998608
0.992305
0.995243
0.997485
1
0.998214
0.995471
0.996811
0.998486
0.996944
0.99362
0.99907
0.998426
0.990538
0.996486
0.991676
1
0.996182
0.995508
0.957255
0.95707
0.990596
0.973949
0.950318
0.992257
0.998675
0.999044
0.998369
1
1
1
0.996906
0.998819
0.736354
0.91476
0.546934
0.847595
0.756493
0.920935
0.547062
0.85456
0.995943
0.997271
0.9849
0.967292
0.991444
0.991241
0.974319
0.956004
0.965757
0.9772
0.946545
0.941398
0.869825
0.995052
0.987664
0.997471
0.977291
0.993128
0.995711
0.978792
0.995548
0.995518
0.991639
0.994722
0.995214
0.988813
0.994004
0.998327
0.988509
0.978752
0.994669
0.991987
0.993201
0.99132
0.991403
0.982569
0.992548
0.989717
0.997858
0.994615
0.995583
0.979768
0.997759
0.995612
0.993354
0.991045
0.99555
1
0.999122
0.991561
1
0.998092
0.999123
0.992739
0.997054
0.996368
0.988228
0.999091
0.997832
1
0.997364
0.998877
0.954069
0.940309
0.977896
0.912393
0.926193
0.99728
0.997977
0.999374
0.995163
0.999304
0.999128
0.99967
0.996738
0.999122
0.759016
0.948352
0.577165
0.913078
0.763816
0.951679
0.592678
0.849449
0.994753
0.997971
0.99242
0.953901
0.997677
0.992479
0.959832
0.94257
0.914511
0.958806
0.91458
0.895404
0.845667
0.99317
0.972539
1
0.968738
0.989707
1
0.955653
0.988734
0.991308
0.996555
0.995492
0.99585
0.989316
0.994771
0.981666
0.990666
0.988369
0.971789
0.971878
0.993071
0.953126
0.966447
0.961297
0.986755
0.984658
0.996508
0.993253
0.989995
0.98376
0.996539
0.989046
0.9816
0.976496
0.994853
1
0.997032
0.995046
0.996811
0.996487
0.994251
0.964467
0.988913
0.995158
0.949941
0.998273
0.999961
1
0.996637
1
0.909566
0.923082
0.975114
0.8615
0.910974
0.996652
0.997279
0.999275
0.994545
0.998245
0.999128
0.999967
0.995668
1
0.78421
0.94136
0.615702
0.942531
0.835943
0.92948
0.674018
0.85421
0.997552
0.997971
0.988856
0.931181
0.99969
0.988855
0.937444
0.906206
0.866444
0.955514
0.889671
0.841296
0.830752
0.966828
0.902982
1
0.931003
0.98068
1
0.896774
0.964092
0.997365
0.991639
0.996152
0.996517
0.987575
0.995329
0.974973
0.982518
0.941767
0.9481
0.952039
0.987996
0.938174
0.84293
0.911659
0.984184
0.981794
0.996969
0.987143
0.975634
0.949534
0.996803
0.972886
0.963418
0.921004
0.995704
0.996701
0.997365
0.981808
0.993733
0.999091
0.99068
0.917604
0.951577
0.982356
0.908133
0.994639
0.999961
1
0.997364
0.998838
0.823747
0.927611
0.956124
0.765099
0.931537
1
0.999302
1
0.996738
0.99882
0.998557
1
0.996738
0.998244
0.84823
0.904212
0.739224
0.971416
0.869109
0.893171
0.842746
0.817028
0.996642
0.995943
0.99236
0.922619
0.992528
0.984052
0.886411
0.901985
0.818378
0.946816
0.908344
0.76359
0.839155
0.611832
0.644755
0.9989
0.690579
0.87645
0.901607
0.57665
0.533684
0.99476
0.97724
0.96812
0.801551
0.735426
0.85939
0.609706
0.925902
0.770523
0.634965
0.784133
0.952341
0.586712
0.682654
0.628548
0.906765
0.906619
0.996079
0.926642
0.86698
0.727068
0.999011
0.78781
0.8482
0.757722
0.966177
1
0.99676
0.826212
1
0.991792
0.940723
0.797255
0.802641
0.914748
0.754213
0.998243
0.998877
1
0.997727
0.996631
0.728368
0.935044
0.962565
0.725637
0.941063
1
0.99986
0.999044
0.994714
0.999364
0.998617
1
0.997806
0.997396
0.906333
0.890258
0.88727
0.981701
0.914844
0.89235
0.920638
0.805404
0.996012
0.992304
0.973757
0.817579
0.981804
0.934547
0.74341
0.903108
0.780407
0.912749
0.911985
0.742078
0.88306
0.837834
0.973027
0.701234
0.803996
0.658603
0.925674
0.970358
0.961815
0.580595
0.524625
0.802454
0.855646
0.761188
0.583444
0.702641
0.609781
0.825111
0.863917
0.703236
0.891214
0.926629
0.944787
0.912701
0.897881
0.611373
0.988007
0.697795
0.797244
0.727717
0.977885
0.816709
0.618262
0.677616
0.628894
1
0.90203
0.747294
1
0.774171
0.923022
0.769092
0.828343
0.949188
0.827157
0.995425
0.999264
0.994833
0.99897
0.997096
0.818253
0.944257
0.981343
0.859851
0.959921
0.995955
0.997558
0.998714
0.991846
0.997337
0.994828
0.999044
0.981155
0.993491
0.949766
0.921418
0.925355
0.984406
0.954997
0.947209
0.937709
0.847768
0.981459
0.933261
0.891071
0.72999
0.866597
0.879727
0.716193
0.941292
0.717305
0.956722
0.953474
0.74109
0.924024
0.990174
0.997491
0.977015
0.992261
0.986979
0.996702
0.989863
0.989979
0.974588
0.94906
1
0.998788
0.993149
0.95629
0.998118
0.99798