/*--------------------------------*- C++ -*----------------------------------*\
| =========                 |                                                 |
| \\      /  F ield         | OpenFOAM: The Open Source CFD Toolbox           |
|  \\    /   O peration     | Version:  5.x                                   |
|   \\  /    A nd           | Web:      www.OpenFOAM.org                      |
|    \\/     M anipulation  |                                                 |
\*---------------------------------------------------------------------------*/
FoamFile
{
    version     2.0;
    format      ascii;
    class       volScalarField;
    location    "0.8";
    object      voidfraction;
}
// * * * * * * * * * * * * * * * * * * * * * * * * * * * * * * * * * * * * * //

dimensions      [0 0 0 0 0 0 0];

internalField   nonuniform List<scalar> 
10571
(
0.530874
0.411214
0.899256
0.914158
0.584578
0.972895
0.992343
0.892356
0.698161
0.581454
0.46172
0.97818
0.970504
0.735381
0.506186
0.478076
0.747326
0.674817
0.55175
0.4647
0.448984
0.514049
0.559485
0.453618
0.588475
0.464638
0.919065
0.899367
0.832415
0.795302
0.856813
0.945617
0.982596
0.979888
0.749916
0.874582
0.935266
0.978773
0.964949
0.691526
0.957781
0.989411
0.969105
0.775155
0.497924
0.975659
0.986931
0.435355
0.969477
0.836329
0.981393
0.989596
0.990052
0.996326
0.993268
0.993367
0.994288
0.985399
0.995514
0.995639
0.994803
0.997678
0.995548
0.864644
0.997452
0.995517
0.974299
0.947331
0.677948
0.988132
0.988845
0.517959
0.975826
0.926262
0.806397
0.990617
0.988484
0.993608
0.996543
0.997397
0.993496
0.988864
0.995714
0.998654
0.997242
0.997872
0.992192
0.877043
0.99757
0.997106
0.974782
0.963608
0.650975
0.98793
0.993909
0.508305
0.978563
0.932072
0.869383
0.953329
0.98567
0.997873
0.994057
0.993154
0.993817
0.980664
0.998021
0.991453
0.997752
0.998845
0.989339
0.735442
0.99997
0.997656
0.976273
0.975864
0.600451
0.986953
0.992784
0.501199
0.953384
0.958777
0.928805
0.92412
0.995409
0.846006
0.92518
0.914283
0.984236
0.898406
0.445274
0.990433
0.99557
0.998052
0.996551
0.969872
0.606289
0.420808
0.997564
0.997029
0.977515
0.977518
0.58043
0.989468
0.991664
0.523787
0.972847
0.969193
0.960611
0.889492
0.995874
0.978912
0.887059
0.89074
0.905357
0.993332
0.522149
0.996811
0.998038
0.987872
0.913116
0.879424
0.599142
0.421179
0.99579
0.997005
0.950536
0.838346
0.508434
0.381162
0.986486
0.991332
0.463659
0.829949
0.983252
0.979647
0.954159
0.995583
0.971746
0.958094
0.955215
0.969652
0.998132
0.99897
0.994612
0.985114
0.971803
0.934124
0.885644
0.928428
0.455066
0.989353
0.997968
0.941855
0.786717
0.500494
0.43675
0.981182
0.990669
0.491917
0.957346
0.976587
0.98704
0.817697
0.908943
0.9756
0.975279
0.939683
0.974644
0.948766
1
0.977677
0.995331
0.952825
0.916665
0.810401
0.792828
0.999203
0.988601
0.995414
0.924294
0.61618
0.49764
0.979826
0.988312
0.617216
0.992084
0.978605
0.991869
0.986128
0.958212
0.983714
0.982956
0.945742
0.890363
0.856344
0.985265
0.996381
0.954408
0.886324
0.746741
0.654682
0.998256
0.990539
0.93613
0.624172
0.448925
0.984241
0.987649
0.906964
0.993623
0.982751
0.992648
0.994862
0.988552
0.987434
0.98602
0.985297
0.948904
0.644685
0.993622
0.99814
0.981761
0.941917
0.804534
0.576911
0.997534
0.99505
0.980595
0.802785
0.459821
0.977583
0.991485
0.99734
0.97911
0.997368
0.990323
0.993209
0.991049
0.983653
0.988647
0.991065
0.987978
0.93442
0.992303
0.999966
0.988893
0.980697
0.917041
0.601203
1
0.997137
0.991732
0.980743
0.455747
0.991057
0.991394
0.99097
0.993623
0.991152
0.995786
0.993311
0.99258
0.987403
0.991185
0.995352
0.995966
0.970001
0.984276
0.998039
0.984666
0.993653
0.990067
0.620462
0.998076
0.99706
0.996034
0.993657
0.48746
0.99125
0.996407
0.988658
0.997471
0.9958
0.995887
0.998041
0.997086
0.998176
0.995677
0.996742
0.995949
0.984261
0.996701
0.935742
0.9956
0.995954
0.994423
0.74311
0.999098
0.998425
0.99622
0.995593
0.541132
0.993264
0.995833
0.991948
0.995712
0.995688
0.996696
0.999155
0.996395
0.996082
0.996589
0.996853
0.995586
0.994922
0.995712
0.996282
0.998454
0.997255
0.996028
0.913261
0.99549
0.998623
0.997558
0.997095
0.652746
0.996283
0.998279
0.980607
0.996702
0.995632
0.995348
0.999223
0.997927
0.994259
0.998001
0.997152
0.995166
0.991665
1
0.997059
0.998527
0.997731
0.994123
0.983372
0.997956
0.998328
0.997942
0.996094
0.787374
0.997755
0.999124
0.961003
1
0.996752
0.996697
0.997095
0.998137
0.995104
0.996891
0.99754
0.997884
0.9962
0.996812
0.996046
0.998311
0.998052
0.996332
0.99353
0.997114
0.999152
0.997619
0.997296
0.94251
0.997755
1
0.975982
1
0.99888
0.997405
0.99902
0.996695
0.999055
0.997654
0.99807
0.997682
0.998565
1
0.998682
0.998181
0.997603
0.995302
0.993681
0.995912
0.998554
0.99814
0.994726
0.97907
0.997716
0.997675
0.96857
1
1
0.998112
0.99902
1
0.997096
0.997234
0.998265
0.997763
0.998915
0.996812
0.993545
0.997746
0.997363
0.995716
0.993743
0.997655
0.998748
0.998371
0.996562
0.98614
1
0.997947
0.96507
1
0.99412
0.998045
0.997061
0.999129
0.995509
0.997848
0.998511
0.998284
0.997829
0.996812
0.997094
0.997581
0.997286
0.996616
0.996856
0.996333
0.998231
0.996636
0.996595
0.98943
0.996671
0.996136
0.95814
1
0.996753
1
0.999324
1
0.997029
0.997688
0.998569
0.999144
1
0.996812
0.995607
0.995
0.997626
0.996916
0.999123
0.99537
0.996124
0.996519
0.996962
0.98887
0.998413
0.993418
0.98257
1
0.993616
1
1
1
1
0.998413
0.998415
0.999204
0.999767
0.997471
0.995945
0.996577
0.99782
0.997706
0.996463
0.995641
0.997363
0.996378
0.996862
0.99944
0.999768
0.994505
0.98614
1
1
0.999022
1
0.999129
0.997535
0.998451
0.998987
0.999156
1
0.998901
0.998175
0.997077
0.998486
0.998772
0.997642
0.998256
0.998026
0.996911
0.998498
0.99797
0.99849
0.997071
0.99174
1
1
0.999022
1
1
0.999021
0.999153
0.999885
0.999532
1
1
0.998378
0.998138
0.999253
0.999072
0.997068
0.999699
0.998486
0.997481
0.996762
1
0.99698
0.997343
0.99377
1
0.999384
0.998989
0.99902
1
0.998042
0.999626
0.999632
0.999459
1
1
0.99973
0.998835
0.998718
0.999068
0.999063
0.999429
0.997828
0.998634
0.998999
1
0.997909
0.996468
0.99531
1
1
1
1
1
0.998683
0.999336
0.999777
0.999762
1
1
0.995742
0.998527
0.999183
0.999416
0.999819
0.998978
0.999649
0.998779
0.998364
0.9965
0.997793
0.995653
0.99867
1
0.999944
1
1
1
1
0.999779
1
1
1
1
0.998344
0.998996
0.998594
0.999765
1
0.997625
0.999059
0.998945
0.999032
1
0.997755
0.997705
1
1
0.998376
1
1
1
1
1
1
1
1
1
1
0.999577
0.999663
1
1
0.999188
0.998991
0.999414
1
1
1
0.999155
1
1
1
1
1
1
1
1
1
1
1
1
1
0.999865
1
0.999923
1
0.99997
0.999879
1
1
1
1
1
1
1
1
1
1
1
1
1
1
1
1
1
0.99902
1
1
0.999959
1
1
0.999649
1
1
1
1
1
1
1
1
1
1
1
1
1
1
1
1
1
1
1
1
1
1
1
0.999883
1
1
1
1
1
1
1
1
1
1
1
0.999021
1
1
1
1
1
1
1
1
1
1
1
0.99996
1
1
1
1
1
1
1
1
1
1
1
1
1
1
1
1
1
1
1
1
1
1
1
0.999923
1
1
1
1
1
1
1
1
1
0.99902
1
1
1
1
1
1
1
1
1
1
1
1
1
1
1
1
1
1
1
1
1
1
1
1
1
1
1
1
1
1
1
1
1
1
1
1
1
1
1
1
1
1
1
1
1
1
1
1
1
1
0.999962
1
1
1
1
1
1
1
1
1
1
1
1
1
1
1
1
1
1
1
1
1
1
1
0.999928
1
1
1
1
1
1
1
1
1
1
1
1
1
1
1
1
1
1
1
1
1
1
1
1
1
1
1
1
1
1
1
1
1
1
1
1
1
1
1
1
1
1
1
1
1
1
1
1
1
1
1
1
1
1
1
1
1
1
1
1
1
1
1
1
1
1
1
1
1
1
1
1
1
1
1
1
1
1
1
1
1
1
1
1
1
1
1
1
1
1
1
1
1
1
1
1
1
1
1
1
1
1
1
1
1
1
1
1
1
1
1
1
1
1
0.998376
1
1
1
1
1
1
1
1
1
1
1
1
1
1
1
1
1
1
1
1
1
1
1
1
1
1
1
1
1
1
1
1
1
1
1
1
1
1
1
1
1
1
1
1
1
1
1
1
1
1
1
1
1
1
1
1
1
1
1
1
1
1
1
1
1
1
1
1
1
1
1
1
1
1
1
1
1
1
1
1
1
1
1
1
1
1
1
1
1
1
1
1
1
1
1
1
1
1
1
1
1
1
1
1
1
1
1
1
1
1
1
1
1
1
1
1
1
1
1
1
1
1
1
1
1
1
1
1
1
1
1
1
1
1
1
1
1
1
1
1
1
1
1
1
1
1
1
1
1
1
1
1
1
1
1
1
1
1
1
1
1
1
1
1
1
1
1
1
1
1
1
1
1
1
1
1
1
1
1
1
1
1
1
1
1
1
1
1
1
1
1
1
1
1
1
1
1
1
1
1
1
1
1
1
1
1
1
1
1
1
1
1
1
1
1
1
1
1
1
1
1
1
1
1
1
1
1
1
1
1
1
1
1
1
1
1
1
1
1
1
1
1
1
1
1
1
1
1
1
1
1
1
1
1
1
1
1
1
1
1
1
1
1
1
1
1
1
1
1
1
1
1
1
1
1
1
1
1
1
1
1
1
1
1
1
1
1
1
1
1
1
1
0.999889
1
1
1
1
1
1
1
1
1
1
1
1
1
1
1
1
1
1
1
1
1
1
1
1
1
1
1
1
1
1
1
1
1
1
1
1
1
1
1
1
1
1
1
1
1
1
1
1
1
1
1
1
1
1
1
1
1
1
1
1
1
1
1
1
1
1
1
1
1
1
1
1
1
1
1
1
1
1
1
1
1
1
1
1
1
1
1
1
1
1
1
1
1
1
1
1
1
1
1
1
1
1
1
1
1
1
1
1
1
1
1
1
1
1
1
1
1
1
1
1
1
1
1
1
1
1
1
1
1
1
1
1
1
1
1
1
1
1
1
1
1
1
1
1
1
1
1
1
1
1
1
1
1
1
1
1
1
1
1
1
1
1
1
1
1
1
1
1
1
1
1
1
1
1
1
1
1
1
1
1
1
1
1
1
1
1
1
1
1
1
1
1
1
1
1
1
1
1
1
1
1
1
1
1
1
1
1
1
1
1
1
1
1
1
1
1
1
1
1
1
1
1
1
1
1
1
1
1
1
1
1
1
1
1
1
1
1
1
1
1
1
1
1
1
1
1
1
1
1
1
1
1
1
1
1
1
1
1
1
1
1
1
1
1
1
1
1
1
1
1
1
1
1
1
1
1
1
1
1
1
1
1
1
1
1
1
1
1
1
1
1
1
1
1
1
1
1
1
1
1
1
1
1
1
1
1
1
1
1
1
1
1
1
1
1
1
1
1
1
1
1
1
1
1
1
1
1
1
1
1
1
1
1
1
1
1
1
1
1
1
1
1
1
1
1
1
1
1
1
1
1
1
1
1
1
1
1
1
1
1
1
1
1
1
1
1
1
1
1
1
1
1
1
1
1
1
1
1
1
1
1
1
1
1
1
1
1
1
1
1
1
1
1
1
1
1
1
1
1
1
1
1
1
1
1
1
1
1
1
1
1
1
1
1
1
1
1
1
1
1
1
1
1
1
1
1
1
1
1
1
1
1
1
1
1
1
1
1
1
1
1
1
1
1
1
1
1
1
1
1
1
1
1
1
1
1
1
1
1
1
1
1
1
1
1
1
1
1
1
1
1
1
1
1
1
1
1
1
1
1
1
1
1
1
1
1
1
1
1
1
1
1
1
1
1
1
1
1
1
1
1
1
1
1
1
1
1
1
1
1
1
1
1
1
1
1
1
1
1
1
1
1
1
1
1
1
1
1
1
1
0.471852
0.661189
0.509145
0.573408
0.759203
0.669068
0.658495
0.54589
0.465617
0.479581
0.591943
0.595582
0.923929
0.8301
0.952546
0.937702
0.971815
0.982179
0.965006
0.978251
0.962659
0.818612
0.655776
0.916013
0.796203
0.740766
0.517342
0.469581
0.649725
0.798868
0.959515
0.894455
0.974538
0.954063
0.948931
0.947546
0.944935
0.946696
0.95665
0.929886
0.903087
0.895658
0.730061
0.875805
0.707031
0.674956
0.566907
0.632918
0.485174
0.686525
0.619022
0.919739
0.969747
0.897128
0.959216
0.958059
0.919383
0.930794
0.922223
0.898984
0.854239
0.840717
0.75033
0.790021
0.700782
0.697086
0.58183
0.579447
0.677016
0.558794
0.539323
0.743575
0.94186
0.570534
0.777098
0.885492
0.81345
0.876792
0.747897
0.768064
0.679301
0.637935
0.598515
0.611214
0.517327
0.518711
0.505646
0.497989
0.559667
0.723646
0.690664
0.623497
0.617332
0.570194
0.625257
0.523619
0.410318
0.428324
0.454904
0.476944
0.577471
0.455027
0.470962
0.536931
0.644944
0.529841
0.466489
0.535283
0.473677
0.473644
0.449649
0.430452
0.43546
0.618678
0.682364
0.979425
0.432013
0.563557
0.715164
0.812405
0.491711
0.701652
0.596383
0.584866
0.493057
0.796234
0.772619
0.607108
0.741473
0.659799
0.431637
0.83357
0.652368
0.464361
0.738974
0.496803
0.549283
0.937305
0.747055
0.616829
0.841899
0.689532
0.474863
0.718374
0.633257
0.51129
0.485611
0.478743
0.525918
0.480998
0.494923
0.573292
0.774742
0.487633
0.62801
0.678248
0.843665
0.509725
0.746467
0.450223
0.458994
0.44005
0.495341
0.437247
0.433
0.441987
0.455456
0.464595
0.613792
0.605326
0.636014
0.818735
0.938066
0.893985
0.483105
0.601773
0.972897
0.641668
0.955368
0.434593
0.537046
0.913285
0.578295
0.692148
0.727439
0.955905
0.992364
0.98821
0.704702
0.681035
0.970133
0.990364
0.98824
0.742172
0.989853
0.455126
0.685597
0.733055
0.65568
0.807532
0.625087
0.930999
0.885416
0.959955
0.776902
0.937876
0.931272
0.992911
0.991128
0.998492
0.993071
0.931979
0.989889
0.58614
0.568959
0.723996
0.851202
0.937441
0.960045
0.962954
0.811868
0.976177
0.974588
0.892372
0.885131
0.945263
0.985772
0.992905
0.998298
0.662793
0.525708
0.837948
0.780395
0.651346
0.978812
1
0.973944
0.919168
0.972339
0.996977
0.994468
0.996055
0.995525
0.449558
0.432416
0.437527
0.905236
0.554364
0.47181
0.490182
0.620585
0.960111
0.998154
0.985757
0.94226
0.981604
0.985808
0.997178
0.853585
0.970754
0.990105
0.919587
0.966788
0.459283
0.768917
0.707438
0.976915
0.931271
0.986823
0.956314
0.911684
0.974832
0.989245
0.984401
0.962683
0.989658
0.988816
0.986253
0.986167
0.910847
0.859808
0.836279
0.946105
0.991955
0.8938
0.868025
0.864946
0.968345
0.992823
0.997715
0.990931
0.993517
0.991709
0.993733
0.988591
0.990296
0.994003
0.993026
0.993983
0.995447
0.987199
0.996158
0.996805
0.974814
0.930028
0.988788
0.98201
0.954149
0.999131
0.998888
0.997914
0.99994
0.998187
0.83837
0.737379
0.865661
0.878263
0.729508
0.997927
0.998053
0.996586
0.996771
0.99815
0.998266
0.99693
0.995123
0.994489
0.628117
0.523615
0.567551
0.955593
0.642278
0.546682
0.596388
0.661366
0.990221
0.997976
0.993749
0.990495
0.979995
0.991263
0.987396
0.915572
0.99563
0.988464
0.907295
0.996603
0.504967
0.744794
0.734099
0.959009
0.853457
0.961312
0.98296
0.866435
0.955668
0.994648
0.986082
0.979994
0.990161
0.989008
0.988923
0.990516
0.953929
0.961003
0.866159
0.924135
0.934695
0.909132
0.869765
0.936828
0.877439
0.994159
0.991237
0.993744
0.990412
0.994656
0.986083
0.992966
0.98924
0.992099
0.995787
1
0.998186
0.995745
1
0.998547
0.952511
0.9706
0.992068
0.906872
0.988185
0.999819
0.999613
1
0.998123
1
0.945539
0.758938
0.838407
0.991036
0.78187
0.99993
1
0.996816
0.990222
0.993443
0.9997
0.995587
0.991002
0.993435
0.673731
0.54824
0.574631
0.970387
0.679597
0.562951
0.544949
0.621012
0.993917
0.993424
0.978377
0.993637
0.989741
0.990064
0.99144
0.900929
0.995503
0.99692
0.883561
0.993087
0.50191
0.808548
0.891405
0.988785
0.840306
0.956705
0.989554
0.763028
0.94991
0.992185
0.979785
0.989006
0.991757
0.990624
0.986533
0.983664
0.930696
0.885343
0.908532
0.951923
0.941258
0.954691
0.944814
0.936922
0.952347
0.99268
0.990498
0.990714
0.989957
0.996567
0.992477
0.990621
0.986348
0.993857
0.997755
1
0.998244
0.892326
0.993732
0.991793
0.827673
0.980764
0.958107
0.720078
0.901324
0.995941
0.996554
0.996811
0.99385
0.999613
0.989822
0.767767
0.643038
0.889828
0.720632
0.997977
1
0.995452
0.993194
0.984807
0.998346
0.995612
0.981043
0.987467
0.688316
0.560634
0.524435
0.978206
0.670752
0.564302
0.512369
0.588911
0.992234
0.997761
0.989491
0.984855
0.986913
0.989938
0.982878
0.868103
0.990453
0.991452
0.848275
0.996708
0.518886
0.948976
0.963961
0.980977
0.923555
0.900049
0.937875
0.934929
0.839585
0.991331
0.992559
0.882582
0.967384
0.99159
0.994345
0.980118
0.914526
0.9504
0.962515
0.924397
0.908987
0.972666
0.974498
0.957649
0.910006
0.993406
0.994818
0.991573
0.991664
0.998514
0.992108
0.992934
0.994491
0.996023
0.906137
0.987134
0.986521
0.982736
0.993622
0.990852
0.62057
0.695206
0.484402
0.95768
0.516953
0.923504
0.467783
0.428518
0.433377
0.426534
0.446829
0.424309
0.427158
0.42742
0.999697
0.996631
0.996811
0.996485
0.994384
0.475069
0.588556
0.622683
0.71155
0.444309
0.500199
0.44205
0.40628
0.430038
0.407477
0.423435
0.422421
0.417937
0.422232
0.998884
0.998326
0.998153
0.991337
0.988042
0.997263
0.996996
0.98183
0.987707
0.647074
0.552792
0.515584
0.952003
0.551798
0.556439
0.507782
0.570743
0.989855
0.996362
0.988188
0.987818
0.990281
0.982201
0.993634
0.848791
0.991221
0.993837
0.824426
0.993854
0.522412
0.967097
0.961938
0.956791
0.96218
0.936667
0.980429
0.962915
0.948996
0.947477
0.986249
0.981423
0.953546
0.993263
0.990667
0.994644
0.966143
0.980145
0.97123
0.971715
0.953646
0.971377
0.976174
0.974874
0.971299
0.997079
0.988643
0.994706
0.999158
0.996875
0.989655
0.997313
0.997612
0.890713
0.99784
1
0.668371
0.449789
0.996929
0.883784
0.989781
0.996811
0.991064
0.99431
0.99989
0.996789
0.861152
0.905098
0.712578
0.998864
0.998241
0.918904
0.918163
0.439162
0.434357
0.443076
0.885168
0.556193
0.535977
0.449408
0.995939
0.996205
0.987354
0.993848
0.995546
0.446744
0.457915
0.422921
0.824246
0.477768
0.50031
0.430996
0.428952
0.423926
0.422068
0.430237
0.431891
0.422478
0.423481
0.992675
0.996233
0.996205
0.985093
0.990675
0.991579
0.996171
0.981211
0.990099
0.492139
0.535483
0.488631
0.850859
0.449111
0.518832
0.461251
0.415256
0.491523
0.434333
0.392711
0.41723
0.420287
0.987406
0.986706
0.98716
0.996817
0.986757
0.990755
0.993635
0.813494
0.996818
0.989128
0.844825
0.990563
0.469781
0.974137
0.986686
0.896651
0.972167
0.939064
0.921277
0.977587
0.930947
0.921582
0.994464
0.872923
0.794976
0.860719
0.99082
0.915925
0.983559
0.985231
0.983337
0.98164
0.97068
0.972273
0.977523
0.972817
0.976349
1
0.995217
1
0.959456
0.936349
0.996499
0.988965
0.99824
0.999507
0.932255
0.999926
1
1
1
1
0.988193
0.9989
0.990124
0.991213
0.992412
0.988216
0.982359
0.968858
0.955714
0.960531
0.971876
0.985752
0.957081
0.936939
0.810528
0.559451
1
1
0.998268
0.969504
0.991212
0.999497
0.996811
0.988454
0.996437
0.625658
0.527621
0.460409
0.833927
0.764193
0.499053
0.84442
0.443612
0.432275
0.432366
0.894436
0.791061
0.866975
0.736721
0.997558
0.993233
0.99594
0.988749
0.988253
0.987458
0.99439
0.98543
0.988374
0.434626
0.510312
0.452687
0.708679
0.432419
0.51027
0.440502
0.626556
0.485609
0.992275
0.416069
0.862457
0.588913
0.992443
0.995522
0.988127
0.990452
0.984589
0.993233
0.99155
0.857143
0.999012
0.995712
0.888663
0.996818
0.535305
0.989125
0.993308
0.973172
0.983433
0.975074
0.989334
0.986259
0.985886
0.902571
0.878877
0.977792
0.976484
0.969824
0.909193
0.920003
0.974712
0.96698
0.983218
0.975262
0.981075
0.988238
0.987234
0.976784
0.982055
0.827997
0.986713
0.934815
0.911533
0.818062
0.94923
0.911553
0.87122
0.799044
0.985523
0.970089
0.968859
0.984284
0.989663
0.982007
0.973999
0.978121
0.951415
0.922013
0.960649
0.968879
0.920075
1
1
1
1
1
1
1
0.989606
0.99543
0.982736
0.983697
0.993494
0.794166
0.494352
0.906919
0.720774
0.793151
0.456852
0.899661
1
1
1
1
1
1
1
0.989326
0.981443
0.99396
0.988862
0.992612
0.993835
0.991783
0.992968
0.994914
0.450084
0.516347
0.447872
0.597963
0.446412
0.511861
0.437248
0.443708
0.983837
0.982508
0.991177
0.992537
0.984047
0.98846
0.996817
0.905682
0.993635
0.996135
0.929517
0.993635
0.763577
0.980762
0.98613
0.985266
0.987073
0.993519
0.990214
0.987383
0.991278
0.985335
0.984237
0.976913
0.988306
0.987533
0.943988
0.985844
0.976942
0.960434
0.985138
0.985308
0.987366
0.985887
0.991282
0.98674
0.993749
0.861596
0.92504
0.85462
0.972967
0.899564
0.934485
0.865917
0.696035
0.580748
0.985678
0.993622
0.994124
0.982582
0.996811
0.993851
0.917981
0.794804
0.652972
0.681727
0.516355
0.992637
0.9854
0.993622
0.997273
0.996631
0.701474
0.44777
0.601977
0.458906
0.458505
0.985001
0.99721
0.996436
0.9973
0.996488
0.996722
0.996173
0.995106
0.99446
0.458323
0.577032
0.467257
0.680256
0.462093
0.688261
0.454244
0.458892
0.983768
0.996782
0.99003
0.996817
0.987494
0.989005
0.990342
0.965723
0.99583
0.98928
0.981591
0.98782
0.981231
0.986758
0.987245
0.994612
0.992183
0.991551
0.992523
0.988623
0.990341
0.992185
0.99489
0.987356
0.989338
0.991136
0.990937
0.996096
0.967749
0.982307
0.984212
0.987962
0.994271
0.988967
0.989905
0.983225
0.990008
0.971243
0.962136
0.956576
0.990449
0.991407
0.986922
0.979263
0.652696
0.855344
0.985486
0.990434
0.993852
0.98057
0.995712
0.989551
0.633611
0.479124
0.770352
0.692205
0.463863
0.99894
1
0.991423
0.998515
0.999961
0.466192
0.471081
0.61284
0.490835
0.527735
0.998675
0.997977
0.999967
1
0.996942
0.99994
0.9969
0.996738
0.998396
0.465254
0.825024
0.482005
0.92921
0.506169
0.933124
0.598566
0.451192
0.997761
0.995662
0.979339
0.974538
0.985094
0.982905
0.979367
0.992755
0.97915
0.983453
0.98869
0.989465
0.98453
0.989894
0.99324
0.987135
0.992183
0.990886
0.993513
0.996634
0.99131
0.994518
0.992104
0.998461
0.997456
0.996478
0.985152
0.996724
0.98983
0.995194
0.993021
0.989125
0.992808
0.999496
0.993979
0.993445
0.990954
0.995113
0.990612
0.990174
0.995014
0.989719
0.990677
0.988356
0.964649
0.978465
0.975423
0.977128
0.986462
0.986415
0.965803
0.985978
0.853132
0.60488
0.956795
0.856516
0.536713
0.996183
0.998877
0.957666
0.987458
0.997715
0.515393
0.478498
0.543111
0.514325
0.508205
0.997977
0.998256
0.99934
0.998369
0.995883
0.998256
0.999011
0.997413
0.997397
0.625615
0.957869
0.7079
0.983979
0.757482
0.970907
0.781676
0.488771
0.986777
0.997831
0.987677
0.97816
0.992025
0.992268
0.993854
0.993997
0.980246
0.99544
0.99574
0.993635
0.989569
0.995609
0.992055
0.993733
0.992571
0.994974
1
0.995473
0.99455
0.996789
0.996555
0.996811
0.99576
0.995084
0.994353
0.994841
0.993174
0.99394
0.994099
0.995918
0.993362
0.996416
0.995237
0.993356
0.991996
0.989885
0.997463
0.989896
0.994743
0.993144
0.996178
0.994433
0.98783
0.98447
0.98359
0.987355
0.988613
0.993614
0.993623
0.992308
0.868619
0.552305
0.961352
0.876534
0.542846
0.987215
0.995547
0.991314
0.983307
0.99454
0.500224
0.584992
0.69093
0.51089
0.623687
1
0.997977
1
0.995107
0.996489
0.999188
0.999044
0.995107
0.997548
0.843925
0.979539
0.828937
0.990185
0.874505
0.990119
0.854641
0.519228
0.998671
0.995872
0.996557
1
0.993844
0.996768
0.996817
0.992408
0.997147
0.999819
0.997986
0.996817
0.984667
0.995609
0.996515
0.987245
0.993035
0.9924
1
0.98874
0.99788
0.99576
0.99729
1
0.995608
0.997755
0.998048
0.997978
0.995542
0.99596
0.994608
0.994846
0.99372
0.995128
0.997394
0.994161
0.998764
0.996179
0.996013
0.993374
0.995524
0.997246
0.996145
0.995946
0.990556
0.989786
0.99462
0.993623
0.983495
0.998878
1
0.995033
0.916146
0.573017
0.988874
0.963201
0.719895
0.972522
0.992139
0.998681
0.985701
0.994192
0.498498
0.673308
0.801755
0.544113
0.724444
0.999163
0.990723
0.998978
0.999944
0.998063
0.999308
0.997758
0.991338
0.99546
0.911686
0.984798
0.865377
0.991519
0.923215
0.989784
0.880919
0.580967
1
0.994333
0.995621
1
0.998258
0.998248
0.996817
0.996398
1
0.998188
0.996669
1
0.977106
0.994564
0.990243
0.996811
0.993732
0.998214
0.996811
0.993809
0.995912
0.998062
0.997484
0.996592
0.996153
0.997368
0.995817
0.995259
0.99394
1
0.995807
0.997229
0.997462
0.99076
0.997963
0.993952
0.99769
0.998314
0.997858
0.995643
0.997266
0.995111
0.996507
0.993767
0.997831
0.988387
0.9988
1
0.994367
0.996633
0.996811
0.997517
0.987956
0.903407
0.997829
0.992132
0.961715
0.999818
0.993301
0.997911
0.998213
0.998877
0.699857
0.786129
0.949118
0.875481
0.853611
0.997838
0.999512
0.998714
0.995669
0.998184
0.996362
0.996768
0.995163
0.996216
0.95293
0.990544
0.861423
0.99823
0.95537
0.988325
0.879678
0.699649
0.993074
0.997901
0.999275
1
0.996245
0.998037
1
0.999613
0.996817
1
0.99725
1
0.979837
0.992264
1
0.993733
0.992339
0.996155
1
0.998143
0.997033
0.997365
0.998877
0.994942
0.998758
0.997407
0.997978
0.994771
0.996517
0.995055
0.995837
0.998838
0.997495
0.991936
0.997724
0.994876
0.993004
0.998764
0.995881
0.996036
0.99997
0.996741
0.999934
0.995129
0.998111
0.996152
0.996285
0.996811
0.999122
0.992453
0.996811
0.997365
0.994644
0.966996
0.989146
0.995158
0.983718
0.998243
0.999264
0.996811
0.998243
0.996631
0.943181
0.915868
0.980107
0.975712
0.9475
0.996722
1
0.999044
0.995444
0.998123
1
0.998087
0.999663
0.998819
0.966139
0.983916
0.889116
0.991019
0.974863
0.985071
0.9176
0.891762
0.994193
0.997971
0.997372
1
0.997019
0.999064
1
0.997521
1
1
0.997754
1
0.973395
0.989895
0.990173
0.993621
0.995473
0.994489
1
0.996634
0.998516
0.996275
0.9988
1
0.999303
0.998916
1
1
0.992478
0.991363
0.991884
0.992642
0.99525
0.995128
0.996225
0.995263
0.998308
0.997808
0.999044
0.997246
0.999549
0.997303
0.994628
0.996158
0.99958
1
0.994969
0.996811
0.996518
0.99822
1
0.995911
0.994825
0.982067
0.996628
0.996611
0.99362
0.997274
0.998413
0.992963
0.997334
0.998102
0.989449
0.982187
0.994952
0.988901
0.982232
0.996373
0.995955
0.998319
0.997188
0.997488
0.997384
0.999077
0.998875
0.998426
0.981634
0.986408
0.94794
0.991953
0.987189
0.99015
0.955756
0.96801
0.996642
0.997272
0.998429
1
1
0.999517
1
0.999961
1
0.998822
0.998451
0.996818
0.96773
0.991916
0.999303
1
0.996828
0.997336
0.996811
0.993885
0.998183
1
0.998916
1
0.999879
0.999032
0.99993
0.997978
0.990179
0.992965
0.996106
0.994817
0.995543
0.998656
0.996315
0.998451
0.994338
0.99674
0.998089
0.996944
0.998258
0.998371
1
0.999123
0.99972
1
0.996208
0.996812
0.998062
0.99671
0.993622
0.996486
0.995551
0.987238
0.999147
0.998003
0.990429
0.998273
0.99818
1
0.999121
0.998877
0.995604
0.986565
0.995224
0.987362
0.993302
1
1
0.998286
0.9982
0.997851
0.996662
0.998087
0.996175
1
0.993076
0.981031
0.966774
0.994857
0.987857
0.987988
0.970211
0.982284
0.997132
0.994193
0.997131
1
0.998645
0.999698
0.996817
0.993262
1
0.995651
0.987255
1
0.962677
0.997979
0.993936
1
0.998878
1
1
0.994388
0.997365
0.999122
1
1
0.999121
1
0.997979
0.995956
0.99798
0.99993
0.997514
0.994012
0.99717
0.999664
0.996525
0.997199
0.999056
1
0.999045
0.998245
0.99994
1
0.99911
1
1
1
0.99466
0.993624
0.994883
0.995471
0.997911
0.996123
0.998245
1
1
0.999092
0.996809
0.996153
0.997754
0.995711
0.999121
0.99667
0.996813
0.991213
0.994255
0.996812
0.992139
1
1
0.999077
0.9973
0.999122
0.998256
0.998087
0.998369
0.999909
0.991124
0.974525
0.975024
0.997329
0.993776
0.984947
0.978746
0.992157
1
0.998111
0.996346
1
0.997599
0.997342
0.996707
0.988227
1
0.995923
0.984698
0.993304
0.957776
0.997909
0.994703
1
0.995938
0.996458
0.996811
0.994853
0.998244
1
0.998142
1
1
0.998451
1
1
0.995891
0.996796
0.995897
0.993655
0.998081
0.995128
0.998083
0.996156
0.997201
0.998371
0.999045
1
1
0.99837
0.99733
1
0.997902
1
0.996285
0.993624
0.995579
0.99702
0.996811
0.996486
0.998941
1
0.999225
0.99549
0.996809
0.996486
0.996631
0.990432
0.995879
0.996979
0.993737
0.996632
0.993771
1
0.998219
0.996303
0.994629
0.997758
0.998369
0.999122
0.997294
0.995614
0.99775
0.99782
0.995608
0.981061
0.965644
0.995158
0.992128
0.980355
0.977786
0.994818
1
0.997971
0.997161
1
0.998877
0.996647
0.996817
0.98753
0.996927
0.995651
0.988301
0.994732
0.959176
0.996377
0.999164
1
0.998878
0.998244
1
0.99969
1
1
1
0.998131
0.99788
0.998877
0.997978
1
0.998468
0.99596
0.994549
0.998034
0.999317
1
0.998322
1
0.999382
1
0.998847
1
0.999129
1
1
0.999788
0.997971
1
0.994505
0.996812
0.997911
0.997794
1
0.997304
0.996793
1
0.998488
0.997367
1
0.997092
0.994773
1
0.996788
0.995082
0.996813
0.995355
0.99997
1
0.99485
0.997279
0.997908
0.997494
0.993645
0.99767
0.996452
0.996339
0.996681
0.997184
0.991277
0.987293
0.984969
0.996861
0.991945
0.989022
0.988073
0.99993
0.995943
0.995242
0.998339
0.988365
0.99911
0.99707
0.994622
0.986755
0.990451
0.990699
0.992214
0.99572
0.986555
0.998676
1
1
0.998066
0.99997
1
1
0.998849
1
1
1
1
1
1
0.997978
1
0.994496
0.998263
0.997974
0.998504
0.999888
0.998263
0.999702
0.999056
1
1
0.999304
1
1
1
0.99997
0.998461
0.997971
0.998878
0.99923
0.995428
1
0.993732
0.998455
1
0.99681
1
0.998245
1
0.998213
0.996902
0.99934
0.998425
0.997754
0.996703
0.994697
0.996855
0.993625
0.996244
0.99456
0.995187
0.997461
0.998144
0.997942
0.994527
0.995844
0.998369
0.999728
0.994327
0.994619
0.995988
0.997095
0.996857
0.991181
0.995591
0.995098
0.997341
0.99993
0.99541
0.985402
0.998877
0.99852
0.996817
0.984819
0.996598
0.995802
0.993995
0.989793
0.993628
1
1
1
1
0.999364
0.993621
1
0.998456
1
1
1
1
0.998955
1
1
0.997701
0.998119
0.998293
0.998957
1
1
0.998232
0.998123
0.999056
1
0.999967
1
1
1
1
1
1
0.998041
1
0.996811
0.998244
0.99702
1
0.999122
0.999123
1
0.999961
0.999153
1
1
1
0.997251
0.997546
0.997754
1
1
0.995918
1
0.997986
0.997978
0.999512
0.998088
1
0.999395
0.996542
0.999044
0.998312
0.997427
0.996157
0.996474
0.995084
0.993722
0.994722
0.991516
0.993217
0.997549
0.998881
0.998391
0.9939
0.996817
0.997754
0.996466
1
0.993378
0.99594
0.996074
0.994848
0.993744
0.982354
1
1
1
1
0.999818
1
1
0.999122
1
1
1
1
1
1
0.997978
0.999861
0.99596
1
0.999464
0.999089
0.996192
0.99976
0.99997
0.999967
1
1
1
1
1
1
1
1
1
0.999613
1
1
0.997755
1
1
0.99997
0.99681
1
0.999122
1
0.997365
0.999535
1
0.99997
0.997754
1
0.996632
0.999456
0.996812
1
0.998396
1
0.998978
1
0.998426
0.998557
0.996174
1
0.999818
0.997682
0.997325
0.995027
0.99803
0.996888
0.999027
0.996722
1
0.997411
0.99972
0.997373
0.994292
0.997135
0.997372
0.999342
0.997018
0.996708
0.996678
0.99663
0.993634
0.994888
1
1
1
1
1
1
1
1
1
1
1
1
1
1
1
1
1
0.999161
1
1
0.99944
1
0.999434
1
1
0.999967
1
1
1
0.999275
1
1
1
0.997755
1
0.998274
0.99849
1
0.996456
1
0.9967
1
1
0.996919
0.998273
0.997754
1
0.999121
0.998877
0.996813
0.998955
0.999305
1
1
1
1
1
1
0.998245
0.996031
0.999967
0.999269
0.999031
0.998414
0.999088
0.998361
0.998264
0.997346
0.99705
0.998361
0.99958
0.997971
0.998251
1
1
0.999768
0.998248
1
0.994423
0.996817
0.996497
0.997753
0.993634
1
1
1
1
0.998878
1
1
1
1
1
1
1
1
1
1
1
1
0.999721
0.999132
1
0.999967
1
1
0.999553
0.998763
1
1
1
1
1
1
1
1
1
0.998878
1
0.999122
1
0.996812
0.999122
1
1
1
1
1
0.999121
0.998877
1
0.999121
0.998877
1
0.999923
1
1
1
0.998047
0.99993
1
0.998032
1
1
1
0.998369
0.999485
0.999115
0.998541
1
1
1
1
1
1
1
0.99958
0.998218
1
0.999613
0.998973
0.993744
1
0.99989
0.999124
0.999613
1
0.996569
0.998258
0.997979
1
1
1
1
1
1
1
1
1
1
1
1
1
0.997841
1
0.999042
0.999762
0.998438
1
0.99997
1
1
1
1
1
1
1
1
1
1
1
1
1
1
1
1
1
1
1
1
1
1
0.99891
1
1
0.997667
0.996243
1
1
1
1
1
0.999442
1
0.999967
1
0.999879
0.999068
1
0.998481
0.999183
1
0.998237
1
0.999032
1
0.999118
0.998361
1
0.998531
0.99916
0.999336
0.99989
1
0.999698
1
1
0.998793
0.999124
0.998877
1
1
1
1
1
1
1
1
1
1
1
1
1
1
1
1
1
1
1
0.999161
1
1
1
1
1
1
1
1
1
1
1
1
1
1
1
1
1
0.999818
1
1
0.998425
1
1
1
1
1
0.99997
0.998877
1
0.999121
1
1
1
1
1
1
0.997977
1
0.99967
1
1
0.999128
0.99934
1
1
0.999115
1
1
1
1
1
1
1
0.997971
1
0.99855
0.996817
1
1
0.996817
0.999961
1
0.999124
1
1
1
1
1
1
1
1
1
1
1
1
1
1
1
1
1
1
0.99798
1
0.999132
1
1
1
1
1
0.999056
1
1
1
1
1
1
1
1
1
1
1
1
1
1
1
1
1
1
1
1
0.999122
1
1
1
1
1
1
1
1
1
0.996373
0.999581
0.998088
0.995163
1
1
1
0.998369
0.999122
1
1
1
1
1
1
1
1
1
1
1
0.996817
1
1
1
1
1
1
1
1
1
1
1
1
1
1
1
1
1
1
1
1
1
1
1
1
1
1
1
1
1
1
1
1
1
1
1
1
1
1
1
1
1
1
0.999265
1
1
0.999613
1
1
1
1
1
1
1
1
1
1
0.999121
1
1
1
1
1
1
1
1
0.999044
0.998369
0.999122
1
1
1
1
1
1
1
1
1
1
1
1
0.997971
1
1
1
1
1
1
1
1
1
1
1
1
1
1
1
1
1
1
1
1
1
1
1
1
1
1
1
1
1
1
1
1
1
1
1
1
1
1
1
1
1
1
1
1
1
1
1
0.999122
1
1
1
1
1
1
1
1
1
1
1
1
1
1
1
1
1
1
1
1
1
1
1
0.999128
1
1
1
1
1
1
1
1
1
1
1
1
1
1
1
1
1
1
1
1
1
1
1
1
1
1
1
1
1
1
1
1
1
1
1
1
1
1
1
1
1
1
1
1
1
1
1
1
1
1
1
1
1
1
1
1
1
1
1
1
1
1
1
1
1
1
1
1
1
1
1
1
1
1
1
1
1
1
1
0.997978
1
1
0.999122
1
1
1
1
1
1
1
1
1
1
1
1
1
1
1
1
1
1
1
1
1
1
1
1
1
1
1
1
1
1
1
1
1
1
1
1
1
1
1
1
1
1
1
1
1
1
1
1
1
1
1
1
0.999429
1
0.999671
1
1
1
1
1
1
1
1
1
1
1
1
1
1
1
1
1
1
1
1
1
1
1
1
1
1
1
1
0.999122
1
1
1
1
1
1
1
1
1
1
1
1
1
1
0.999124
1
1
1
1
1
1
1
1
1
1
1
1
1
1
1
1
1
1
1
1
1
1
1
1
1
1
1
1
1
0.999382
1
1
1
0.999675
1
1
1
1
1
1
1
1
1
1
1
1
1
1
1
1
1
1
1
1
1
1
1
1
1
1
1
1
1
1
1
1
1
1
1
1
1
1
1
1
1
1
1
1
1
1
1
1
1
1
1
1
1
1
1
1
1
1
1
1
1
1
1
1
1
1
1
1
1
1
1
1
1
1
1
1
1
1
1
1
1
1
1
1
1
1
1
1
1
1
1
1
1
1
1
1
1
1
1
1
1
1
1
1
1
1
0.996811
1
1
1
1
1
1
1
1
1
1
1
1
1
1
1
0.999122
1
1
1
1
1
1
1
1
1
1
1
1
1
1
1
1
1
1
1
1
1
1
1
1
1
1
1
1
1
1
1
1
1
1
1
1
1
1
1
1
1
0.998376
1
1
1
1
1
1
1
1
1
1
1
1
1
1
1
1
1
1
1
1
1
1
1
1
1
0.996811
1
1
1
1
1
1
1
1
1
1
1
1
1
1
1
1
1
1
1
1
1
1
1
1
1
1
1
1
1
1
1
1
1
1
1
1
1
1
1
1
1
1
1
0.998878
1
1
1
1
1
1
1
1
1
1
1
1
1
1