/*--------------------------------*- C++ -*----------------------------------*\
| =========                 |                                                 |
| \\      /  F ield         | OpenFOAM: The Open Source CFD Toolbox           |
|  \\    /   O peration     | Version:  5.x                                   |
|   \\  /    A nd           | Web:      www.OpenFOAM.org                      |
|    \\/     M anipulation  |                                                 |
\*---------------------------------------------------------------------------*/
FoamFile
{
    version     2.0;
    format      ascii;
    class       volScalarField;
    location    "2.25";
    object      Ksl;
}
// * * * * * * * * * * * * * * * * * * * * * * * * * * * * * * * * * * * * * //

dimensions      [1 -3 -1 0 0 0 0];

internalField   nonuniform List<scalar> 
10571
(
5418.91
7664.86
1415.29
4842.98
5979.26
4335.96
1140.49
1825.61
5298.62
5102.7
6592.81
419.399
190.458
363.977
4044.81
8105.12
905.845
723.598
0
206.57
7029.69
3503.02
896.094
23.6173
11585.2
11669
3973.44
1364.85
336.355
863.751
472.172
461.739
405.011
652.2
8848.51
112.193
325.788
31.7804
553.091
276.039
429.824
207.077
156.981
100.189
727.356
135.346
86.1891
578.74
9153.74
6938.92
8374.53
341.36
1031.65
268.017
362.057
643.985
582.356
431.662
3053.89
420.497
661.201
892.389
646.55
258.551
387.524
843.554
955.029
66.9488
769.434
153.221
202.189
1800.79
9294.02
11132.9
9058.79
644.792
2084.73
328.192
171.152
727.689
305.424
240.792
1572.98
330.833
554.734
963.108
247.155
324.335
349.56
617.695
1085.96
3217.85
59.9623
406.742
195.426
1092.8
10439.8
12043.8
7746.66
1643.99
548.641
497.165
159.222
615.198
146.699
169.064
2489.96
471.673
728.631
392.541
198.359
527.604
638.883
702.557
689.248
305.881
17.8841
335.031
462.91
98.6042
11374.3
12728
9307.4
4434.38
79.2787
3809.52
465.849
431.411
94.4585
153.204
16340.3
755.557
2439.7
937.865
598.253
108.1
76.4768
10582
221.694
94.2134
156.632
263.973
0
18.6195
6.58145
0
9309.87
6235.85
9788.27
3168.07
113.482
2533.33
1086.27
455.881
67.6526
65.5711
0
133.551
78.5113
61.5555
103.308
5.28737
10.9441
0
119.301
3.60377
1.36941
0
12.7521
0
8.94761
0
0
162.699
13.0417
315.464
394.404
106.211
0.150793
19.526
14.8377
20.6187
42.0555
0
92.097
0
2.64303
3.75154
4.45749
38.4208
0
26.2367
1.44188
0
0
6.73562
0
0
0
0
45.2486
4.82479
23.2772
33.8371
134.686
5.96421
6.05638
12.196
18.3018
57.0809
0
86.5529
8.76104
1.90159
2.34453
7.29984
37.5105
0
5.2383
0.746179
0
0
10.7209
5.51295
0
0
196.327
15.3653
30.9418
48.3016
150.15
5.96878
8.73252
18.2568
23.9699
33.4055
31.4411
0
0.634265
6.23224
6.37131
13.5817
0
0
0
0
0
0
0
0
102.828
13.9726
19.9925
81.9351
54.8737
5.78
5.75662
17.3379
11.3822
14.2025
25.2428
0
0.715362
1.35696
5.60728
17.0933
10.2183
0
0.829009
0
0
0
0
0
73.9583
5.76206
0.249338
50.6071
31.324
0
2.83689
8.26804
5.42836
20.4472
20.0563
5.21043
0
0
0
0
0
0
0
0
0
0
0
0
18.4897
5.66701
4.27082
4.43181
12.5027
0
2.21403
3.37993
4.76184
-3.94786e-15
28.0907
0
0
0
0.910731
6.06013
0.182967
0
0
0
0
0
0
0
5.2107
5.88894
4.02857
12.9103
2.54073
3.4317
2.59473
1.23774
-2.56874e-17
0
23.6262
5.20504
0.650623
0
0
5.18333
1.66082
0
0
0
0
0
0
0
0.267308
17.5251
5.57196
8.75676
2.87019
0.649662
0.340349
0.607991
2.28283
25.0388
19.4992
-1.56355e-15
0
0
0
0
0
0
0
0
0
0
0
0
7.178
34.1704
8.0643
14.428
5.40555
7.30215
1.73797
0
1.71378
0
0
0
1.07822
0
0
0
0
0
0
0
0
0
0
0
22.3
16.2559
22.1579
3.26369
3.50791
10.3751
2.47516
1.19901
-4.94172e-16
-4.77269e-15
9.16015
0
0.226129
0
0
5.62554
0
0
0
0
0
0
0
0
0
0
3.57874
1.24326
0
6.35557
1.74689
0
0.830628
5.4979
10.0418
0
0.496564
0
0
0
0
0
0
0
0
0
0
0
0
0
3.47828
0
0
7.90628
0.457975
0
0.84937
0
0
5.22759
0.132664
0
0
0
0
0
0
0
0
0
0
0
0
0
3.3054
0
0
0
0.445043
0
0.801445
0
0
0
0
0
0
0
0
0
0
0
0
0
0
0
0
8.85972
0
0
0
0
0
0
0
0
0
0
0
0
0
5.8246
0
0
0
0
0
0
0
0
0
0
0
0
0
0
0
0
0
0.131754
0
0
0
0
0
0
0
0
0
0
0
0
0
0
0
4.11783
0
0
0
0
0
0
0.770498
6.36254
0
0
0
0
0
0
0
0
0
0
0
0
0
0
0
0
0
0
0
0
0
0
0
0
0
0
0
0
0
0
0
0
0
0
0
0
0
0
0
0
0
0
0
0
0
0
0
0
0
0
0
0
0
0
0
0
0
0
0
0
0
0
0
0
0
0
0
0
0
0
0
0
0
0
0
0
0
0
0
0
0
0
0
0
0
0
0
0
0
0
0
0
0
0
0.0121913
0
0
0
0
0
0
0
0
0
0
0
0
0
0
0
0
0
0
0
0
0
0
0
0
0
0
0
0
0
0
0
0
0
0
0
0
0
0
0
0
0
0
0
0
0
0
0
0
0
0
0
0
0
0
0
0
0
0
0
0
0
0
0
0
0
0
0
0
0
0
0
0
0
0
0
0
0
0
0
0
0
0
0
0
0
0
0
0
0
0
0
0
0
0
0
0
0
0
0
0
0
0
0
0
0
0
0
0
0
0
0
0
0
0
0
0
0
0
0
0
0
0
0
0
0
0
0
0
0
0
0
0
0
0
0
0
0
0
0
0
0
0
0
0
0
0
0
0
0
0
0
0
0
0
0
0
0
0
0
0
0
0
0
0
0
0
0
0
0
0
0
0
0
0
0
0
0
0
0
0
0
0
0
0
0
0
0
0
0
0
0
0
0
0
0
0
0
0
0
0
0
0
0
0
0
0
0
0
0
0
0
0
0
0
0
0
0
0
0
0
0
0
0
0
0
0
0
0
0
0
0
0
0
0
0
0
0
0
0
0
0
0
0
0
0
0
0
0
0
0
0
0
0
0
0
0
0
0
0
0
0
0
0
0
0
0
0
0
0
0
0
0
0
0
0
0
0
0
0
0
0
0
0
0
0
0
0
0
0
0
0
0
0
0
0
0
0
0
0
0
0
0
0
0
0
0
0
0
0
0
0
0
0
0
0
0
0
0
0
0
0
0
0
0
0
0
0
0
0
0
0
0
0
0
0
0
0
0
0
0
0
0
0
0
0
0
0
0
0
0
0
0
0
0
0
0
0
0
0
0
0
0
0
0
0
0
0
0
0
0
0
0
0
0
0
0
0
0
0
0
0
0
0
0
0
0
0
0
0
0
0
0
0
0
0
0
0
0
0
0
0
0
0
0
0
0
0
0
0
0
0
0
0
0
0
0
0
0
0
0
0
0
0
0
0
0
0
0
0
0
0
0
0
0
0
0
0
0
0
0
0
0
0
0
0
0
0
0
0
0
0
0
0
0
0
0
0
0
0
0
0
0
0
0
0
0
0
0
0
0
0
0
0
0
0
0
0
0
0
0
0
0
0
0
0
0
0
0
0
0
0
0
0
0
0
0
0
0
0
0
0
0
0
0
0
0
0
0
0
0
0
0
0
0
0
0
0
0
0
0
0
0
0
0
0
0
0
0
0
0
0
0
0
0
0
0
0
0
0
0
0
0
0
0
0
0
0
0
0
0
0
0
0
0
0
0
0
0
0
0
0
0
0
0
0
0
0
0
0
0
0
0
0
0
0
0
0
0
0
0
0
0
0
0
0
0
0
0
0
0
0
0
0
0
0
0
0
0
0
0
0
0
0
0
0
0
0
0
0
0
0
0
0
0
0
0
0
0
0
0
0
0
0
0
0
0
0
0
0
0
0
0
0
0
0
0
0
0
0
0
0
0
0
0
0
0
0
0
0
0
0
0
0
0
0
0
0
0
0
0
0
0
0
0
0
0
0
0
0
0
0
0
0
0
0
0
0
0
0
0
0
0
0
0
0
0
0
0
0
0
0
0
0
0
0
0
0
0
0
0
0
0
0
0
0
0
0
0
0
0
0
0
0
0
0
0
0
0
0
0
0
0
0
0
0
0
0
0
0
0
0
0
0
0
0
0
0
0
0
0
0
0
0
0
0
0
0
0
0
0
0
0
0
0
0
0
0
0
0
0
0
0
0
0
0
0
0
0
0
0
0
0
0
0
0
0
0
0
0
0
0
0
0
0
0
0
0
0
0
0
0
0
0
0
0
0
0
0
0
0
0
0
0
0
0
0
0
0
0
0
0
0
0
0
0
0
0
0
0
0
0
0
0
0
0
0
0
0
0
0
0
0
0
0
0
0
0
0
0
0
0
0
0
0
0
0
0
0
0
0
0
0
0
0
0
0
0
0
0
0
0
0
0
0
0
0
0
0
0
0
0
0
0
0
0
0
0
0
0
0
0
0
0
0
0
0
0
0
0
0
0
0
0
0
0
0
0
0
0
0
0
0
0
0
0
0
0
0
0
0
0
0
0
0
0
0
0
0
0
0
0
0
0
0
0
0
0
0
0
0
0
0
0
0
0
0
0
0
0
0
0
0
0
0
0
0
0
0
0
0
0
0
0
0
0
0
0
0
0
0
0
0
0
0
0
0
0
0
0
0
0
0
0
0
0
0
0
0
0
0
0
0
0
0
0
0
0
0
0
0
0
0
0
0
0
0
0
0
0
0
0
0
0
0
0
0
0
0
0
0
0
0
0
0
0
0
0
0
0
0
0
0
0
0
0
0
0
0
0
0
0
0
0
0
0
0
0
0
0
0
0
0
0
0
0
0
0
0
0
0
0
0
0
0
0
0
0
0
0
0
0
0
0
0
0
0
0
0
0
0
0
0
0
0
0
0
0
0
0
0
0
0
0
0
0
0
0
0
0
0
0
0
0
0
0
0
0
0
0
0
0
0
0
0
0
0
0
0
0
0
0
0
0
0
0
0
0
0
0
0
0
0
0
0
0
0
0
0
0
0
0
0
0
0
0
0
0
0
0
0
0
0
0
0
0
0
0
0
0
0
0
0
0
0
0
0
0
0
0
0
0
0
0
0
0
0
0
0
0
0
0
0
0
0
0
0
3796.79
2392.48
1342.7
589.742
2593.97
2309.31
5149.56
4316.52
7878.01
5242.84
5002.5
5427.6
3816.54
1271.61
508.768
1826.41
2805.54
3297.6
5128.5
6470.31
5117.86
3701.94
3010.75
1610.24
3058
5099.47
8506.51
2712.97
3428.54
5778.73
3109.74
1712.61
2214.68
2351.35
1427.14
1551.09
1404.8
4784.66
4746.92
3577.29
3956.79
947.756
1273.75
833.776
58.3519
3606.84
848.499
1193.6
3423.45
4312.69
6602.1
2877.89
1252.91
6322.65
5519.6
977.726
1330.5
3135.64
439.657
989.252
3704.59
175.829
2740.41
2662.16
360.62
3508.58
1668.75
1127.57
1059.76
1307.95
6881.51
4878.06
3374.81
5660.37
5390.59
2959.78
1771.78
4163.78
4967.86
399.793
719.031
3234.32
956.019
3637.47
5288.67
1130.66
4064.74
4686.18
6304.21
4323.65
5814.36
4297.35
4897.82
3541.96
5261.57
1174.33
4172.79
7778.47
5363.44
5476.2
5373.74
11103
9152.74
10052.9
7396.79
7915.1
10572.1
10755.6
7168.66
6541.9
4649.52
11906.2
12641.5
2915.3
6515.64
1378.35
11076.7
7320.33
9584.56
3375.02
4754.39
5189.11
3503.79
442.613
319.635
366.044
118.474
2782.37
402.443
9464.51
8831.35
3827.51
8491.46
10032.1
6131.94
8075.53
6319.91
740.265
1158.3
869.432
3594.74
3226.24
10040.5
3905.99
3290.2
5424.9
7783.88
1018.06
815.868
1111.48
3760.93
2991.47
955.9
3166.61
3320.96
627.595
429.62
1300.57
411.937
3079.88
51.7301
831.68
66.4941
465.275
44.0483
247.206
1341.58
3625.5
191.361
1067.22
541.112
236.166
169.442
106.493
1154.54
427.955
143.411
741.299
148.664
236.376
9576.39
9782.12
11685.5
10140.7
10015.1
10812.6
9524.79
7629.29
9092.23
6617.71
10413
5638.63
4979.53
5249.54
7707.91
8973.51
3384.95
9493.49
7313.84
2941.4
9449.98
9520.65
1995.95
2125.83
390.134
253.165
83.7342
846.04
1088.11
314.907
124.131
471.06
793.825
3939.33
9842.01
3940.82
1909.96
7877.33
1260.59
330.397
190.138
494.114
226.018
202.37
3727.95
4356.37
8326.82
1262.28
1081.75
117.204
218.141
249.971
87.3452
170.244
2344.62
584.012
433.661
378.685
363.657
503.351
837.145
322.541
397
638.438
30.0583
101.387
52.3076
1274.24
198.31
480.47
904.89
220.631
180.169
130.154
64.4986
205.091
90.1856
103.461
399.284
86.5101
138.546
440.419
138.488
1608.25
11267.9
10689.6
9066.7
10064
8145.19
10334.9
9856.5
9092.16
4799.46
4240.18
8483.78
6644.01
6187.75
8021.33
8747.9
3054.59
3114.61
8960.53
825.99
617.393
8748.68
9344.85
889.217
392.691
1956.41
321.246
499.206
1403.75
2923.23
234.674
737.06
1266.45
587.604
1884.83
4685.51
921.023
2032.56
5013.91
886.285
159.563
91.7352
272.711
197.54
83.0432
572.813
665.209
2255.87
675.706
551.484
27.4771
108.665
225.637
50.1176
118.671
350.379
281.898
999.301
285.76
318.049
341.422
331.128
366.404
248.392
2126.4
1349.74
4121.97
2843.08
1041.1
3011.11
2258.29
202.868
159.027
226.671
180.231
142.779
216.946
171.595
379.684
275.517
179.447
146.57
159.161
330.05
898.513
12660.5
12640.3
9413.08
10886
10787
10332.3
11250.3
11979.7
8250.35
7970.87
10817.8
9372.54
9202.73
8779.06
11069.2
4862.09
7949.04
10799.2
1796.1
432.375
11630.3
11120.7
3651.12
710.043
2606.38
359.9
361.428
2192.51
785.173
383.638
384.586
344.223
319.136
2067.24
4081.94
793.601
2486.64
3613.58
931.186
201.413
66.8281
195.825
321.521
88.0027
692.235
583.601
1360.97
820.189
641.059
0
115.615
360.202
32.9231
63.4204
403.087
423.987
152.224
237.806
425.913
280.068
952.702
257.99
1139.55
423.793
794.287
317.491
214.163
247.044
428.885
116.319
53.1297
471.537
636.704
223.429
357.371
724.537
446.985
684.05
433.534
237.367
436.843
878.772
920.159
894.493
13025.4
13750.9
12012.9
11201.6
10826.9
11576
11173.3
10581.9
9355.35
9800.19
11044.5
9097.49
6999.3
10243.3
1561.21
10455.6
11092.6
11359.2
8307.49
1437.06
12727.6
11368.9
10226.1
4857.9
363.543
238.049
261.887
100.622
198.662
148.848
257.053
226.458
274.462
5202.64
5041.04
1812.51
8364.29
7502.15
4423.97
387.565
585.096
199.465
421.868
859.97
1055.05
1063.25
4244.47
2737.39
1958.71
298.325
130.944
537.444
824.448
151.974
986.609
942.054
1085.47
384.03
283.525
1528.07
467.64
494.463
141.305
128.636
259.844
73.8782
445.11
112.351
94.1894
0
9.11214
203.504
62.5516
646.242
442.186
87.9334
147.916
224.318
262.833
372.848
90.4953
78.1892
74.7829
1.40014
12406.2
12527.1
13040.4
11413
10562
11447.6
10669.2
10132.4
8427.07
2670.3
10866.3
7473.88
1057.09
143.711
117.234
12797.1
5893.99
11511.2
10373.3
8946
12677.7
11553.5
10179.5
11019.5
279.708
57.9626
187.592
98.7365
248.88
134.135
139.37
219.961
209.239
9848.28
6844.26
7870.3
4905.24
789.091
2160.47
1946.01
136.906
2473.53
113.072
109.166
2.74014
35.5198
50029.5
9967.11
12037
1065.33
9971.73
1268.95
10077.4
1850.61
478.015
206.93
62.4428
142.457
2970.64
133.586
2471.37
0
26.6037
9.76315
72.2424
12010.9
26791
10004.5
1176.74
10328.6
1111.03
14710.2
303.552
215.625
130.674
152.192
51.6528
90.1441
40.7277
63.2829
72.4279
11.6691
14.951
0
12.1951
0
5.87686
0
15.6695
3.4137
55.6368
7.14788
0
17.5521
6.97467
24.2578
13.475
0
1.76342
13.3879
0
0
12885.7
12342.4
12919.9
10805.1
9418.68
8946.97
10015.7
6505.37
4253.52
477.511
2204.34
757.261
187.103
77.1245
12.4608
194.304
60.9784
10572.9
1394.41
5577.41
370.01
2581.12
73.2844
104.109
239.432
204.473
188.96
92.5043
164.989
36.2609
86.1854
243.404
0
254.95
-4.65793e-15
0
0
0
0
281.127
134.069
65.2635
41.1825
89.1606
35.943
21.8781
0
4.58361
80.0753
30.66
33.3335
12.9892
75.1817
0
59.2184
0
0
0
0
53.3638
72.2311
56.48
17.2475
18.5058
9.09576
11.7457
0.111913
10.9019
4.03312
15.8368
4.39923
67.7236
0
120.799
0
0
0
0
192.892
117.541
19.1489
108.925
79.2639
43.3275
22.4363
156.107
115.314
3.19227
0
0
0
3.301
0
0
0
10.9633
0
0
0
0
47.4044
51.5099
0
0
0
0
0
0
0
0
9.02445
0
0
719.513
11.3817
455.911
2465.93
1151.97
53.9621
59.6426
64.8355
226.686
139.572
80.4088
109.424
83.4507
108.415
63.6134
75.3981
83.3843
104.63
25.2182
4.13424
10.021
13.2272
16.4951
9.89983
206.183
31.0218
95.9462
83.7556
211.703
32.8418
80.382
157.278
0.527786
207.66
0
0
0
0
0
94.3968
92.3355
59.4965
60.8271
46.53
31.652
38.2198
18.0741
38.189
69.1653
8.92937
39.727
1.66829
0
0
0
0
0
0
0
18.1062
19.0863
60.4197
6.3305
24.3465
0
8.86307
0
30.3101
15.6314
7.06677
0.460706
0
0
0
0
0
0
0
27.9537
32.3269
10.5658
102.771
18.3636
4.01762
0
29.0521
19.1166
0
0
0
0
0
0
0
0
0
0
0
0
0
0
17.574
0
0
0.1431
0
0
0
0
0
0
0
0
37.457
18.2506
101.041
22.1004
69.755
97.425
29.2545
57.6504
61.0021
71.5109
186.503
63.9343
94.5062
161.235
183.975
42.4247
16.2619
10.4399
12.3639
10.1022
16.8191
16.2592
4.51855
28.4804
242.801
20.454
53.6605
110.247
214.496
43.7211
88.2765
177.311
73.5281
52.7328
133.444
19.5617
26.5637
67.3248
27.9144
6.51141
18.7605
14.1396
39.4211
1.39006
35.5799
15.9245
0
0
0
0
0
0
0
16.7055
0.131995
30.8354
24.915
17.1559
4.88155
23.5682
0
5.79295
0
7.4275
0
0
0
0
0
0
0
0
11.2039
11.2436
0
55.4603
12.0295
-1.11995e-15
0
11.7696
0.691655
0
0
0
6.69795
0
0
12.4343
4.95934
31.8626
10.3013
0
0
0
0
0
0
0
0
0
0
0
69.2073
44.1345
98.9773
62.1763
67.3532
84.1676
38.1382
34.1229
104.738
157.317
196.044
130.059
151.31
230.855
211.435
15.178
6.12808
12.9115
4.76669
10.9243
6.79495
12.8849
11.627
3.35295
186.833
51.4371
95.4768
112.761
64.7008
67.2114
74.9312
99.3876
67.2556
22.7088
64.0136
29.3325
12.6039
54.2369
27.4185
7.44658
0
23.3493
1.83133
24.0083
25.8731
8.40985
77.8137
7.92909
8.6588
0
8.71423
13.0875
0
0
11.1402
11.018
0
0
0
5.1871
0
0
6.53698
0
0
0
0
0
0
0
0
0
0
0
0
0
0
0
0
0
0
0
0
0
10.4689
10.036
56.0168
28.3761
63.6533
0.426156
22.0121
32.3502
118.949
108.818
41.1545
63.2772
87.0388
75.2702
76.1816
15.0237
13.2426
14.2981
6.02031
4.58968
12.7879
13.5522
10.1158
8.47654
57.783
57.8468
28.9145
63.9281
13.755
50.2964
12.0882
16.328
8.12341
8.93247
23.8416
6.79794
0.158375
67.0768
15.2648
13.6475
0
7.00585
5.97257
0
19.9045
6.54923
51.7595
18.0261
12.9141
18.3667
0
0
0
0
0
20.4742
0
0
0
5.04997
0
0
-3.10949e-16
0
0
0
0
0
6.77065
0
0
0
17.588
0
0
0
0
0
0
0
0
0
0
0
-8.75031e-16
13.5966
17.6735
21.3176
21.4772
9.53594
2.24928
8.60715
38.0899
46.8284
7.75018
16.2454
19.7749
12.7147
19.7252
13.4846
6.38337
9.76491
5.78496
9.7134
9.08931
10.4067
8.76577
13.0552
1.88222
24.0056
3.91432
3.46111
1.32054
17.0949
0
7.4732
0
13.8927
39.3432
22.9183
16.8323
52.0064
17.1328
6.28182
0
11.6037
6.50321
0
16.6383
9.20814
39.5809
3.6764
4.59339
0
0
5.62875
0
0
9.56409
5.68932
0
0
0
10.7328
0
0
0
5.2498
-2.04765e-15
4.04137
0
7.27552
0
-1.31598e-15
0
0
0
0
0
0
0
0
0
0
0
0
0
0
5.0587
16.7913
8.4419
1.69724
11.6336
16.0837
5.13064
4.44348
20.2854
9.41093
7.13519
15.6669
0.879363
1.74169
17.7992
6.50821
12.9298
0.372765
0.100407
0
5.78837
0.137888
5.86341
4.19192
6.98137
9.70564
9.79713
3.28194
0
7.06192
6.15104
0
0
15.6902
5.55938
15.5029
14.985
18.4169
10.9954
-3.67359e-15
0
5.80854
8.40835
0
7.67788
7.72879
7.58134
9.72222
5.72302
0
0
5.94666
18.6168
0
0
0
0
0
0
4.32982
0
0
0
0
0
0
0
0
0
0
0
0
0
0
0
0
0
0
0
0
0
0
0
0
0.234202
6.46834
7.49044
5.81411
24.8751
-4.41289e-15
3.44079
20.879
4.45689
3.53894
7.68181
22.3725
5.94947
5.19777
0
18.6775
13.4104
6.15632
5.6747
0
5.18725
2.23081
2.80649
0
0
11.9944
3.79927
8.6884
0
5.14519
3.09871
0
0
20.785
50.2663
28.2737
12.0831
36.0769
25.6443
0
0
0
7.35835
0
7.31937
-1.29567e-15
-4.96412e-15
0.244321
9.14484
18.4618
8.21185
0
18.7761
0
0
0
0
0
0
0
0
0
0
0
0
0
0
0
0
0
0
0
0
0
0
0
0
0
0
0
0
0
0
0
6.26233
0.785474
0
12.537
37.0887
21.1971
18.9677
12.5056
10.2792
2.60813
10.6978
10.9425
3.40671
0
5.6119
51.1206
16.2874
5.64386
0.0578215
3.20751
5.85311
12.0384
7.48566
3.22212
0
0.368284
1.92972
3.34577
0
10.0059
9.06587
5.22641
7.66092
10.7273
14.277
6.57701
31.2923
31.388
8.47768
3.39206
0
-4.24682e-15
0
0
10.8491
0
0
14.7268
6.42798
-5.77517e-15
0
11.6041
0
0
7.72579
0
0
0
0
9.34989
0
0
0
0
0
0
0
0
0
0
0
0
0
0
0
0
0
0
0
0
0
0
0
0
18.268
33.0519
12.2097
19.6814
5.46338
49.7958
8.36953
17.6447
6.33629
0.729253
17.7883
-8.00049e-16
4.02889
0
0
44.8631
34.8346
22.7872
21.3036
6.80277
33.9858
36.7501
17.4701
6.09418
0
0.0559981
7.87325
-8.22818e-17
0
9.72699
1.26769
0
0
15.4058
8.04149
4.5631
6.08916
0
4.19247
0
0
10.6793
0
0
3.59776
12.6879
0
3.68098
-7.03502e-16
0
0
0
18.6678
0
0
0
6.19041
0
0
0
0
0
0
0
0
0
0
0
0
0
0
0
0
0
0
0
0
0
0
0
0
0
0
0
6.80939
6.61497
21.8761
10.7273
2.54032
0
11.9415
5.05859
3.88935
0
0
2.23641
0
20.3527
0.308667
36.4894
9.98276
27.7499
13.9839
5.64005
16.1706
21.7183
11.2653
13.2306
6.22087
0
9.92662
2.32728
0
0
-1.0501e-15
0.2673
8.20326
8.73734
9.48645
2.11483
-8.69819e-17
0
2.57292
0
0
10.941
0
0
0
4.85176
10.3525
6.76395
0
0
0
0
0
0
0
0
0
0
0
0
0
0
0
0
0
0
0
0
0
0
0
0
0
0
0
0
0
0
0
0
0
0
0
0
0
14.5884
0
3.56959
11.4636
0
5.74266
2.35909
2.07339
0
0
0
0
2.93043
6.41852
2.46585
8.59949
1.95866
10.1325
14.9247
0
6.30993
0.568255
4.94414
0
0
0
0
0
0
0
0
0
3.22618
0
0
0
0
0
5.26884
0
0
0
0
0
0
0
0
0
0
0
0
0
0
0
0
0
0
0
4.72182
0
0
0
0
0
0
0
0
0
0
0
0
0
0
0
0
0
0
0
0
0
0
0
0
0
5.66718
0
6.80455
1.36302
0
0.708508
0
1.98865
0
0
0
0
-1.86068e-15
0
5.11735
5.29428
2.82581
4.97326
0.441877
0
2.79803
0
3.03553
0
0
0
0
0
0
3.89202
0
-3.06931e-16
-1.86353e-16
0
2.98759
3.16681
0
0
0
0
0
0
0
0
0
0
0
0
0
0
0
0
0
0
0
0
0
0
0
0
0
0
0
0
0
0
0
0
0
0
0
0
0
0
0
0
0
0
0
0
0
0
0
0
5.49878
0
0
6.18879
0
0
1.08245
0
0
0
0
0
0
0
0
0
5.34797
2.54357
3.02631
0
2.60245
0
5.87271
0
0
0
0
0
0
0
0
0
0
0
0
0
0
0
0
0
0
0
0
0
0
0
3.568
4.97123
0
0
0
0
0
0
0
0
0
0
0
0
0
0
0
0
0
0
0
0
0
0
0
0
0
0
0
0
0
0
0
0
0
0
0
0
0
0
0
0
0
0
0
0
0
0
0
0
0
0
4.56949
0
5.07369
4.60109
0
8.85453
0
0
2.79005
0
0
0
0
0
0
0
0
0.495484
0
0
0
0
0
0
10.3507
18.7682
0
10.4024
0
0
0
0
0
0
0
0
0
0
0
0
0
0
0
0
0
0
0
0
0
0
0
0
0
0
0
0
0
0
0
0
0
0
0
0
0
0
0
0
0
0
0
0
0
0
0
0
0
0
0
0
0
0
0
0
1.73332
0
0
3.72107
0
4.26798
0
2.1055
0
0
0
0
0
0
0
4.06761
9.0124
10.241
0
0
0
0
0
0
0
0
0
0
0
0
0
0
0
0
0
0
0
0
0
0
0
0
0
0
0
0
0
0
0
0
0
0
0
0
0
0
0
0
0
0
0
0
0
0
0
0
0
0
0
0
0
0
0
0
0
0
0
0
0
0
0
0
0
0
0
0
0
0
0
0
0
0
0
0
0
-1.25768e-16
0
0
0
0
0
0
0
0
0
0
0
0
0
0
0
0
0
0
0
0
0
0
0
0
0
0
0
0
0
0
0
0
0
0
0
0
0
0
0
0
0
0
0
0
0
0
0
0
0
0
0
0
0
0
0
0
0
0
0
0
0
0
0
0
0
0
0
0
0
0
0
0
0
0
0
0
0
0
0
0
0
0
0
0
0
0
0
4.28939
0
0
0
0
0
0
0
0
0
0
6.34499
0
0
0
0
0
0
0
0
0
0
0
0
0
0
0
0
0
0
0
0
0
0
0
0
0
0
0
0
0
0
0
0
0
0
0
0
0
0
0
0
0
0
0
0
0
0
0
0
0
0
0
0
0
0
0
0
0
0
0
0
0
0
0
0
0
0
0
0
0
0
0
0
0
0
0
0
0
0
0
0
0
0
0
6.39938
0
0
0
0
0
0
0
0
0
0
0
0
0
0
0
0
0
0
0
0
0
0
0
0
0
0
0
0
0
0
0
0
0
0
0
0
0
0
0
0
0
0
0
0
0
0
0
0
0
0
0
4.17763
0
0
0
0
0
0
0
0
0
0
0
0
0
0
0
0
0
0
0
0
0
9.73006
0
0
0
0
0
0
0
0
0
6.48092
0
20.406
0
0
0
0
0
0
0
0
0
0
0
0
0
0
0
0
0
0
0
0
0
0
0
0
0
0
0
0
0
0
0
0
0
0
0
0
0
0
0
0
0
0
0
0
0
0
0
0
0
0
0
0
0
0
0
0
0
0
0
0
0
0
0
0
0
0
0
0
0
0
8.38953
0
0
0
0
0
0
0
0
0
-1.1924e-14
6.53432
0
20.3792
0
0
0
0
0
0
0
0
0
0
0
0
0
0
0
0
0
0
0
0
0
0
0
0
0
0
0
0
0
0
0
0
0
0
0
0
0
0
0
0
0
0
0
0
0
0
0
0
0
0
0
0
0
0
8.08906
0
0
0
0
0
0
0
0
0
0
0
0
0
0
0
0
0
0
0
0
0
0
0
0
0
0
6.54363
0
0
0
0
0
0
0
0
0
0
0
0
0
0
0
0
0
0
0
0
0
0
0
0
0
0
0
0
0
0
0
0
0
0
0
0
0
0
0
0
0
0
0
0
0
0
0
0
0
0
0
0
0
0
0
0
0
0
0
0
0
0
0
0
0
0
0
0
0
0
0
0
0
10.0679
0
0
0
0
0
0
0
0
0
0
0
20.3081
0
0
0
0
0
0
0
0
0
0
0
0
0
0
0
0
0
0
0
0
0
0
0
0
0
0
0
0
0
0
0
0
0
0
0
0
0
0
0
0
0
0
0
0
0
0
0
0
0
0
0
0
0
0
0
0
0
0
0
0
0
0
0
0
0
0
0
0
0
0
0
0
0
0
0
0
0
0
0
0
0
0
0
0
0
0
0
0
0
0
0
0
0
0
0
0
0
0
0
0
0
0
0
0
0
0
0
0
0
0
0
0
0
0
0
0
0
0
0
0
0
0
0
0
0
0
0
0
0
0
0
0
0
0
0
0
0
0
0
0
0
0
0
0
0
0
0
0
0
0
0
0
0
0
0
0
0
0
0
0
0
0
0
0
0
0
0
0
0
0
0
0
0
0
0
0
0
0
0
0
0
0
0
0
0
0
0
0
0
0
0
0
0
0
0
0
0
0
0
0
0
0
0
0
0
0
0
0
0
0
0
0
0
0
0
0
0
0
0
0
0
0
0
0
0
0
0
0
0
0
0
0
0
0
0
0
0
0
0
0
0
0
0
0
0
0
0
0
0
0
0
0
0
0
0
0
0
0
0
0
0
0
0
0
0
0
0
0
0
0
0
0
0
0
0
0
0
0
0
0
0
0
0
0
0
0
0
0
0
0
0
0
0
0
0
0
0
0
0
0
0
0
0
0
0
0
0
0
0
0
0
0
0
0
0
0
0
0
0
0
0
0
0
0
0
0
0
0
0
0
0
0
0
0
0
0
0
0
0
0
0
0
0
0
0
0
0
0
0
0
0
0
0
0
0
0
0
0
0
0
0
0
0
0
0
0
0
0
0
0
0
0
0
0
0
0
0
0
0
0
0
0
0
0
0
0
0
0
0
0
0
0
0
0
0
0
0
0
0
0
0
0
0
0
0
0
0
0
0
0
0
0
0
0
0
0
0
0
0
0
0
0
0
0
0
0
0
0
0
0
0
0
0
0
0
0
0
0
0
0
0
0
0
0
0
0
0
0
0
0
0
0
0
0
0
0
0
0
0
0
0
0
0
0
0
0
0
0
0
0
0
0
0
0
0
0
0
0
0
0
0
0
0
0
0
0
0
0
0
0
0
0
0
0
0
0
0
0
0
0
0
0
0
0
0
0
0
0
0
0
0
0
0
0
0
0
0
0
0
0
0
0
0
0
0
0
0
0
0
0
0
0
0
0
0
0
0
0
0
0
0
0
0
0
0
0
0
0
0
0
0
0
0
0
0
0
0
0
0
0
0
0
0
0
0
0
0
0
0
0
0
0
0
0
0
0
0
0
0
0
0
0
0
0
0
0
0
0
0
0
0
0
0
0
0
0
0
0
0
0
0
0
0
0
0
0
0
0
0
0
0
0
0
0
0
0
0
0
0
0
0
0
0
0
0
0
0
0
0
0
0
0
0
0
0
0
0
0
0
0
0
0
0
0
0
0
0
0
0
0
0
0
0
0
0
0
0
0
0
0
0
0
0
0
0
0
0
0
0
0
0
0
0
0
0
0
0
0
0
0
0
0
0
0
0
0
0
0
0
0
0
0
0
0
0
0
0
0
0
0
0
0
0
0
0
0
0
0
0
0
0
0
0
0
0
0
0
0
0
0
0
0
0
0
0
0
0
0
0
0
0
0
0
0
0
0
0
0
0
0
0
0
0
0
0
0
0
0
0
0
0
0
0
0
0
0
0
0
0
0
0
0
0
0
0
0
0
0
0
0
0
0
0
0
0
0
0
0
0
0
0
0
0
0
0
0
0
0
0
0
0
0
0
0
0
0
0
0
0
0
0
0
0
0
0
0
0
0
0
0
0
0
0
0
0
0
0
0
0
0
0
0
0
0
0
0
0
0
0
0
0
0
0
0
0
0
0
0
0
0
0
0
0
0
0
0
0
0
0
0
0
0
0
0
0
0
0
0
0
0
0
0
0
0
0
0
0
0
0
0
0
0
0
0
0
0
0
0
0
0
0
0
0
0
0
0
0
0
0
0
0
0
0
0
0
0
0
0
0
0
0
0
0
0
0
0
0
0
0
0
0
0
0
0
0
0
0
0
0
0
0
0
0
0
0
0
0
0
0
0
0
0
0
0
0
0
0
0
0
0
0
0
0
0
0
0
0
0
0
0
0
0
0
0
0
0
0
0
0
0
0
0
0
0
0
0
0
0
0
0
0
0
0
0
0
0
0
0
0
0
0
0
0
0
0
0
0
0
0
0
0
0
0
0
0
0
0
0
0
0
0
0
0
0
0
0
0
0
0
0
0
0
0
0
0
0
0
0
0
0
0
0
0
0
0
0
0
0
0
0
0
0
0
0
0
0
0
0
0
0
0
0
0
0
0
0
0
0
0
0
0
0
0
0
0
0
0
0
0
0
0
0
0
0
0
0
0
0
0
0
0
0
0
0
0
0
0
0
0
0
0
0
0
0
0
0
0
0
0
0
0
0
0
0
0
0
0
0
0
0
0
0
0
0
0
0
0
0
0
0
0
0
0
0
0
0
0
0
0
0
0
0
0
0
0
0
0
0
0
0
0
0
0
0
0
0
0
0
0
0
0
0
0
0
0
0
0
0
0
0
0
0
0
0
0
0
0
0
0
0
0
0
0
0
0
0
0
0
0
0
0
0
0
0
0
0
0
0
0
0
0
0
0
0
0
0
0
0
0
0
0
0
0
0
0
0
0
0
0
0
0
0
0
0
0
0
0
0
0
0
0
0
0
0
0
0
0
0
0
0
0
0
0
0
0
0
0
0
0
0
0
0
0
0
0
0
0
0
0
0
0
0
0
0
0
0
0
0
0
0
0
0
0
0
0
0
0
0
0
0
0
0
0
0
0
0
0
0
0
0
0
0
0
0
0
0
0
0
0
0
0
0
0
0
0
0
0
0
0
0
0
0
0
0
0
0
0
0
0
0
0
0
0
0
0
0
0
0
0
0
0
0
0
0
0
0
0
0
0
0
0
0
0
0
0
0
0
0
0
0
0
0
0
0
0
0
0
0
0
0
0
0
0
0
0
0
0
0
0
0
0
0
0
0
0
0
0
0
0
0
0
0
0
0
0
0
0
0
0
0
0
0
0
0
0
0
0
0
0
0
0
0
0
0
0
0
0
0
0
0
0
0
0
0
0
0
0
0
0
0
0
0
0
0
0
0
0
0
0
0
0
0
0
0
0
0
0
0
0
0
0
0
0
0
0
0
0
0
0
0
0
0
0
0
0
0
0
0
0
0
0
0
0
0
0
0
0
0
0
0
0
0
0
0
0
0
0
0
0
0
0
0
0
0
0
0
0
0
0
0
0
0
0
0
0
0
0
0
0
0
0
0
0
0
0
0
0
0
0
0
0
0
0
0
0
0
0
0
0
0
0
0
0
0
0
0
0
0
0
0
0
0
0
0
0
0
0
0
0
0
0
0
0
0
0
0
0
0
0
0
0
0
0
0
0
0
0
0
0
0
0
0
0
0
0
0
0
0
0
0
0
0
0
0
0
0
0
0
0
0
0
0
0
0
0
0
0
0
0
0
0
0
0
0
0
0
0
0
0
0
0
0
0
0
0
0
0
0
0
0
0
0
0
0
0
0
0
0
0
0
0
0
0
0
0
0
0
0
0
0
0
0
0
0
0
0
0
0
0
0
0
0
0
0
0
0
0
0
0
0
0
0
0
0
0
0
0
0
0
0
0
0
0
0
0
0
0
0
0
0
0
0
0
0
0
0
0
0
0
0
0
0
0
0
0
0
0
0
0
0
0
0
0
0
0
0
0
0
0
0
0
0
0
0
0
0
0
0
0
0
0
0
0
0
0
0
0
0
0
0
0
0
0
0
0
0
0
0
0
0
0
0
0
0
0
0
0
0
0
0
0
0
0
0
0
0
0
0
0
0
0
0
0
0
0
0
0
0
0
0
0
0
0
0
0
0
0
0
0
0
0
0
0
0
0
0
0
0
0
0
0
0
0
0
0
0
0
0
0
0
0
0
0
0
0
0
0
0
0
0
0
0
0
0
0
0
0
0
0
0
0
0
0
0
0
0
0
0
0
0
0
0
0
0
0
0
0
0
0
0
0
0
0
0
0
0
0
0
0
0
0
0
0
0
0
0
0
0
0
0
0
0
0
0
0
0
0
0
0
0
0
0
0
0
0
0
0
0
0
0
0
0
0
0
0
0
0
0
0
0
0
0
0
0
0
0
0
0
0
0
0
0
0
0
0
0
0
0
0
0
0
0
0
0
0
0
0
0
0
0
0
0
0
0
0
0
0
0
0
0
0
0
0
0
0
0
0
0
0
0
0
0
0
0
0
0
0
0
0
0
0
0
0
0
0
0
0
0
0
0
0
0
0
0
0
0
0
0
0
0
0
0
0
0
0
0
0
0
0
0
0
0
0
0
0
0
0
0
0
0
0
0
0
0
0
0
0
0
0
0
0
0
0
0
0
0
0
0
0
0
0
0
0
0
0
0
0
0
0
0
0
0
0
0
0
0
0
0
0
0
0
0
0
0
0
0
0
0
0
0
0
0
0
0
0
0
0
0
0
0
0
0
0
0
0
0
0
0
0
0
0
0
0
0
0
0
0
0
0
0
0
0
0
0
0
0
0
0
0
0
0
0
0
0
0
0
0
0
0
0
0
0
0
0
0
0
0
0
0
0
0
0
0
0
0
0
0
0
0
0
0
0
0
0
0
0
0
0
0
0
0
0
0
0
0
0
0
0
0
0
0
0
0
0
0
0
0
0
0
0
0
0
0
0
0
0
0
0
0
0
0
0
0
0
0
0
0
0
0
0
0
0
0
0
0
0
0
0
0
0
0
0
0
0
0
0
0
0
0
0
0
0
0
0
0
0
0
0
0
0
0
0
0
0
0
0
0
0
0
0
0
0
0
0
0
0
0
0
0
0
0
0
0
0
0
0
0
0
0
0
0
0
0
0
0
0
0
0
0
0
0
0
0
0
0
0
0
0
0
0
0
0
0
0
0
0
0
0
0
0
0
0
0
0
0
0
0
0
0
0
0
0
0
0
0
0
0
0
0
0
0
0
0
0
0
0
0
0
0
0
0
0
0
0
0
0
0
0
0
0
0
0
0
0
0
0
0
0
0
0
0
0
0
0
0
0
0
0
0
0
0
0
0
0
0
0
0
0
0
0
0
0
0
0
0
0
0
0
0
0
0
0
0
0
0
0
0
0
0
0
0
0
0
0
0
0
0
0
0
0
0
0
0
0
0
0
0
0
0
0
0
0
0
0
0
0
0
0
0
0
0
0
0
0
0
0
0
0
0
0
0
0
0
0
0
0
0
0
0
0
0
0
0
0
0
0
0
0
0
0
0
0
0
0
0
0
0
0
0
0
0
0
0
0
0
0
0
0
0
0
0
0
0
0
0
0
0
0
0
0
0
0
0
0
0
0
0
0
0
0
0
0
0
0
0
0
0
0
0
0
0
0
0
0
0
0
0
0
0
0
0
0
0
0
0
0
0
0
0
0
0
0
0
0
0
0
0
0
0
0
0
0
0
0
0
0
0
0
0
0
0
0
0
0
0
0
0
0
0
0
0
0
0
0
0
0
0
0
0
0
0
0
0
0
0
0
0
0
0
0
0
0
0
0
0
0
0
0
0
0
0
0
0
0
0
0
0
0
0
0
0
0
0
0
0
0
0
0
0
0
0
0
0
0
0
0
0
0
0
0
0
0
0
0
0
0
0
0
0
0
0
0
0
0
0
0
0
0
0
0
0
0
0
0
0
0
0
0
0
0
0
0
0
0
0
0
0
0
0
0
0
0
0
0
0
0
0
0
0
0
0
0
0
0
0
0
0
0
0
0
0
0
0
0
0
0
0
0
0
0
0
0
0
0
0
0
0
0
0
0
0
0
0
0
0
0
0
0
0
0
0
0
0
0
0
0
0
0
0
0
0
0
0
0
0
0
0
0
0
0
0
0
0
0
0
0
0
0
0
0
0
0
0
0
0
0
0
0
0
0
0
0
0
0
0
0
0
0
0
0
0
0
0
0
0
0
0
0
0
0
0
0
0
0
0
0
0
0
0
0
0
0
0
0
0
0
0
0
0
0
0
0
0
0
0
0
0
0
0
0
0
0
0
0
0
0
0
0
0
0
0
0
0
0
0
0
0
0
0
0
0
0
0
0
0
0
0
0
0
0
0
0
0
0
0
0
0
0
0
0
0
0
0
0
0
0
0
0
0
0
0
0
0
0
0
0
0
0
0
0
0
0
0
0
0
0
0
0
0
0
0
0
0
0
0
0
0
0
0
0
0
0
0
0
0
0
0
0
0
0
0
0
0
0
0
0
0
0
0
0
0
0
0
0
0
0
0
0
0
0
0
0
0
0
0
0
0
0
0
0
0
0
0
0
0
0
0
0
0
0
0
0
0
0
0
0
0
0
0
0
0
0
0
0
0
0
0
0
0
0
0
0
0
0
0
0
0
0
0
0
0
0
0
0
0
0
0
0
0
0
0
0
0
0
0
0
0
0
0
0
0
0
0
0
0
0
0
0
0
0
0
0
0
0
0
0
0
0
0
0
0
0
0
0
0
0
0
0
0
0
0
0
0
0
0
0
0
0
0
0
0
0
0
0
0
0
0
0
0
0
0
0
0
0
0
0
0
0
0
0
0
0
0
0
0
0
0
0
0
0
0
0
0
0
0
0
0
0
0
0
0
0
0
0
0
0
0
0
0
0
0
0
0
0
0
0
0
0
0
0
0
0
0
0
0
0
0
0
0
0
0
0
0
0
0
0
0
0
0
0
0
0
0
0
0
0
0
0
0
0
0
0
0
0
0
0
0
0
0
0
0
0
0
0
0
0
0
0
0
0
0
0
0
0
0
0
0
0
0
0
0
0
0
0
0
0
0
0
0
0
0
0
0
0
0
0
0
0
0
0
0
0
0
0
0
0
0
0
0
0
0
0
0
0
0
0
0
0
0
0
0
0
0
0
0
0
0
0
0
0
0
0
0
0
0
0
0
0
0
0
0
0
0
0
0
0
0
0
0
0
0
0
0
0
0
0
0
0
0
0
0
0
0
0
0
0
0
0
0
0
0
0
0
0
0
0
0
0
0
0
0
0
0
0
0
0
0
0
0
0
0
0
0
0
0
0
0
0
0
0
0
0
0
0
0
0
0
0
0
0
0
0
0
0
0
0
0
0
0
0
0
0
0
0
0
0
0
0
0
0
0
0
0
0
0
0
0
0
0
0
0
0
0
0
0
0
0
0
0
0
0
0
0
0
0
0
0
0
0
0
0
0
0
0
0
0
0
0
0
0
0
0
0
0
0
0
0
0
0
0
0
0
0
0
0
0
0
0
0
0
0
0
0
0
0
0
0
0
0
0
0
0
0
0
0
0
0
0
0
0
0
0
0
0
0
0
0
0
0
0
0
0
0
0
0
0
0
0
0
0
0
0
0
0
0
0
0
0
0
0
0
0
0
0
0
0
0
0
0
0
0
0
0
0
0
0
0
0
0
0
0
0
0
0
0
0
0
0
0
0
0
0
0
0
0
0
0
0
0
0
0
0
0
0
0
0
0
0
0
0
0
0
0
0
0
0
0
0
0
0
0
0
0
0
0
0
0
0
0
0
0
0
0
0
0
0
0
0
0
0
0
0
0
0
0
0
0
0
0
0
0
0
0
0
0
0
0
0
0
0
0
0
0
0
0
0
0
0
0
0
0
0
0
0
0
0
0
0
0
0
0
0
0
0
0
0
0
0
0
0
0
0
0
0
0
0
0
0
0
0
0
0
0
0
0
0
0
0
0
0
0
0
0
0
0
0
0
0
0
0
0
0
0
0
0
0
0
0
0
0
0
0
0
0
0
0
0
0
0
0
0
0
0
0
0
0
0
0
0
0
0
0
0
0
0
0
0
0
0
0
0
0
0
0
0
0
0
0
0
0
0
0
0
0
0
0
0
0
0
0
0
0
0
0
0
0
0
0
0
0
0
0
0
0
0
0
0
0
0
0
0
0
0
0
0
0
0
0
0
0
0
0
0
0
0
0
0
0
0
0
0
0
0
0
0
0
0
0
0
0
0
0
0
0
0
0
0
0
0
0
0
0
0
0
0
0
0
0
0
0
0
0
0
0
0
0
0
0
0
0
0
0
0
0
0
0
0
0
0
0
0
0
0
0
0
0
0
0
0
0
0
0
0
0
0
0
0
0
0
0
0
0
0
0
0
0
0
0
0
0
0
0
0
0
0
0
0
0
0
0
0
0
0
0
0
0
0
0
0
0
0
0
0
0
0
0
0
0
0
0
0
0
0
0
0
0
0
0
0
0
0
0
0
0
0
0
0
0
0
0
0
0
0
0
0
0
0
0
0
0
0
0
0
0
0
0
0
0
0
0
0
0
0
0
0
0
0
0
0
0
0
0
0
0
0
0
0
0
0
0
0
0
0
0
0
0
0
0
0
0
0
0
0
0
0
0
0
0
0
0
0
0
0
0
0
0
0
0
0
0
0
0
0
0
0
0
0
0
0
0
0
0
0
0
0
0
0
0
0
0
0
0
0
0
0
0
0
0
0
0
0
0
0
0
0
0
0
0
0
0
0
0
0
0
0
0
0
0
0
0
0
0
0
0
0
0
0
0
0
0
0
0
0
0
0
0
0
0
0
0
0
0
0
0
0
0
0
0
0
0
0
0
0
0
0
0
0
0
0
0
0
0
0
0
0
0
0
0
0
0
0
0
0
0
0
0
0
0
0
0
0
0
0
0
0
0
0
0
0
0
0
0
0
0
0
0
0
0
0
0
0
0
0
0
0
0
0
0
0
0
0
0
0
0
0
0
0
0
0
0
0
0
0
0
0
0
0
0
0
0
0
0
0
0
0
0
0
0
0
0
0
0
0
0
0
0
0
0
0
0
0
0
0
0
0
0
0
0
0
0
0
0
0
0
0
0
0
0
0
0
0
0
0
0
0
0
0
0
0
0
0
0
1623.79
572.151
1086.36
4991.44
5819.47
1924.12
3278.55
5908.44
4615.25
4189.64
4376.65
1387.57
1815.64
816.852
1438.55
268.633
445.106
1939.51
698.395
129.18
137.82
544.946
526.277
622.609
882.919
1848.36
380.695
617.254
3813.58
1203.51
1647.59
2908.87
992.505
665.31
537.41
4395.03
6047.25
5693.66
400.706
205.954
1170.34
1631.67
411.968
748.165
501.637
177.814
304.163
205.025
207.708
236.782
133.024
72.2221
159.835
114.365
34.3402
0
610.186
13.8074
199.955
134.29
88.4779
0
19.8632
6127.83
1135.26
5116.8
528.387
1144.25
150.329
681.487
86.8302
4007.2
1162.76
61.1501
20.9372
173.619
180.882
46.1532
279.768
125.812
6.52273
0
195.891
165.169
2884.96
2973.46
1854.23
6805.22
1289.01
2424.9
1581.23
359.293
1248.16
545.453
479.787
363.227
714.859
491.885
717.507
237.331
212.802
412.483
386.649
223.105
526.49
191.316
329.052
86.9364
243.438
660.211
447.844
415.303
860.654
1162.62
806.924
8869.62
787.735
771.879
333.451
582.557
460.048
641.492
582.353
1008.52
356.806
847.849
364.712
349.716
493.588
281.856
415.768
334.042
285.372
546.549
850.145
701.452
302.029
302.439
763.736
701.15
949.529
501.602
207.523
8042.06
1291.62
367.216
156.475
1192.81
329.304
939.908
919.196
1961.04
342.212
1090.88
280.764
238.998
204.117
169.947
175.281
135.835
147.646
281.789
506.344
380.798
350.045
306.297
291.567
244.521
1865.03
328.265
153.552
9573.72
3502.41
883.44
126.672
1063.07
551.385
1139.09
2539.07
543.993
1087.42
968.683
139.15
235.003
143.19
1668.35
263.228
402.985
160.236
368.172
775.303
863.31
2032.02
833.052
3354.26
879.157
7231.47
2504.22
412.96
9938.07
8113.54
5698.68
1665.06
232.719
2393.64
415.701
3813.44
165.515
1398.98
199.103
591.534
2639.25
508.709
6788.25
2163.83
2308.31
1469.68
1252.45
651.711
433.162
320.55
1088
45.3794
184.679
8800.53
8301.35
3465.17
2064.91
6234.94
572.098
2109.55
437.493
834.318
429.849
1367.38
124.115
626.602
145.014
3831.6
570.365
1230.34
84.4203
172.82
11.9987
15.1706
251.408
5.56207
17.5394
3.45888
0
5.16682
0
671.558
39.6647
130.228
35.5007
59.3945
14.7671
11.7168
50.5551
72.6221
25.3259
68.1854
30.5642
5.34145
25.3455
34.4435
13.3815
26.9865
2.33819
0
4.26704
5.04663
4.99624
5.51904
0
5.39457
0
0
0
19.1171
9.72712
3.30919
11.4006
30.3018
8.72862
8.74814
40.735
21.3921
35.4853
24.0019
48.2451
15.9343
23.911
9.42853
4.19054
15.1769
10.1395
4.91584
0
0
7.97284
11.6569
0.141728
0.112844
1.69489
0
0
21.1249
11.4867
13.5544
19.9358
27.9585
11.9149
14.8334
72.8027
11.6586
25.6026
45.2093
110.491
38.2013
41.202
0.241666
0
0
3.33797
3.20276
0
0
0
0
0
5.24096
0
0
0
35.5618
4.04871
18.114
8.34165
30.8605
3.66309
24.0858
124.268
22.4185
92.7798
61.1777
67.9534
34.1774
51.3374
3.04496
2.24917
4.60166
0
3.30502
6.91011
0
0
0
0
0
0
10.9776
0
21.5766
6.90641
4.17952
0.224603
16.6079
14.1538
4.23024
39.6585
10.0713
39.2248
11.0827
27.7574
18.4531
10.8463