thermo_log      ../DEM/post/thermo.txt

atom_style      granular
atom_modify     map array
communicate     single vel yes

boundary        f f f
newton          off

units           si
processors      2 2 1

# read the restart file
read_restart    ../DEM/post/restart/liggghts.restartCFDEM
  orthogonal box = (-0.05 -0.05 -0.01) to (0.05 0.05 0.5)
  2 by 2 by 1 MPI processor grid
  286046 atoms

neighbor        0.0005 bin
neigh_modify    delay 0


# Material properties required for granular pair styles (Two atom types)
fix         m1 all property/global youngsModulus peratomtype 5e6 5e6
fix         m2 all property/global poissonsRatio peratomtype 0.3 0.3
fix         m3 all property/global coefficientRestitution peratomtypepair 2 0.79 0.645 0.645 0.5
fix         m4 all property/global coefficientFriction peratomtypepair 2 0.45 0.5 0.5 0.55
fix         m5 all property/global coefficientRollingFriction peratomtypepair 2 0.000016 0.000016 0.000016 0.000016

##Material properties required for granular pair styles (Three atom types)
#fix         m1 all property/global youngsModulus peratomtype 5e6 5e6 5e6
#fix         m2 all property/global poissonsRatio peratomtype 0.3 0.3 0.35
#fix         m3 all property/global coefficientRestitution peratomtypepair 3 0.79 0.645 0.82 0.645 0.5 0.675 0.82 0.675 0.85
#fix         m4 all property/global coefficientFriction peratomtypepair 3 0.45 0.5 0.275 0.5 0.55 0.325 0.275 0.325 0.1
#fix         m5 all property/global coefficientRollingFriction peratomtypepair 3 0.000016 0.000016 0.000016 0.000016 0.000016 0.000016  0.000016 0.000016 0.000016

# pair style
pair_style  gran model hertz tangential history # Hertzian without cohesion
pair_coeff  * *

# timestep, gravity
timestep    0.00001
fix         gravi all gravity 9.81 vector 0.0 0.0 -1.0

#import mesh from cad:(two atom types)
fix  fb1 all mesh/surface file ../DEM/STL/fluidizedbedriser1.stl type 1 scale 0.0254
INFO: mesh file (../DEM/STL/fluidizedbedriser1.stl) is required, but data will be taken from restart file (../fix_mesh.cpp:417)
Resetting global state of Fix fb1 Style mesh/surface from restart file info
fix  fb2 all mesh/surface file ../DEM/STL/fluidizedbedriser2.stl type 1 scale 0.0254
INFO: mesh file (../DEM/STL/fluidizedbedriser2.stl) is required, but data will be taken from restart file (../fix_mesh.cpp:417)
Resetting global state of Fix fb2 Style mesh/surface from restart file info
fix  fbBioin all mesh/surface file ../DEM/STL/fluidizedbedBioin.stl type 1 scale 0.0254
INFO: mesh file (../DEM/STL/fluidizedbedBioin.stl) is required, but data will be taken from restart file (../fix_mesh.cpp:417)
Resetting global state of Fix fbBioin Style mesh/surface from restart file info
fix  fbGasin all mesh/surface file ../DEM/STL/fluidizedbedGasin.stl type 1 scale 0.0254
INFO: mesh file (../DEM/STL/fluidizedbedGasin.stl) is required, but data will be taken from restart file (../fix_mesh.cpp:417)
Resetting global state of Fix fbGasin Style mesh/surface from restart file info
fix  fbOut all mesh/surface file ../DEM/STL/fluidizedbedOut.stl type 1 scale 0.0254
INFO: mesh file (../DEM/STL/fluidizedbedOut.stl) is required, but data will be taken from restart file (../fix_mesh.cpp:417)
Resetting global state of Fix fbOut Style mesh/surface from restart file info

#import mesh from cad:(three atom types)
#fix  fb1 all mesh/surface file ../DEM/STL/fluidizedbedriser1.stl type 3 scale 0.0254
#fix  fb2 all mesh/surface file ../DEM/STL/fluidizedbedriser2.stl type 3 scale 0.0254
#fix  fbBioin all mesh/surface file ../DEM/STL/fluidizedbedBioin.stl type 3 scale 0.0254
#fix  fbGasin all mesh/surface file ../DEM/STL/fluidizedbedGasin.stl type 3 scale 0.0254
#fix fbOut all mesh/surface file ../DEM/STL/fluidizedbedOut.stl type 3 scale 0.0254

#use the imported mesh as granular wall
#fix  walls all wall/gran model hertz tangential history rolling_friction epsd2 mesh n_meshes 2 meshes fb fbGasin
fix	walls all wall/gran model hertz tangential history mesh n_meshes 4 meshes fb1 fb2  fbGasin fbBioin
Resetting global state of Fix n_neighs_mesh_fb1 Style property/atom from restart file info
Resetting per-atom state of Fix n_neighs_mesh_fb1 Style property/atom from restart file info
Resetting global state of Fix tracker_fb1 Style contacthistory/mesh from restart file info
Resetting per-atom state of Fix tracker_fb1 Style contacthistory/mesh from restart file info
Resetting global state of Fix n_neighs_mesh_fb2 Style property/atom from restart file info
Resetting per-atom state of Fix n_neighs_mesh_fb2 Style property/atom from restart file info
Resetting global state of Fix tracker_fb2 Style contacthistory/mesh from restart file info
Resetting per-atom state of Fix tracker_fb2 Style contacthistory/mesh from restart file info
Resetting global state of Fix n_neighs_mesh_fbGasin Style property/atom from restart file info
Resetting per-atom state of Fix n_neighs_mesh_fbGasin Style property/atom from restart file info
Resetting global state of Fix tracker_fbGasin Style contacthistory/mesh from restart file info
Resetting per-atom state of Fix tracker_fbGasin Style contacthistory/mesh from restart file info
Resetting global state of Fix n_neighs_mesh_fbBioin Style property/atom from restart file info
Resetting per-atom state of Fix n_neighs_mesh_fbBioin Style property/atom from restart file info
Resetting global state of Fix tracker_fbBioin Style contacthistory/mesh from restart file info
Resetting per-atom state of Fix tracker_fbBioin Style contacthistory/mesh from restart file info


#particle distributions and insertion ### insert biomass

#region     bc2 cylinder x 0.0 0.0444 0.0125 0.035 0.038 units box
#fix        pts2 all particletemplate/sphere 49979693 atom_type 2 density constant 294 #radius constant 0.0005
#fix        pdd2 all particledistribution/discrete 86028157 1 pts2 1.0
##fix        ins2 all insert/stream seed 86028121 distributiontemplate pdd2 mass 0.002 massrate 0.0001 insert_every 2000 overlapcheck yes vel constant -0.1 0.0 0.0  insertion_face fbBioin ntry_mc 10000
##extrude_length 5
#fix        ins2 all insert/rate/region seed 86028121 distributiontemplate pdd2 mass 0.00002 massrate 0.00001 insert_every 1000 overlapcheck yes vel constant -0.01 0.0 0.0 region bc2 ntry_mc 10000

# apply nve integration to all particles that are inserted as single particles
fix         integr all nve/sphere

# cfd coupling
fix     cfd all couple/cfd couple_every 100 mpi
couple_every as specified in LIGGGHTS is overriden by calling external program (../fix_cfd_coupling.cpp:114)
fix     cfd2 all couple/cfd/force
Resetting global state of Fix dragforce Style property/atom from restart file info
Resetting per-atom state of Fix dragforce Style property/atom from restart file info
Resetting global state of Fix hdtorque Style property/atom from restart file info
Resetting per-atom state of Fix hdtorque Style property/atom from restart file info

# apply nve integration to all particles that are inserted as single particles
fix     integr all nve/sphere

# center of mass
compute     centerOfMass all com

# compute total dragforce
compute     dragtotal all reduce sum f_dragforce[1] f_dragforce[2] f_dragforce[3]

# screen output
 compute         rke all erotate/sphere
# Define a computation that calculates the rotational kinetic energy of a group of spherical particles. The rotational energy is computed as 1/2Iw^2, where I is the moment of inertia for a sphere and w is # the particle’s angular velocity.
thermo_style    custom step atoms ke c_rke vol c_centerOfMass[3] c_dragtotal[1] c_dragtotal[2] c_dragtotal[3]
thermo          100
thermo_modify   lost ignore norm no
compute_modify  thermo_temp dynamic yes
WARNING: Changing thermo_temp compute object. This object is deprecated and will be removed in the future. (../compute.cpp:161)

dump        dmp all custom/vtk 50000 post/dump*.liggghts_restart.vtk id type x y z vx vy vz fx fy fz f_dragforce[1] f_dragforce[2] f_dragforce[3] radius

run 1
Resetting global state of Fix contacthistory Style contacthistory from restart file info
Resetting per-atom state of Fix contacthistory Style contacthistory from restart file info
Setting up run at Mon Sep 21 20:48:41 2020

Memory usage per processor = 157.816 Mbytes
    Step    Atoms         KinEng            rke         Volume       centerOf       dragtota       dragtota       dragtota 
  689201   286046   0.0013419409  1.8662555e-05         0.0051    0.014069325    0.023416994     0.16877757     0.57789375 
  689202   286046   0.0013417493  1.8654275e-05         0.0051    0.014069417    0.023416994     0.16877757     0.57789375 
Loop time of 0.0739825 on 4 procs for 1 steps with 286046 atoms, finish time Mon Sep 21 20:49:13 2020


Pair  time (%) = 0.0386171 (52.1976)
Neigh time (%) = 0 (0)
Comm  time (%) = 0.00136471 (1.84464)
Outpt time (%) = 0.0185749 (25.1072)
Other time (%) = 0.0154258 (20.8506)

Nlocal:    71511.5 ave 95744 max 51785 min
Histogram: 1 1 0 0 0 0 1 0 0 1
Nghost:    6659.75 ave 7765 max 5660 min
Histogram: 2 0 0 0 0 0 0 0 1 1
Neighs:    1.03273e+06 ave 1.41978e+06 max 750295 min
Histogram: 1 1 0 0 0 1 0 0 0 1

Total # of neighbors = 4130926
Ave neighs/atom = 14.4415
Neighbor list builds = 0
Dangerous builds = 0

run 100    
Setting up run at Mon Sep 21 20:49:17 2020

Memory usage per processor = 157.816 Mbytes
    Step    Atoms         KinEng            rke         Volume       centerOf       dragtota       dragtota       dragtota 
  689202   286046   0.0013417493  1.8654275e-05         0.0051    0.014069417    0.023416994     0.16877757     0.57789375 
CFD Coupling established at step 689300
  689300   286046   0.0013292346  1.8728239e-05         0.0051    0.014079702    0.023416994     0.16877757     0.57789375 
  689302   286046   0.0013290362  1.8723579e-05         0.0051    0.014079936    0.023416994     0.16877757     0.57789375 
Loop time of 7.6184 on 4 procs for 100 steps with 286046 atoms, finish time Mon Sep 21 20:49:25 2020


Pair  time (%) = 3.6412 (47.7948)
Neigh time (%) = 0.496664 (6.51927)
Comm  time (%) = 0.296956 (3.89788)
Outpt time (%) = 0.058928 (0.773495)
Other time (%) = 3.12465 (41.0146)

Nlocal:    71511.5 ave 96287 max 51584 min
Histogram: 1 1 0 0 0 0 1 0 0 1
Nghost:    6666.25 ave 7777 max 5629 min
Histogram: 2 0 0 0 0 0 0 0 1 1
Neighs:    1.0337e+06 ave 1.43354e+06 max 746080 min
Histogram: 1 1 0 0 0 1 0 0 0 1

Total # of neighbors = 4134782
Ave neighs/atom = 14.455
Neighbor list builds = 4
Dangerous builds = 0
run 100    
Setting up run at Mon Sep 21 20:49:35 2020

Memory usage per processor = 157.816 Mbytes
    Step    Atoms         KinEng            rke         Volume       centerOf       dragtota       dragtota       dragtota 
  689302   286046   0.0013290362  1.8723579e-05         0.0051    0.014079936    -0.03531399    -0.12113264     0.48310681 
CFD Coupling established at step 689400
  689400   286046    0.001317735  1.8794201e-05         0.0051    0.014091702    -0.03531399    -0.12113264     0.48310681 
  689402   286046   0.0013175078  1.8798808e-05         0.0051    0.014091948    -0.03531399    -0.12113264     0.48310681 
Loop time of 7.46229 on 4 procs for 100 steps with 286046 atoms, finish time Mon Sep 21 20:49:43 2020


Pair  time (%) = 3.58504 (48.0421)
Neigh time (%) = 0.482654 (6.46791)
Comm  time (%) = 0.319033 (4.27526)
Outpt time (%) = 0.0422207 (0.565788)
Other time (%) = 3.03334 (40.6489)

Nlocal:    71511.5 ave 96896 max 51409 min
Histogram: 1 1 0 0 0 0 1 0 0 1
Nghost:    6654 ave 7785 max 5650 min
Histogram: 2 0 0 0 0 0 0 0 1 1
Neighs:    1.03497e+06 ave 1.44925e+06 max 741814 min
Histogram: 1 1 0 0 0 1 0 0 0 1

Total # of neighbors = 4139865
Ave neighs/atom = 14.4727
Neighbor list builds = 4
Dangerous builds = 0
run 100    
Setting up run at Mon Sep 21 20:49:44 2020

Memory usage per processor = 158.965 Mbytes
    Step    Atoms         KinEng            rke         Volume       centerOf       dragtota       dragtota       dragtota 
  689402   286046   0.0013175078  1.8798808e-05         0.0051    0.014091948    0.033183359     0.11939561      0.6909888 
CFD Coupling established at step 689500
  689500   286046   0.0013211253  1.8793486e-05         0.0051    0.014106261    0.033183359     0.11939561      0.6909888 
  689502   286046   0.0013212481  1.8794313e-05         0.0051      0.0141066    0.033183359     0.11939561      0.6909888 
Loop time of 7.71308 on 4 procs for 100 steps with 286046 atoms, finish time Mon Sep 21 20:49:53 2020


Pair  time (%) = 3.50623 (45.4583)
Neigh time (%) = 0.491829 (6.37656)
Comm  time (%) = 0.37388 (4.84735)
Outpt time (%) = 0.058965 (0.764481)
Other time (%) = 3.28217 (42.5533)

Nlocal:    71511.5 ave 97489 max 51219 min
Histogram: 1 1 0 0 0 0 1 0 0 1
Nghost:    6647.5 ave 7817 max 5620 min
Histogram: 2 0 0 0 0 0 0 0 1 1
Neighs:    1.03642e+06 ave 1.46564e+06 max 736828 min
Histogram: 1 1 0 0 0 1 0 0 0 1

Total # of neighbors = 4145677
Ave neighs/atom = 14.493
Neighbor list builds = 4
Dangerous builds = 0
run 100    
Setting up run at Mon Sep 21 20:49:54 2020

Memory usage per processor = 158.965 Mbytes
    Step    Atoms         KinEng            rke         Volume       centerOf       dragtota       dragtota       dragtota 
  689502   286046   0.0013212481  1.8794313e-05         0.0051      0.0141066    0.035797809     0.18080101     0.59023443 
CFD Coupling established at step 689600
  689600   286046   0.0013004956  1.8779394e-05         0.0051    0.014124498    0.035797809     0.18080101     0.59023443 
  689602   286046   0.0013001863  1.8762748e-05         0.0051     0.01412489    0.035797809     0.18080101     0.59023443 
Loop time of 8.29219 on 4 procs for 100 steps with 286046 atoms, finish time Mon Sep 21 20:50:03 2020


Pair  time (%) = 3.75742 (45.3128)
Neigh time (%) = 0.48011 (5.7899)
Comm  time (%) = 0.364205 (4.39215)
Outpt time (%) = 0.0523885 (0.631782)
Other time (%) = 3.63806 (43.8734)

Nlocal:    71511.5 ave 98070 max 51019 min
Histogram: 1 1 0 0 0 0 1 0 0 1
Nghost:    6668.25 ave 7869 max 5621 min
Histogram: 2 0 0 0 0 0 0 0 1 1
Neighs:    1.03764e+06 ave 1.48141e+06 max 731626 min
Histogram: 1 1 0 0 0 1 0 0 0 1

Total # of neighbors = 4150556
Ave neighs/atom = 14.5101
Neighbor list builds = 4
Dangerous builds = 0
run 100    
Setting up run at Mon Sep 21 20:50:04 2020

Memory usage per processor = 162.021 Mbytes
    Step    Atoms         KinEng            rke         Volume       centerOf       dragtota       dragtota       dragtota 
  689602   286046   0.0013001863  1.8762748e-05         0.0051     0.01412489    0.032205116     0.18183202     0.58688041 
CFD Coupling established at step 689700
  689700   286046   0.0012820208  1.8709505e-05         0.0051    0.014145371    0.032205116     0.18183202     0.58688041 
  689702   286046   0.0012816509  1.8709511e-05         0.0051    0.014145815    0.032205116     0.18183202     0.58688041 
Loop time of 8.98654 on 4 procs for 100 steps with 286046 atoms, finish time Mon Sep 21 20:50:13 2020


Pair  time (%) = 4.0727 (45.32)
Neigh time (%) = 0.490722 (5.46063)
Comm  time (%) = 0.362959 (4.03892)
Outpt time (%) = 0.0467474 (0.520194)
Other time (%) = 4.01341 (44.6603)

Nlocal:    71511.5 ave 98574 max 50846 min
Histogram: 1 1 0 0 0 0 1 0 0 1
Nghost:    6673.5 ave 7881 max 5608 min
Histogram: 2 0 0 0 0 0 0 0 1 1
Neighs:    1.03897e+06 ave 1.49629e+06 max 727095 min
Histogram: 1 1 0 0 0 1 0 0 0 1

Total # of neighbors = 4155871
Ave neighs/atom = 14.5287
Neighbor list builds = 4
Dangerous builds = 0
run 100    
Setting up run at Mon Sep 21 20:50:14 2020

Memory usage per processor = 162.021 Mbytes
    Step    Atoms         KinEng            rke         Volume       centerOf       dragtota       dragtota       dragtota 
  689702   286046   0.0012816509  1.8709511e-05         0.0051    0.014145815    0.032542891     0.18513535     0.59416743 
CFD Coupling established at step 689800
  689800   286046    0.001265029   1.862295e-05         0.0051    0.014168972    0.032542891     0.18513535     0.59416743 
  689802   286046   0.0012647179  1.8614182e-05         0.0051    0.014169473    0.032542891     0.18513535     0.59416743 
Loop time of 9.01583 on 4 procs for 100 steps with 286046 atoms, finish time Mon Sep 21 20:50:24 2020


Pair  time (%) = 3.91628 (43.4378)
Neigh time (%) = 0.518696 (5.75317)
Comm  time (%) = 0.582246 (6.45804)
Outpt time (%) = 0.0552268 (0.612554)
Other time (%) = 3.94338 (43.7384)

Nlocal:    71511.5 ave 99060 max 50696 min
Histogram: 1 1 0 0 0 0 1 0 0 1
Nghost:    6658.25 ave 7869 max 5592 min
Histogram: 2 0 0 0 0 0 0 0 1 1
Neighs:    1.0402e+06 ave 1.51e+06 max 723588 min
Histogram: 2 0 0 0 0 1 0 0 0 1

Total # of neighbors = 4160809
Ave neighs/atom = 14.5459
Neighbor list builds = 4
Dangerous builds = 0
run 100    
Setting up run at Mon Sep 21 20:50:25 2020

Memory usage per processor = 162.864 Mbytes
    Step    Atoms         KinEng            rke         Volume       centerOf       dragtota       dragtota       dragtota 
  689802   286046   0.0012647179  1.8614182e-05         0.0051    0.014169473    0.034136913     0.18510051      0.5911503 
CFD Coupling established at step 689900
  689900   286046   0.0012499559  1.8395447e-05         0.0051    0.014195356    0.034136913     0.18510051      0.5911503 
  689902   286046   0.0012496565  1.8400839e-05         0.0051    0.014195912    0.034136913     0.18510051      0.5911503 
Loop time of 8.4622 on 4 procs for 100 steps with 286046 atoms, finish time Mon Sep 21 20:50:35 2020


Pair  time (%) = 3.7845 (44.7224)
Neigh time (%) = 0.482823 (5.70565)
Comm  time (%) = 0.396877 (4.69)
Outpt time (%) = 0.041626 (0.491905)
Other time (%) = 3.75638 (44.3901)

Nlocal:    71511.5 ave 99479 max 50556 min
Histogram: 1 1 0 0 0 0 1 0 0 1
Nghost:    6653.5 ave 7851 max 5546 min
Histogram: 2 0 0 0 0 0 0 0 1 1
Neighs:    1.04117e+06 ave 1.52162e+06 max 720114 min
Histogram: 2 0 0 0 0 1 0 0 0 1

Total # of neighbors = 4164666
Ave neighs/atom = 14.5594
Neighbor list builds = 4
Dangerous builds = 0
run 100    
Setting up run at Mon Sep 21 20:50:36 2020

Memory usage per processor = 162.864 Mbytes
    Step    Atoms         KinEng            rke         Volume       centerOf       dragtota       dragtota       dragtota 
  689902   286046   0.0012496565  1.8400839e-05         0.0051    0.014195912    0.034925865     0.18572271     0.59074676 
CFD Coupling established at step 690000
  690000   286046     0.00123734  1.8266848e-05         0.0051    0.014224461    0.034925865     0.18572271     0.59074676 
  690002   286046   0.0012371616  1.8264386e-05         0.0051    0.014225071    0.034925865     0.18572271     0.59074676 
Loop time of 7.44432 on 4 procs for 100 steps with 286046 atoms, finish time Mon Sep 21 20:50:44 2020


Pair  time (%) = 3.32163 (44.6197)
Neigh time (%) = 0.47107 (6.32792)
Comm  time (%) = 0.321928 (4.32448)
Outpt time (%) = 0.0400944 (0.538591)
Other time (%) = 3.28959 (44.1893)

Nlocal:    71511.5 ave 99931 max 50437 min
Histogram: 1 1 0 0 0 0 1 0 0 1
Nghost:    6660.25 ave 7882 max 5549 min
Histogram: 2 0 0 0 0 0 0 0 1 1
Neighs:    1.04167e+06 ave 1.53326e+06 max 716646 min
Histogram: 2 0 0 0 1 0 0 0 0 1

Total # of neighbors = 4166673
Ave neighs/atom = 14.5664
Neighbor list builds = 4
Dangerous builds = 0
run 100    
Setting up run at Mon Sep 21 20:50:45 2020

Memory usage per processor = 162.868 Mbytes
    Step    Atoms         KinEng            rke         Volume       centerOf       dragtota       dragtota       dragtota 
  690002   286046   0.0012371616  1.8264386e-05         0.0051    0.014225071    0.036279997     0.18476103     0.58988767 
CFD Coupling established at step 690100
  690100   286046    0.001226984  1.8016937e-05         0.0051    0.014256278    0.036279997     0.18476103     0.58988767 
  690102   286046   0.0012268079  1.8013909e-05         0.0051    0.014256942    0.036279997     0.18476103     0.58988767 
Loop time of 7.75757 on 4 procs for 100 steps with 286046 atoms, finish time Mon Sep 21 20:50:53 2020


Pair  time (%) = 3.32837 (42.9048)
Neigh time (%) = 0.498811 (6.43)
Comm  time (%) = 0.41816 (5.39035)
Outpt time (%) = 0.0482986 (0.6226)
Other time (%) = 3.46393 (44.6523)

Nlocal:    71511.5 ave 100305 max 50315 min
Histogram: 2 0 0 0 0 0 1 0 0 1
Nghost:    6673.5 ave 7897 max 5523 min
Histogram: 2 0 0 0 0 0 0 0 1 1
Neighs:    1.0421e+06 ave 1.54306e+06 max 712845 min
Histogram: 2 0 0 0 1 0 0 0 0 1

Total # of neighbors = 4168401
Ave neighs/atom = 14.5725
Neighbor list builds = 4
Dangerous builds = 0
run 100    
Setting up run at Mon Sep 21 20:50:54 2020

Memory usage per processor = 162.868 Mbytes
    Step    Atoms         KinEng            rke         Volume       centerOf       dragtota       dragtota       dragtota 
  690102   286046   0.0012268079  1.8013909e-05         0.0051    0.014256942    0.037831312     0.18432694     0.58896906 
CFD Coupling established at step 690200
  690200   286046   0.0012185274  1.7947713e-05         0.0051    0.014290801    0.037831312     0.18432694     0.58896906 
  690202   286046   0.0012184168  1.7944653e-05         0.0051    0.014291519    0.037831312     0.18432694     0.58896906 
Loop time of 7.10069 on 4 procs for 100 steps with 286046 atoms, finish time Mon Sep 21 20:51:01 2020


Pair  time (%) = 3.49957 (49.2849)
Neigh time (%) = 0.464826 (6.54621)
Comm  time (%) = 0.306469 (4.31604)
Outpt time (%) = 0.0449725 (0.633353)
Other time (%) = 2.78486 (39.2195)

Nlocal:    71511.5 ave 100675 max 50214 min
Histogram: 2 0 0 0 0 1 0 0 0 1
Nghost:    6688.5 ave 7916 max 5541 min
Histogram: 2 0 0 0 0 0 0 0 1 1
Neighs:    1.04235e+06 ave 1.55154e+06 max 709941 min
Histogram: 2 0 0 0 1 0 0 0 0 1

Total # of neighbors = 4169398
Ave neighs/atom = 14.576
Neighbor list builds = 4
Dangerous builds = 0
run 100    
Setting up run at Mon Sep 21 20:51:02 2020

Memory usage per processor = 162.868 Mbytes
    Step    Atoms         KinEng            rke         Volume       centerOf       dragtota       dragtota       dragtota 
  690202   286046   0.0012184168  1.7944653e-05         0.0051    0.014291519    0.039836389     0.18418737     0.58768218 
CFD Coupling established at step 690300
  690300   286046   0.0012125127  1.7721167e-05         0.0051    0.014328002    0.039836389     0.18418737     0.58768218 
  690302   286046   0.0012124634  1.7721756e-05         0.0051    0.014328774    0.039836389     0.18418737     0.58768218 
Loop time of 7.23837 on 4 procs for 100 steps with 286046 atoms, finish time Mon Sep 21 20:51:10 2020


Pair  time (%) = 3.56179 (49.2071)
Neigh time (%) = 0.477892 (6.6022)
Comm  time (%) = 0.332879 (4.59881)
Outpt time (%) = 0.0628781 (0.868679)
Other time (%) = 2.80292 (38.7232)

Nlocal:    71511.5 ave 101002 max 50175 min
Histogram: 2 0 0 0 0 1 0 0 0 1
Nghost:    6699.75 ave 7948 max 5565 min
Histogram: 2 0 0 0 0 0 0 0 1 1
Neighs:    1.04188e+06 ave 1.55784e+06 max 707597 min
Histogram: 2 0 0 0 1 0 0 0 0 1

Total # of neighbors = 4167507
Ave neighs/atom = 14.5694
Neighbor list builds = 4
Dangerous builds = 0
run 100    
Setting up run at Mon Sep 21 20:51:11 2020

Memory usage per processor = 166.534 Mbytes
    Step    Atoms         KinEng            rke         Volume       centerOf       dragtota       dragtota       dragtota 
  690302   286046   0.0012124634  1.7721756e-05         0.0051    0.014328774    0.041015266     0.18341762      0.5873079 
CFD Coupling established at step 690400
  690400   286046   0.0012086291  1.7533224e-05         0.0051     0.01436785    0.041015266     0.18341762      0.5873079 
  690402   286046    0.001208604   1.752871e-05         0.0051    0.014368674    0.041015266     0.18341762      0.5873079 
Loop time of 7.18396 on 4 procs for 100 steps with 286046 atoms, finish time Mon Sep 21 20:51:19 2020


Pair  time (%) = 3.21097 (44.6964)
Neigh time (%) = 0.448651 (6.24518)
Comm  time (%) = 0.30595 (4.2588)
Outpt time (%) = 0.0506423 (0.704936)
Other time (%) = 3.16774 (44.0947)

Nlocal:    71511.5 ave 101293 max 50120 min
Histogram: 2 0 0 0 0 1 0 0 0 1
Nghost:    6703 ave 7960 max 5547 min
Histogram: 2 0 0 0 0 0 0 0 1 1
Neighs:    1.04131e+06 ave 1.56323e+06 max 705191 min
Histogram: 2 0 0 0 1 0 0 0 0 1

Total # of neighbors = 4165239
Ave neighs/atom = 14.5614
Neighbor list builds = 4
Dangerous builds = 0
run 100    
Setting up run at Mon Sep 21 20:51:20 2020

Memory usage per processor = 166.534 Mbytes
    Step    Atoms         KinEng            rke         Volume       centerOf       dragtota       dragtota       dragtota 
  690402   286046    0.001208604   1.752871e-05         0.0051    0.014368674    0.042070987     0.18442351     0.58958174 
CFD Coupling established at step 690500
  690500   286046   0.0012076234  1.7353971e-05         0.0051    0.014410361    0.042070987     0.18442351     0.58958174 
  690502   286046   0.0012076607  1.7351655e-05         0.0051    0.014411239    0.042070987     0.18442351     0.58958174 
Loop time of 7.09233 on 4 procs for 100 steps with 286046 atoms, finish time Mon Sep 21 20:51:27 2020


Pair  time (%) = 3.12633 (44.0804)
Neigh time (%) = 0.431769 (6.08783)
Comm  time (%) = 0.311531 (4.39251)
Outpt time (%) = 0.048113 (0.678382)
Other time (%) = 3.17459 (44.7608)

Nlocal:    71511.5 ave 101564 max 50113 min
Histogram: 2 0 0 0 0 1 0 0 0 1
Nghost:    6706 ave 7954 max 5553 min
Histogram: 2 0 0 0 0 0 0 0 1 1
Neighs:    1.04068e+06 ave 1.56802e+06 max 703292 min
Histogram: 2 0 0 0 1 0 0 0 0 1

Total # of neighbors = 4162714
Ave neighs/atom = 14.5526
Neighbor list builds = 4
Dangerous builds = 0
run 100    
Setting up run at Mon Sep 21 20:51:28 2020

Memory usage per processor = 169.586 Mbytes
    Step    Atoms         KinEng            rke         Volume       centerOf       dragtota       dragtota       dragtota 
  690502   286046   0.0012076607  1.7351655e-05         0.0051    0.014411239    0.042313896     0.18257649     0.58904976 
CFD Coupling established at step 690600
  690600   286046   0.0012068245  1.7233349e-05         0.0051    0.014455576    0.042313896     0.18257649     0.58904976 
  690602   286046   0.0012068032  1.7237544e-05         0.0051    0.014456507    0.042313896     0.18257649     0.58904976 
Loop time of 7.25406 on 4 procs for 100 steps with 286046 atoms, finish time Mon Sep 21 20:51:36 2020


Pair  time (%) = 3.17477 (43.7654)
Neigh time (%) = 0.455037 (6.27287)
Comm  time (%) = 0.326932 (4.50688)
Outpt time (%) = 0.0447253 (0.616556)
Other time (%) = 3.2526 (44.8383)

Nlocal:    71511.5 ave 101801 max 50095 min
Histogram: 2 0 0 0 0 1 0 0 0 1
Nghost:    6718.75 ave 7991 max 5566 min
Histogram: 2 0 0 0 0 0 0 0 1 1
Neighs:    1.0397e+06 ave 1.57152e+06 max 701197 min
Histogram: 2 0 0 0 1 0 0 0 0 1

Total # of neighbors = 4158787
Ave neighs/atom = 14.5389
Neighbor list builds = 4
Dangerous builds = 0
run 100    
Setting up run at Mon Sep 21 20:51:37 2020

Memory usage per processor = 169.59 Mbytes
    Step    Atoms         KinEng            rke         Volume       centerOf       dragtota       dragtota       dragtota 
  690602   286046   0.0012068032  1.7237544e-05         0.0051    0.014456507    0.042065903     0.18333448     0.58919233 
CFD Coupling established at step 690700
  690700   286046   0.0012086884  1.7161952e-05         0.0051    0.014503474    0.042065903     0.18333448     0.58919233 
  690702   286046   0.0012087532  1.7168777e-05         0.0051     0.01450446    0.042065903     0.18333448     0.58919233 
Loop time of 6.96669 on 4 procs for 100 steps with 286046 atoms, finish time Mon Sep 21 20:51:44 2020


Pair  time (%) = 3.21531 (46.1526)
Neigh time (%) = 0.463543 (6.6537)
Comm  time (%) = 0.296694 (4.25875)
Outpt time (%) = 0.050138 (0.719682)
Other time (%) = 2.941 (42.2152)

Nlocal:    71511.5 ave 102007 max 50071 min
Histogram: 2 0 0 0 0 1 0 0 0 1
Nghost:    6752.25 ave 8018 max 5549 min
Histogram: 2 0 0 0 0 0 0 0 0 2
Neighs:    1.03865e+06 ave 1.57458e+06 max 698921 min
Histogram: 2 0 0 0 1 0 0 0 0 1

Total # of neighbors = 4154584
Ave neighs/atom = 14.5242
Neighbor list builds = 4
Dangerous builds = 0
run 100    
Setting up run at Mon Sep 21 20:51:46 2020

Memory usage per processor = 169.59 Mbytes
    Step    Atoms         KinEng            rke         Volume       centerOf       dragtota       dragtota       dragtota 
  690702   286046   0.0012087532  1.7168777e-05         0.0051     0.01450446    0.040860762     0.18235609     0.59083094 
CFD Coupling established at step 690800
  690800   286046   0.0012112142  1.7097695e-05         0.0051    0.014554056    0.040860762     0.18235609     0.59083094 
  690802   286046   0.0012113149  1.7096465e-05         0.0051    0.014555095    0.040860762     0.18235609     0.59083094 
Loop time of 7.66129 on 4 procs for 100 steps with 286046 atoms, finish time Mon Sep 21 20:51:54 2020


Pair  time (%) = 3.18939 (41.63)
Neigh time (%) = 0.490918 (6.40776)
Comm  time (%) = 0.438906 (5.72888)
Outpt time (%) = 0.0422013 (0.550838)
Other time (%) = 3.49987 (45.6825)

Nlocal:    71511.5 ave 102226 max 50118 min
Histogram: 2 0 0 0 0 1 0 0 0 1
Nghost:    6768.5 ave 8070 max 5570 min
Histogram: 2 0 0 0 0 0 0 0 1 1
Neighs:    1.03716e+06 ave 1.57644e+06 max 697739 min
Histogram: 2 0 0 0 1 0 0 0 0 1

Total # of neighbors = 4148635
Ave neighs/atom = 14.5034
Neighbor list builds = 4
Dangerous builds = 0
run 100    
Setting up run at Mon Sep 21 20:51:55 2020

Memory usage per processor = 169.59 Mbytes
    Step    Atoms         KinEng            rke         Volume       centerOf       dragtota       dragtota       dragtota 
  690802   286046   0.0012113149  1.7096465e-05         0.0051    0.014555095    0.041350624     0.17852357     0.58537715 
CFD Coupling established at step 690900
  690900   286046   0.0012149801  1.7038185e-05         0.0051    0.014607259    0.041350624     0.17852357     0.58537715 
  690902   286046   0.0012151026  1.7031954e-05         0.0051    0.014608349    0.041350624     0.17852357     0.58537715 
Loop time of 6.89675 on 4 procs for 100 steps with 286046 atoms, finish time Mon Sep 21 20:52:02 2020


Pair  time (%) = 2.97539 (43.1419)
Neigh time (%) = 0.439086 (6.36656)
Comm  time (%) = 0.320197 (4.64272)
Outpt time (%) = 0.05028 (0.729039)
Other time (%) = 3.1118 (45.1198)

Nlocal:    71511.5 ave 102405 max 50148 min
Histogram: 2 0 0 0 0 1 0 0 0 1
Nghost:    6782.5 ave 8094 max 5570 min
Histogram: 2 0 0 0 0 0 0 0 1 1
Neighs:    1.03552e+06 ave 1.57717e+06 max 696118 min
Histogram: 2 0 0 0 1 0 0 0 0 1

Total # of neighbors = 4142088
Ave neighs/atom = 14.4805
Neighbor list builds = 4
Dangerous builds = 0
run 100    
Setting up run at Mon Sep 21 20:52:03 2020

Memory usage per processor = 169.59 Mbytes
    Step    Atoms         KinEng            rke         Volume       centerOf       dragtota       dragtota       dragtota 
  690902   286046   0.0012151026  1.7031954e-05         0.0051    0.014608349    0.040387752     0.17483141     0.58146194 
CFD Coupling established at step 691000
  691000   286046   0.0012190493  1.7024892e-05         0.0051    0.014662976    0.040387752     0.17483141     0.58146194 
  691002   286046   0.0012191426  1.7030975e-05         0.0051    0.014664116    0.040387752     0.17483141     0.58146194 
Loop time of 6.86918 on 4 procs for 100 steps with 286046 atoms, finish time Mon Sep 21 20:52:10 2020


Pair  time (%) = 2.99238 (43.5624)
Neigh time (%) = 0.445264 (6.48205)
Comm  time (%) = 0.328987 (4.78931)
Outpt time (%) = 0.0488958 (0.711814)
Other time (%) = 3.05366 (44.4544)

Nlocal:    71511.5 ave 102522 max 50228 min
Histogram: 2 0 0 0 0 1 0 0 0 1
Nghost:    6786.75 ave 8105 max 5538 min
Histogram: 2 0 0 0 0 0 0 0 1 1
Neighs:    1.03393e+06 ave 1.57664e+06 max 695253 min
Histogram: 2 0 0 0 1 0 0 0 0 1

Total # of neighbors = 4135716
Ave neighs/atom = 14.4582
Neighbor list builds = 4
Dangerous builds = 0
run 100    
Setting up run at Mon Sep 21 20:52:11 2020

Memory usage per processor = 169.59 Mbytes
    Step    Atoms         KinEng            rke         Volume       centerOf       dragtota       dragtota       dragtota 
  691002   286046   0.0012191426  1.7030975e-05         0.0051    0.014664116    0.039506968     0.17050273     0.57578807 
CFD Coupling established at step 691100
  691100   286046   0.0012226689  1.7084898e-05         0.0051    0.014721123    0.039506968     0.17050273     0.57578807 
  691102   286046   0.0012227987  1.7074837e-05         0.0051     0.01472231    0.039506968     0.17050273     0.57578807 
Loop time of 7.25928 on 4 procs for 100 steps with 286046 atoms, finish time Mon Sep 21 20:52:19 2020


Pair  time (%) = 3.42637 (47.1998)
Neigh time (%) = 0.464606 (6.40017)
Comm  time (%) = 0.317618 (4.37534)
Outpt time (%) = 0.0507689 (0.699366)
Other time (%) = 2.99992 (41.3253)

Nlocal:    71511.5 ave 102633 max 50352 min
Histogram: 2 0 0 0 0 1 0 0 0 1
Nghost:    6796.25 ave 8106 max 5555 min
Histogram: 2 0 0 0 0 0 0 0 1 1
Neighs:    1.03251e+06 ave 1.57622e+06 max 694966 min
Histogram: 2 0 0 0 1 0 0 0 0 1

Total # of neighbors = 4130049
Ave neighs/atom = 14.4384
Neighbor list builds = 4
Dangerous builds = 0
run 100    
Setting up run at Mon Sep 21 20:52:20 2020

Memory usage per processor = 169.59 Mbytes
    Step    Atoms         KinEng            rke         Volume       centerOf       dragtota       dragtota       dragtota 
  691102   286046   0.0012227987  1.7074837e-05         0.0051     0.01472231    0.039410888     0.16417892     0.56905049 
CFD Coupling established at step 691200
  691200   286046   0.0012251228  1.7216832e-05         0.0051    0.014781576    0.039410888     0.16417892     0.56905049 
  691202   286046   0.0012251995  1.7223281e-05         0.0051    0.014782808    0.039410888     0.16417892     0.56905049 
Loop time of 7.80357 on 4 procs for 100 steps with 286046 atoms, finish time Mon Sep 21 20:52:28 2020


Pair  time (%) = 3.36617 (43.1363)
Neigh time (%) = 0.465866 (5.9699)
Comm  time (%) = 0.367944 (4.71507)
Outpt time (%) = 0.0834025 (1.06877)
Other time (%) = 3.52019 (45.11)

Nlocal:    71511.5 ave 102728 max 50464 min
Histogram: 2 0 0 0 0 1 0 0 0 1
Nghost:    6805.5 ave 8118 max 5592 min
Histogram: 2 0 0 0 0 0 0 0 1 1
Neighs:    1.0311e+06 ave 1.57531e+06 max 694796 min
Histogram: 2 0 0 0 1 0 0 0 0 1

Total # of neighbors = 4124396
Ave neighs/atom = 14.4186
Neighbor list builds = 4
Dangerous builds = 0
run 100    
Setting up run at Mon Sep 21 20:52:30 2020

Memory usage per processor = 169.59 Mbytes
    Step    Atoms         KinEng            rke         Volume       centerOf       dragtota       dragtota       dragtota 
  691202   286046   0.0012251995  1.7223281e-05         0.0051    0.014782808    0.039500148     0.15755226     0.56404411 
CFD Coupling established at step 691300
  691300   286046   0.0012251955   1.747999e-05         0.0051    0.014844197    0.039500148     0.15755226     0.56404411 
  691302   286046   0.0012252301  1.7481133e-05         0.0051    0.014845471    0.039500148     0.15755226     0.56404411 
Loop time of 7.07041 on 4 procs for 100 steps with 286046 atoms, finish time Mon Sep 21 20:52:37 2020


Pair  time (%) = 3.15736 (44.656)
Neigh time (%) = 0.455036 (6.43578)
Comm  time (%) = 0.359193 (5.08023)
Outpt time (%) = 0.0482561 (0.682508)
Other time (%) = 3.05056 (43.1455)

Nlocal:    71511.5 ave 102748 max 50603 min
Histogram: 2 0 0 0 0 1 0 0 0 1
Nghost:    6814.5 ave 8113 max 5592 min
Histogram: 2 0 0 0 0 0 0 0 1 1
Neighs:    1.02978e+06 ave 1.57313e+06 max 695236 min
Histogram: 2 0 0 0 1 0 0 0 0 1

Total # of neighbors = 4119104
Ave neighs/atom = 14.4001
Neighbor list builds = 4
Dangerous builds = 0
run 100    
Setting up run at Mon Sep 21 20:52:38 2020

Memory usage per processor = 169.594 Mbytes
    Step    Atoms         KinEng            rke         Volume       centerOf       dragtota       dragtota       dragtota 
  691302   286046   0.0012252301  1.7481133e-05         0.0051    0.014845471    0.039138348     0.15215961     0.55971667 
CFD Coupling established at step 691400
  691400   286046   0.0012216483  1.7947799e-05         0.0051    0.014908869    0.039138348     0.15215961     0.55971667 
  691402   286046   0.0012215542  1.7955908e-05         0.0051    0.014910183    0.039138348     0.15215961     0.55971667 
Loop time of 8.28858 on 4 procs for 100 steps with 286046 atoms, finish time Mon Sep 21 20:52:47 2020


Pair  time (%) = 3.54993 (42.8291)
Neigh time (%) = 0.500538 (6.0389)
Comm  time (%) = 0.430224 (5.19057)
Outpt time (%) = 0.0411947 (0.497005)
Other time (%) = 3.76669 (45.4444)

Nlocal:    71511.5 ave 102818 max 50789 min
Histogram: 2 0 0 0 0 1 0 0 0 1
Nghost:    6846 ave 8168 max 5651 min
Histogram: 2 0 0 0 0 0 0 0 1 1
Neighs:    1.02884e+06 ave 1.57178e+06 max 696082 min
Histogram: 2 0 0 0 1 0 0 0 0 1

Total # of neighbors = 4115352
Ave neighs/atom = 14.387
Neighbor list builds = 4
Dangerous builds = 0
run 100    
Setting up run at Mon Sep 21 20:52:48 2020

Memory usage per processor = 169.594 Mbytes
    Step    Atoms         KinEng            rke         Volume       centerOf       dragtota       dragtota       dragtota 
  691402   286046   0.0012215542  1.7955908e-05         0.0051    0.014910183    0.038104866     0.14690577     0.55616859 
CFD Coupling established at step 691500
  691500   286046   0.0012151195  1.8182679e-05         0.0051    0.014975477    0.038104866     0.14690577     0.55616859 
  691502   286046   0.0012149682  1.8197329e-05         0.0051    0.014976829    0.038104866     0.14690577     0.55616859 
Loop time of 7.07884 on 4 procs for 100 steps with 286046 atoms, finish time Mon Sep 21 20:52:56 2020


Pair  time (%) = 3.11376 (43.9869)
Neigh time (%) = 0.437537 (6.18091)
Comm  time (%) = 0.329572 (4.65573)
Outpt time (%) = 0.0678642 (0.958691)
Other time (%) = 3.13011 (44.2178)

Nlocal:    71511.5 ave 102870 max 50749 min
Histogram: 2 0 0 0 0 1 0 0 0 1
Nghost:    6868.5 ave 8217 max 5680 min
Histogram: 2 0 0 0 0 0 0 0 1 1
Neighs:    1.02782e+06 ave 1.56939e+06 max 697064 min
Histogram: 2 0 0 0 1 0 0 0 0 1

Total # of neighbors = 4111291
Ave neighs/atom = 14.3728
Neighbor list builds = 4
Dangerous builds = 0
run 100    
Setting up run at Mon Sep 21 20:52:57 2020

Memory usage per processor = 169.594 Mbytes
    Step    Atoms         KinEng            rke         Volume       centerOf       dragtota       dragtota       dragtota 
  691502   286046   0.0012149682  1.8197329e-05         0.0051    0.014976829    0.037884464     0.14199517     0.55275093 
CFD Coupling established at step 691600
  691600   286046   0.0012093752  1.8022444e-05         0.0051    0.015043949    0.037884464     0.14199517     0.55275093 
  691602   286046   0.0012093554   1.801447e-05         0.0051    0.015045337    0.037884464     0.14199517     0.55275093 
Loop time of 6.79806 on 4 procs for 100 steps with 286046 atoms, finish time Mon Sep 21 20:53:04 2020


Pair  time (%) = 3.15747 (46.4466)
Neigh time (%) = 0.451179 (6.63688)
Comm  time (%) = 0.299986 (4.41281)
Outpt time (%) = 0.0405384 (0.596323)
Other time (%) = 2.84889 (41.9074)

Nlocal:    71511.5 ave 102830 max 50492 min
Histogram: 2 0 0 0 0 1 0 0 0 1
Nghost:    6880.25 ave 8193 max 5703 min
Histogram: 2 0 0 0 0 0 0 0 1 1
Neighs:    1.02672e+06 ave 1.56569e+06 max 698973 min
Histogram: 2 0 0 0 1 0 0 0 0 1

Total # of neighbors = 4106874
Ave neighs/atom = 14.3574
Neighbor list builds = 4
Dangerous builds = 0
run 100    
Setting up run at Mon Sep 21 20:53:05 2020

Memory usage per processor = 169.594 Mbytes
    Step    Atoms         KinEng            rke         Volume       centerOf       dragtota       dragtota       dragtota 
  691602   286046   0.0012093554   1.801447e-05         0.0051    0.015045337    0.036621168     0.13681174     0.54790972 
CFD Coupling established at step 691700
  691700   286046   0.0012062548    1.76838e-05         0.0051    0.015114214    0.036621168     0.13681174     0.54790972 
  691702   286046   0.0012062261  1.7681194e-05         0.0051    0.015115638    0.036621168     0.13681174     0.54790972 
Loop time of 6.50647 on 4 procs for 100 steps with 286046 atoms, finish time Mon Sep 21 20:53:12 2020


Pair  time (%) = 2.87711 (44.2192)
Neigh time (%) = 0.438351 (6.73715)
Comm  time (%) = 0.321118 (4.93536)
Outpt time (%) = 0.0469245 (0.721197)
Other time (%) = 2.82297 (43.387)

Nlocal:    71511.5 ave 102807 max 50254 min
Histogram: 2 0 0 0 0 1 0 0 0 1
Nghost:    6894 ave 8220 max 5720 min
Histogram: 2 0 0 0 0 0 0 0 1 1
Neighs:    1.02574e+06 ave 1.56235e+06 max 700651 min
Histogram: 2 0 0 0 1 0 0 0 0 1

Total # of neighbors = 4102942
Ave neighs/atom = 14.3436
Neighbor list builds = 4
Dangerous builds = 0
run 100    
Setting up run at Mon Sep 21 20:53:13 2020

Memory usage per processor = 169.594 Mbytes
    Step    Atoms         KinEng            rke         Volume       centerOf       dragtota       dragtota       dragtota 
  691702   286046   0.0012062261  1.7681194e-05         0.0051    0.015115638     0.03480193     0.13155795      0.5416335 
CFD Coupling established at step 691800
  691800   286046   0.0012041245  1.7624591e-05         0.0051    0.015186209     0.03480193     0.13155795      0.5416335 
  691802   286046   0.0012041044  1.7625633e-05         0.0051    0.015187666     0.03480193     0.13155795      0.5416335 
Loop time of 6.95591 on 4 procs for 100 steps with 286046 atoms, finish time Mon Sep 21 20:53:20 2020


Pair  time (%) = 3.00274 (43.1682)
Neigh time (%) = 0.456316 (6.56012)
Comm  time (%) = 0.345309 (4.96425)
Outpt time (%) = 0.0586683 (0.843431)
Other time (%) = 3.09288 (44.464)

Nlocal:    71511.5 ave 102721 max 49997 min
Histogram: 2 0 0 0 0 1 0 0 0 1
Nghost:    6918.5 ave 8231 max 5757 min
Histogram: 2 0 0 0 0 0 0 0 1 1
Neighs:    1.02475e+06 ave 1.55852e+06 max 703356 min
Histogram: 2 0 0 0 1 0 0 0 0 1

Total # of neighbors = 4098998
Ave neighs/atom = 14.3299
Neighbor list builds = 4
Dangerous builds = 0
run 100    
Setting up run at Mon Sep 21 20:53:21 2020

Memory usage per processor = 169.594 Mbytes
    Step    Atoms         KinEng            rke         Volume       centerOf       dragtota       dragtota       dragtota 
  691802   286046   0.0012041044  1.7625633e-05         0.0051    0.015187666    0.033513696     0.12732843     0.53471314 
CFD Coupling established at step 691900
  691900   286046   0.0012026301  1.7571682e-05         0.0051     0.01525982    0.033513696     0.12732843     0.53471314 
  691902   286046   0.0012026132   1.757755e-05         0.0051    0.015261308    0.033513696     0.12732843     0.53471314 
Loop time of 6.52353 on 4 procs for 100 steps with 286046 atoms, finish time Mon Sep 21 20:53:28 2020


Pair  time (%) = 2.88637 (44.2454)
Neigh time (%) = 0.445675 (6.8318)
Comm  time (%) = 0.31568 (4.83909)
Outpt time (%) = 0.04477 (0.686285)
Other time (%) = 2.83104 (43.3974)

Nlocal:    71511.5 ave 102624 max 49743 min
Histogram: 2 0 0 0 0 0 1 0 0 1
Nghost:    6953.75 ave 8269 max 5798 min
Histogram: 2 0 0 0 0 0 0 0 1 1
Neighs:    1.02338e+06 ave 1.55387e+06 max 706089 min
Histogram: 2 0 0 0 1 0 0 0 0 1

Total # of neighbors = 4093530
Ave neighs/atom = 14.3107
Neighbor list builds = 4
Dangerous builds = 0
run 100    
Setting up run at Mon Sep 21 20:53:29 2020

Memory usage per processor = 169.594 Mbytes
    Step    Atoms         KinEng            rke         Volume       centerOf       dragtota       dragtota       dragtota 
  691902   286046   0.0012026132   1.757755e-05         0.0051    0.015261308    0.031723384     0.12373294     0.52938072 
CFD Coupling established at step 692000
  692000   286046   0.0012020562  1.7469162e-05         0.0051    0.015334898    0.031723384     0.12373294     0.52938072 
  692002   286046   0.0012020847  1.7460396e-05         0.0051    0.015336414    0.031723384     0.12373294     0.52938072 
Loop time of 8.46565 on 4 procs for 100 steps with 286046 atoms, finish time Mon Sep 21 20:53:38 2020


Pair  time (%) = 3.61063 (42.6503)
Neigh time (%) = 0.497005 (5.87084)
Comm  time (%) = 0.403829 (4.77021)
Outpt time (%) = 0.0542852 (0.641241)
Other time (%) = 3.8999 (46.0674)

Nlocal:    71511.5 ave 102501 max 49518 min
Histogram: 2 0 0 0 0 0 1 0 0 1
Nghost:    6979.5 ave 8294 max 5815 min
Histogram: 2 0 0 0 0 0 0 1 0 1
Neighs:    1.02216e+06 ave 1.54838e+06 max 708928 min
Histogram: 2 0 0 0 1 0 0 0 0 1

Total # of neighbors = 4088655
Ave neighs/atom = 14.2937
Neighbor list builds = 4
Dangerous builds = 0
run 100    
Setting up run at Mon Sep 21 20:53:39 2020

Memory usage per processor = 169.594 Mbytes
    Step    Atoms         KinEng            rke         Volume       centerOf       dragtota       dragtota       dragtota 
  692002   286046   0.0012020847  1.7460396e-05         0.0051    0.015336414    0.030511498     0.12077173     0.52377317 
CFD Coupling established at step 692100
  692100   286046   0.0012023409  1.7373171e-05         0.0051    0.015411327    0.030511498     0.12077173     0.52377317 
  692102   286046   0.0012024409  1.7369803e-05         0.0051    0.015412868    0.030511498     0.12077173     0.52377317 
Loop time of 7.16609 on 4 procs for 100 steps with 286046 atoms, finish time Mon Sep 21 20:53:47 2020


Pair  time (%) = 3.15628 (44.0447)
Neigh time (%) = 0.463969 (6.4745)
Comm  time (%) = 0.352544 (4.91962)
Outpt time (%) = 0.0438068 (0.611307)
Other time (%) = 3.14949 (43.9499)

Nlocal:    71511.5 ave 102353 max 49285 min
Histogram: 2 0 0 0 0 0 1 0 0 1
Nghost:    7004.75 ave 8348 max 5845 min
Histogram: 2 0 0 0 0 0 0 1 0 1
Neighs:    1.02073e+06 ave 1.54285e+06 max 712378 min
Histogram: 2 0 0 0 1 0 0 0 0 1

Total # of neighbors = 4082914
Ave neighs/atom = 14.2736
Neighbor list builds = 4
Dangerous builds = 0
run 100    
Setting up run at Mon Sep 21 20:53:48 2020

Memory usage per processor = 169.594 Mbytes
    Step    Atoms         KinEng            rke         Volume       centerOf       dragtota       dragtota       dragtota 
  692102   286046   0.0012024409  1.7369803e-05         0.0051    0.015412868    0.031914536     0.11647575     0.51726459 
CFD Coupling established at step 692200
  692200   286046   0.0012027741  1.7264615e-05         0.0051    0.015488967    0.031914536     0.11647575     0.51726459 
  692202   286046    0.001202796    1.72662e-05         0.0051    0.015490532    0.031914536     0.11647575     0.51726459 
Loop time of 6.60906 on 4 procs for 100 steps with 286046 atoms, finish time Mon Sep 21 20:53:55 2020


Pair  time (%) = 2.9002 (43.8822)
Neigh time (%) = 0.435758 (6.59334)
Comm  time (%) = 0.31682 (4.79371)
Outpt time (%) = 0.0398767 (0.603364)
Other time (%) = 2.9164 (44.1273)

Nlocal:    71511.5 ave 102174 max 49058 min
Histogram: 2 0 0 0 0 0 1 0 0 1
Nghost:    7036.75 ave 8365 max 5924 min
Histogram: 2 0 0 0 0 0 0 1 0 1
Neighs:    1.01958e+06 ave 1.53639e+06 max 716127 min
Histogram: 2 0 0 0 1 0 0 0 0 1

Total # of neighbors = 4078310
Ave neighs/atom = 14.2575
Neighbor list builds = 4
Dangerous builds = 0
run 100    
Setting up run at Mon Sep 21 20:53:56 2020

Memory usage per processor = 169.594 Mbytes
    Step    Atoms         KinEng            rke         Volume       centerOf       dragtota       dragtota       dragtota 
  692202   286046    0.001202796    1.72662e-05         0.0051    0.015490532    0.031086428     0.11281031     0.51015438 
CFD Coupling established at step 692300
  692300   286046   0.0012033815  1.7195165e-05         0.0051    0.015567695    0.031086428     0.11281031     0.51015438 
  692302   286046   0.0012034464  1.7195496e-05         0.0051     0.01556928    0.031086428     0.11281031     0.51015438 
Loop time of 6.75669 on 4 procs for 100 steps with 286046 atoms, finish time Mon Sep 21 20:54:03 2020


Pair  time (%) = 3.01426 (44.6115)
Neigh time (%) = 0.456774 (6.76032)
Comm  time (%) = 0.314875 (4.66019)
Outpt time (%) = 0.0420247 (0.621972)
Other time (%) = 2.92875 (43.346)

Nlocal:    71511.5 ave 101976 max 48853 min
Histogram: 2 0 0 0 0 0 1 0 0 1
Nghost:    7065 ave 8426 max 5936 min
Histogram: 2 0 0 0 0 0 0 1 0 1
Neighs:    1.01856e+06 ave 1.5294e+06 max 720828 min
Histogram: 2 0 0 0 1 0 0 0 0 1

Total # of neighbors = 4074252
Ave neighs/atom = 14.2433
Neighbor list builds = 4
Dangerous builds = 0
run 100    
Setting up run at Mon Sep 21 20:54:04 2020

Memory usage per processor = 169.594 Mbytes
    Step    Atoms         KinEng            rke         Volume       centerOf       dragtota       dragtota       dragtota 
  692302   286046   0.0012034464  1.7195496e-05         0.0051     0.01556928    0.029711056     0.10970647     0.50156806 
CFD Coupling established at step 692400
  692400   286046   0.0012031345  1.7215178e-05         0.0051    0.015647367    0.029711056     0.10970647     0.50156806 
  692402   286046   0.0012031278  1.7212903e-05         0.0051    0.015648969    0.029711056     0.10970647     0.50156806 
Loop time of 6.50252 on 4 procs for 100 steps with 286046 atoms, finish time Mon Sep 21 20:54:11 2020


Pair  time (%) = 2.8727 (44.1783)
Neigh time (%) = 0.438933 (6.7502)
Comm  time (%) = 0.313427 (4.82009)
Outpt time (%) = 0.0606858 (0.933265)
Other time (%) = 2.81677 (43.3182)

Nlocal:    71511.5 ave 101721 max 48663 min
Histogram: 2 0 0 0 0 0 1 0 0 1
Nghost:    7088.25 ave 8452 max 5974 min
Histogram: 2 0 0 0 0 0 0 1 0 1
Neighs:    1.01754e+06 ave 1.52233e+06 max 725110 min
Histogram: 2 0 0 0 1 0 0 0 0 1

Total # of neighbors = 4070171
Ave neighs/atom = 14.2291
Neighbor list builds = 4
Dangerous builds = 0
run 100    
Setting up run at Mon Sep 21 20:54:12 2020

Memory usage per processor = 169.594 Mbytes
    Step    Atoms         KinEng            rke         Volume       centerOf       dragtota       dragtota       dragtota 
  692402   286046   0.0012031278  1.7212903e-05         0.0051    0.015648969    0.029361916     0.10584635     0.49197261 
CFD Coupling established at step 692500
  692500   286046   0.0012021671    1.72538e-05         0.0051      0.0157278    0.029361916     0.10584635     0.49197261 
  692502   286046    0.001202162  1.7256505e-05         0.0051    0.015729415    0.029361916     0.10584635     0.49197261 
Loop time of 6.28324 on 4 procs for 100 steps with 286046 atoms, finish time Mon Sep 21 20:54:18 2020


Pair  time (%) = 2.85637 (45.4601)
Neigh time (%) = 0.437671 (6.96569)
Comm  time (%) = 0.312121 (4.96752)
Outpt time (%) = 0.0400999 (0.638203)
Other time (%) = 2.63698 (41.9685)

Nlocal:    71511.5 ave 101451 max 48461 min
Histogram: 1 1 0 0 0 0 1 0 0 1
Nghost:    7111 ave 8470 max 6056 min
Histogram: 2 0 0 0 0 0 0 1 0 1
Neighs:    1.01641e+06 ave 1.51435e+06 max 721959 min
Histogram: 2 0 0 0 1 0 0 0 0 1

Total # of neighbors = 4065638
Ave neighs/atom = 14.2132
Neighbor list builds = 4
Dangerous builds = 0
run 100    
Setting up run at Mon Sep 21 20:54:19 2020

Memory usage per processor = 169.594 Mbytes
    Step    Atoms         KinEng            rke         Volume       centerOf       dragtota       dragtota       dragtota 
  692502   286046    0.001202162  1.7256505e-05         0.0051    0.015729415    0.028295787     0.10268524     0.48455245 
CFD Coupling established at step 692600
  692600   286046   0.0012016774   1.713849e-05         0.0051    0.015808818    0.028295787     0.10268524     0.48455245 
  692602   286046   0.0012016313  1.7147898e-05         0.0051    0.015810444    0.028295787     0.10268524     0.48455245 
Loop time of 7.10587 on 4 procs for 100 steps with 286046 atoms, finish time Mon Sep 21 20:54:27 2020


Pair  time (%) = 3.18298 (44.7937)
Neigh time (%) = 0.47414 (6.67251)
Comm  time (%) = 0.348263 (4.90106)
Outpt time (%) = 0.0396498 (0.557987)
Other time (%) = 3.06084 (43.0748)

Nlocal:    71511.5 ave 101127 max 48297 min
Histogram: 1 1 0 0 0 0 1 0 0 1
Nghost:    7161.25 ave 8523 max 6118 min
Histogram: 2 0 0 0 0 0 0 1 0 1
Neighs:    1.01547e+06 ave 1.50564e+06 max 718494 min
Histogram: 2 0 0 0 1 0 0 0 0 1

Total # of neighbors = 4061873
Ave neighs/atom = 14.2001
Neighbor list builds = 4
Dangerous builds = 0
run 100    
Setting up run at Mon Sep 21 20:54:28 2020

Memory usage per processor = 169.594 Mbytes
    Step    Atoms         KinEng            rke         Volume       centerOf       dragtota       dragtota       dragtota 
  692602   286046   0.0012016313  1.7147898e-05         0.0051    0.015810444     0.02853949    0.099725776     0.47850478 
CFD Coupling established at step 692700
  692700   286046   0.0012007845  1.7141037e-05         0.0051    0.015890287     0.02853949    0.099725776     0.47850478 
  692702   286046   0.0012007593  1.7148285e-05         0.0051     0.01589192     0.02853949    0.099725776     0.47850478 
Loop time of 6.25746 on 4 procs for 100 steps with 286046 atoms, finish time Mon Sep 21 20:54:35 2020


Pair  time (%) = 2.84936 (45.5354)
Neigh time (%) = 0.450962 (7.2068)
Comm  time (%) = 0.333745 (5.33355)
Outpt time (%) = 0.0405194 (0.647538)
Other time (%) = 2.58288 (41.2767)

Nlocal:    71511.5 ave 100811 max 48151 min
Histogram: 1 1 0 0 0 0 1 0 0 1
Nghost:    7214.5 ave 8531 max 6224 min
Histogram: 2 0 0 0 0 0 1 0 0 1
Neighs:    1.01411e+06 ave 1.4959e+06 max 715341 min
Histogram: 2 0 0 0 1 0 0 0 0 1

Total # of neighbors = 4056456
Ave neighs/atom = 14.1811
Neighbor list builds = 4
Dangerous builds = 0
run 100    
Setting up run at Mon Sep 21 20:54:36 2020

Memory usage per processor = 169.594 Mbytes
    Step    Atoms         KinEng            rke         Volume       centerOf       dragtota       dragtota       dragtota 
  692702   286046   0.0012007593  1.7148285e-05         0.0051     0.01589192    0.026961911    0.097593031      0.4746214 
CFD Coupling established at step 692800
  692800   286046   0.0012008325  1.7054695e-05         0.0051    0.015972127    0.026961911    0.097593031      0.4746214 
  692802   286046   0.0012008921  1.7058054e-05         0.0051    0.015973767    0.026961911    0.097593031      0.4746214 
Loop time of 6.00049 on 4 procs for 100 steps with 286046 atoms, finish time Mon Sep 21 20:54:42 2020


Pair  time (%) = 2.72328 (45.3844)
Neigh time (%) = 0.4484 (7.47272)
Comm  time (%) = 0.325328 (5.42169)
Outpt time (%) = 0.0362845 (0.604693)
Other time (%) = 2.46719 (41.1165)

Nlocal:    71511.5 ave 100404 max 48054 min
Histogram: 1 1 0 0 0 0 1 0 0 1
Nghost:    7281.25 ave 8501 max 6364 min
Histogram: 2 0 0 0 0 0 0 1 0 1
Neighs:    1.01316e+06 ave 1.48577e+06 max 712837 min
Histogram: 2 0 0 0 0 1 0 0 0 1

Total # of neighbors = 4052637
Ave neighs/atom = 14.1678
Neighbor list builds = 4
Dangerous builds = 0
run 100    
Setting up run at Mon Sep 21 20:54:43 2020

Memory usage per processor = 169.594 Mbytes
    Step    Atoms         KinEng            rke         Volume       centerOf       dragtota       dragtota       dragtota 
  692802   286046   0.0012008921  1.7058054e-05         0.0051    0.015973767    0.026565427    0.094798145      0.4667629 
CFD Coupling established at step 692900
  692900   286046   0.0012011457  1.6887275e-05         0.0051    0.016054234    0.026565427    0.094798145      0.4667629 
  692902   286046   0.0012011757  1.6882784e-05         0.0051    0.016055878    0.026565427    0.094798145      0.4667629 
Loop time of 6.37764 on 4 procs for 100 steps with 286046 atoms, finish time Mon Sep 21 20:54:50 2020


Pair  time (%) = 3.01676 (47.3021)
Neigh time (%) = 0.454763 (7.13058)
Comm  time (%) = 0.328217 (5.14637)
Outpt time (%) = 0.0438161 (0.687027)
Other time (%) = 2.53409 (39.7339)

Nlocal:    71511.5 ave 100018 max 47959 min
Histogram: 1 1 0 0 0 0 1 0 0 1
Nghost:    7351.75 ave 8535 max 6468 min
Histogram: 2 0 0 0 0 0 1 0 0 1
Neighs:    1.01232e+06 ave 1.47589e+06 max 710125 min
Histogram: 2 0 0 0 0 1 0 0 0 1

Total # of neighbors = 4049265
Ave neighs/atom = 14.156
Neighbor list builds = 4
Dangerous builds = 0
run 100    
Setting up run at Mon Sep 21 20:54:51 2020

Memory usage per processor = 169.594 Mbytes
    Step    Atoms         KinEng            rke         Volume       centerOf       dragtota       dragtota       dragtota 
  692902   286046   0.0012011757  1.6882784e-05         0.0051    0.016055878     0.02655599    0.091236876     0.45500462 
CFD Coupling established at step 693000
  693000   286046   0.0012021417  1.6597917e-05         0.0051    0.016136405     0.02655599    0.091236876     0.45500462 
  693002   286046   0.0012022049  1.6604117e-05         0.0051    0.016138048     0.02655599    0.091236876     0.45500462 
Loop time of 7.25037 on 4 procs for 100 steps with 286046 atoms, finish time Mon Sep 21 20:54:58 2020


Pair  time (%) = 3.2243 (44.4709)
Neigh time (%) = 0.466457 (6.43355)
Comm  time (%) = 0.374985 (5.17194)
Outpt time (%) = 0.0354245 (0.488589)
Other time (%) = 3.1492 (43.435)

Nlocal:    71511.5 ave 99508 max 47992 min
Histogram: 1 1 0 0 0 0 1 0 0 1
Nghost:    7412.75 ave 8540 max 6536 min
Histogram: 2 0 0 0 0 0 0 1 0 1
Neighs:    1.01122e+06 ave 1.46415e+06 max 709149 min
Histogram: 2 0 0 0 0 1 0 0 0 1

Total # of neighbors = 4044887
Ave neighs/atom = 14.1407
Neighbor list builds = 4
Dangerous builds = 0
run 100    
Setting up run at Mon Sep 21 20:54:59 2020

Memory usage per processor = 169.594 Mbytes
    Step    Atoms         KinEng            rke         Volume       centerOf       dragtota       dragtota       dragtota 
  693002   286046   0.0012022049  1.6604117e-05         0.0051    0.016138048    0.026618649    0.089368818     0.44619078 
CFD Coupling established at step 693100
  693100   286046   0.0012032249  1.6329113e-05         0.0051    0.016218457    0.026618649    0.089368818     0.44619078 
  693102   286046   0.0012032827  1.6322172e-05         0.0051    0.016220096    0.026618649    0.089368818     0.44619078 
Loop time of 6.33485 on 4 procs for 100 steps with 286046 atoms, finish time Mon Sep 21 20:55:06 2020


Pair  time (%) = 2.92234 (46.1311)
Neigh time (%) = 0.43729 (6.90292)
Comm  time (%) = 0.307369 (4.85203)
Outpt time (%) = 0.032102 (0.506753)
Other time (%) = 2.63576 (41.6072)

Nlocal:    71511.5 ave 98991 max 47965 min
Histogram: 1 1 0 0 0 0 1 0 0 1
Nghost:    7479.25 ave 8577 max 6612 min
Histogram: 2 0 0 0 0 0 0 1 0 1
Neighs:    1.00962e+06 ave 1.45124e+06 max 706787 min
Histogram: 2 0 0 0 0 1 0 0 0 1

Total # of neighbors = 4038469
Ave neighs/atom = 14.1183
Neighbor list builds = 4
Dangerous builds = 0
run 100    
Setting up run at Mon Sep 21 20:55:07 2020

Memory usage per processor = 169.594 Mbytes
    Step    Atoms         KinEng            rke         Volume       centerOf       dragtota       dragtota       dragtota 
  693102   286046   0.0012032827  1.6322172e-05         0.0051    0.016220096    0.026480677    0.087221038     0.43678986 
CFD Coupling established at step 693200
  693200   286046   0.0012044179   1.615059e-05         0.0051    0.016300224    0.026480677    0.087221038     0.43678986 
  693202   286046   0.0012044585  1.6150502e-05         0.0051    0.016301856    0.026480677    0.087221038     0.43678986 
Loop time of 6.6094 on 4 procs for 100 steps with 286046 atoms, finish time Mon Sep 21 20:55:14 2020


Pair  time (%) = 3.14968 (47.6545)
Neigh time (%) = 0.449488 (6.80073)
Comm  time (%) = 0.338111 (5.11561)
Outpt time (%) = 0.0270317 (0.408989)
Other time (%) = 2.64509 (40.0201)

Nlocal:    71511.5 ave 98413 max 48037 min
Histogram: 1 1 0 0 0 0 1 0 0 1
Nghost:    7551.75 ave 8608 max 6702 min
Histogram: 2 0 0 0 0 0 0 1 0 1
Neighs:    1.00811e+06 ave 1.43791e+06 max 706050 min
Histogram: 2 0 0 0 0 1 0 0 0 1

Total # of neighbors = 4032429
Ave neighs/atom = 14.0971
Neighbor list builds = 4
Dangerous builds = 0
run 100    
Setting up run at Mon Sep 21 20:55:16 2020

Memory usage per processor = 169.594 Mbytes
    Step    Atoms         KinEng            rke         Volume       centerOf       dragtota       dragtota       dragtota 
  693202   286046   0.0012044585  1.6150502e-05         0.0051    0.016301856    0.026645352    0.085088229     0.42838009 
CFD Coupling established at step 693300
  693300   286046   0.0012053564  1.5978042e-05         0.0051    0.016381518    0.026645352    0.085088229     0.42838009 
  693302   286046   0.0012053838   1.597331e-05         0.0051    0.016383138    0.026645352    0.085088229     0.42838009 
Loop time of 6.41492 on 4 procs for 100 steps with 286046 atoms, finish time Mon Sep 21 20:55:22 2020


Pair  time (%) = 2.98543 (46.5388)
Neigh time (%) = 0.453996 (7.07719)
Comm  time (%) = 0.336231 (5.2414)
Outpt time (%) = 0.0335621 (0.523188)
Other time (%) = 2.6057 (40.6194)

Nlocal:    71511.5 ave 97827 max 48121 min
Histogram: 1 0 1 0 0 0 1 0 0 1
Nghost:    7606 ave 8675 max 6763 min
Histogram: 2 0 0 0 0 0 1 0 0 1
Neighs:    1.00622e+06 ave 1.42348e+06 max 705720 min
Histogram: 1 1 0 0 0 1 0 0 0 1

Total # of neighbors = 4024871
Ave neighs/atom = 14.0707
Neighbor list builds = 4
Dangerous builds = 0
run 100    
Setting up run at Mon Sep 21 20:55:23 2020

Memory usage per processor = 169.594 Mbytes
    Step    Atoms         KinEng            rke         Volume       centerOf       dragtota       dragtota       dragtota 
  693302   286046   0.0012053838   1.597331e-05         0.0051    0.016383138    0.025887745    0.084415805     0.42278502 
CFD Coupling established at step 693400
  693400   286046    0.001207374  1.5671192e-05         0.0051    0.016462199    0.025887745    0.084415805     0.42278502 
  693402   286046   0.0012074171  1.5676764e-05         0.0051    0.016463806    0.025887745    0.084415805     0.42278502 
Loop time of 6.19518 on 4 procs for 100 steps with 286046 atoms, finish time Mon Sep 21 20:55:30 2020


Pair  time (%) = 2.79749 (45.1559)
Neigh time (%) = 0.463664 (7.48426)
Comm  time (%) = 0.359471 (5.80243)
Outpt time (%) = 0.0331155 (0.534536)
Other time (%) = 2.54144 (41.0229)

Nlocal:    71511.5 ave 97178 max 48257 min
Histogram: 1 0 1 0 0 0 1 0 0 1
Nghost:    7667 ave 8689 max 6877 min
Histogram: 2 0 0 0 0 0 1 0 0 1
Neighs:    1.0045e+06 ave 1.40872e+06 max 706067 min
Histogram: 1 1 0 0 0 1 0 0 0 1

Total # of neighbors = 4018004
Ave neighs/atom = 14.0467
Neighbor list builds = 4
Dangerous builds = 0
run 100    
Setting up run at Mon Sep 21 20:55:31 2020

Memory usage per processor = 169.594 Mbytes
    Step    Atoms         KinEng            rke         Volume       centerOf       dragtota       dragtota       dragtota 
  693402   286046   0.0012074171  1.5676764e-05         0.0051    0.016463806    0.024912091    0.083077288     0.41785582 
CFD Coupling established at step 693500
  693500   286046    0.001209977  1.5452764e-05         0.0051    0.016542178    0.024912091    0.083077288     0.41785582 
  693502   286046   0.0012100545  1.5449091e-05         0.0051     0.01654377    0.024912091    0.083077288     0.41785582 
Loop time of 6.68536 on 4 procs for 100 steps with 286046 atoms, finish time Mon Sep 21 20:55:38 2020


Pair  time (%) = 3.0899 (46.219)
Neigh time (%) = 0.475112 (7.10676)
Comm  time (%) = 0.337295 (5.04528)
Outpt time (%) = 0.0329646 (0.493087)
Other time (%) = 2.75008 (41.1359)

Nlocal:    71511.5 ave 96488 max 48433 min
Histogram: 1 0 1 0 0 0 1 0 0 1
Nghost:    7722.5 ave 8720 max 6958 min
Histogram: 2 0 0 0 0 0 1 0 0 1
Neighs:    1.0022e+06 ave 1.3928e+06 max 707166 min
Histogram: 1 1 0 0 0 1 0 0 0 1

Total # of neighbors = 4008795
Ave neighs/atom = 14.0145
Neighbor list builds = 4
Dangerous builds = 0
run 100    
Setting up run at Mon Sep 21 20:55:39 2020

Memory usage per processor = 169.594 Mbytes
    Step    Atoms         KinEng            rke         Volume       centerOf       dragtota       dragtota       dragtota 
  693502   286046   0.0012100545  1.5449091e-05         0.0051     0.01654377    0.024519685    0.081344402     0.41200412 
CFD Coupling established at step 693600
  693600   286046   0.0012128354  1.5283319e-05         0.0051    0.016621355    0.024519685    0.081344402     0.41200412 
  693602   286046   0.0012129129   1.528214e-05         0.0051     0.01662293    0.024519685    0.081344402     0.41200412 
Loop time of 5.70387 on 4 procs for 100 steps with 286046 atoms, finish time Mon Sep 21 20:55:45 2020


Pair  time (%) = 2.67325 (46.8673)
Neigh time (%) = 0.441869 (7.74683)
Comm  time (%) = 0.290191 (5.08762)
Outpt time (%) = 0.0310948 (0.545152)
Other time (%) = 2.26746 (39.7531)

Nlocal:    71511.5 ave 95719 max 48626 min
Histogram: 1 0 1 0 0 0 0 1 0 1
Nghost:    7770.75 ave 8737 max 7053 min
Histogram: 2 0 0 0 0 0 1 0 0 1
Neighs:    999745 ave 1.37497e+06 max 708160 min
Histogram: 1 1 0 0 0 0 1 0 0 1

Total # of neighbors = 3998979
Ave neighs/atom = 13.9802
Neighbor list builds = 4
Dangerous builds = 0
run 100    
Setting up run at Mon Sep 21 20:55:46 2020

Memory usage per processor = 169.594 Mbytes
    Step    Atoms         KinEng            rke         Volume       centerOf       dragtota       dragtota       dragtota 
  693602   286046   0.0012129129   1.528214e-05         0.0051     0.01662293    0.023951898    0.079510724     0.40564054 
CFD Coupling established at step 693700
  693700   286046   0.0012161001  1.5049373e-05         0.0051    0.016699619    0.023951898    0.079510724     0.40564054 
  693702   286046   0.0012161777  1.5047264e-05         0.0051    0.016701174    0.023951898    0.079510724     0.40564054 
Loop time of 6.07774 on 4 procs for 100 steps with 286046 atoms, finish time Mon Sep 21 20:55:53 2020


Pair  time (%) = 2.93051 (48.2172)
Neigh time (%) = 0.477503 (7.85658)
Comm  time (%) = 0.307621 (5.06144)
Outpt time (%) = 0.0452178 (0.74399)
Other time (%) = 2.31688 (38.1208)

Nlocal:    71511.5 ave 94994 max 48850 min
Histogram: 1 0 1 0 0 0 0 1 0 1
Nghost:    7803.5 ave 8733 max 7157 min
Histogram: 2 0 0 0 0 1 0 0 0 1
Neighs:    997199 ave 1.35824e+06 max 709234 min
Histogram: 1 1 0 0 0 0 1 0 0 1

Total # of neighbors = 3988796
Ave neighs/atom = 13.9446
Neighbor list builds = 4
Dangerous builds = 0
run 100    
Setting up run at Mon Sep 21 20:55:54 2020

Memory usage per processor = 169.594 Mbytes
    Step    Atoms         KinEng            rke         Volume       centerOf       dragtota       dragtota       dragtota 
  693702   286046   0.0012161777  1.5047264e-05         0.0051    0.016701174     0.02289532    0.078206374     0.40015123 
CFD Coupling established at step 693800
  693800   286046   0.0012192205  1.4922471e-05         0.0051    0.016776853     0.02289532    0.078206374     0.40015123 
  693802   286046    0.001219312  1.4926185e-05         0.0051    0.016778386     0.02289532    0.078206374     0.40015123 
Loop time of 5.56434 on 4 procs for 100 steps with 286046 atoms, finish time Mon Sep 21 20:56:00 2020


Pair  time (%) = 2.61331 (46.9654)
Neigh time (%) = 0.441027 (7.92595)
Comm  time (%) = 0.279023 (5.01449)
Outpt time (%) = 0.0296499 (0.532855)
Other time (%) = 2.20133 (39.5613)

Nlocal:    71511.5 ave 94231 max 49091 min
Histogram: 1 0 1 0 0 0 0 1 0 1
Nghost:    7833.25 ave 8691 max 7264 min
Histogram: 2 0 0 0 0 1 0 0 0 1
Neighs:    994687 ave 1.34156e+06 max 710457 min
Histogram: 1 1 0 0 0 0 1 0 0 1

Total # of neighbors = 3978747
Ave neighs/atom = 13.9095
Neighbor list builds = 4
Dangerous builds = 0
run 100    
Setting up run at Mon Sep 21 20:56:01 2020

Memory usage per processor = 169.594 Mbytes
    Step    Atoms         KinEng            rke         Volume       centerOf       dragtota       dragtota       dragtota 
  693802   286046    0.001219312  1.4926185e-05         0.0051    0.016778386    0.022371848    0.076768276     0.39633024 
CFD Coupling established at step 693900
  693900   286046    0.001222903  1.4827108e-05         0.0051    0.016852964    0.022371848    0.076768276     0.39633024 
  693902   286046   0.0012229881  1.4827183e-05         0.0051    0.016854474    0.022371848    0.076768276     0.39633024 
Loop time of 5.82426 on 4 procs for 100 steps with 286046 atoms, finish time Mon Sep 21 20:56:08 2020


Pair  time (%) = 2.85722 (49.0573)
Neigh time (%) = 0.464337 (7.97246)
Comm  time (%) = 0.284346 (4.8821)
Outpt time (%) = 0.0287549 (0.49371)
Other time (%) = 2.1896 (37.5945)

Nlocal:    71511.5 ave 93436 max 49383 min
Histogram: 1 0 1 0 0 0 0 1 0 1
Nghost:    7881.5 ave 8719 max 7369 min
Histogram: 2 0 0 0 1 0 0 0 0 1
Neighs:    991773 ave 1.3234e+06 max 712125 min
Histogram: 1 1 0 0 0 0 1 0 0 1

Total # of neighbors = 3967093
Ave neighs/atom = 13.8687
Neighbor list builds = 4
Dangerous builds = 0
run 100    
Setting up run at Mon Sep 21 20:56:09 2020

Memory usage per processor = 169.594 Mbytes
    Step    Atoms         KinEng            rke         Volume       centerOf       dragtota       dragtota       dragtota 
  693902   286046   0.0012229881  1.4827183e-05         0.0051    0.016854474    0.021582485       0.075572     0.39223803 
CFD Coupling established at step 694000
  694000   286046    0.001226463  1.4689262e-05         0.0051    0.016927861    0.021582485       0.075572     0.39223803 
  694002   286046   0.0012265743  1.4679675e-05         0.0051    0.016929346    0.021582485       0.075572     0.39223803 
Loop time of 5.7344 on 4 procs for 100 steps with 286046 atoms, finish time Mon Sep 21 20:56:15 2020


Pair  time (%) = 2.83827 (49.4956)
Neigh time (%) = 0.444283 (7.74769)
Comm  time (%) = 0.414747 (7.23262)
Outpt time (%) = 0.0293862 (0.512455)
Other time (%) = 2.00771 (35.0117)

Nlocal:    71511.5 ave 92656 max 49620 min
Histogram: 1 0 1 0 0 0 0 1 0 1
Nghost:    7917 ave 8706 max 7432 min
Histogram: 2 0 0 0 1 0 0 0 0 1
Neighs:    988932 ave 1.30607e+06 max 712945 min
Histogram: 1 0 1 0 0 0 1 0 0 1

Total # of neighbors = 3955726
Ave neighs/atom = 13.829
Neighbor list builds = 4
Dangerous builds = 0
run 100    
Setting up run at Mon Sep 21 20:56:16 2020

Memory usage per processor = 169.594 Mbytes
    Step    Atoms         KinEng            rke         Volume       centerOf       dragtota       dragtota       dragtota 
  694002   286046   0.0012265743  1.4679675e-05         0.0051    0.016929346    0.020787276    0.075606502     0.39150835 
CFD Coupling established at step 694100
  694100   286046   0.0012312818  1.4618143e-05         0.0051    0.017001512    0.020787276    0.075606502     0.39150835 
  694102   286046   0.0012314127  1.4619715e-05         0.0051    0.017002972    0.020787276    0.075606502     0.39150835 
Loop time of 5.57551 on 4 procs for 100 steps with 286046 atoms, finish time Mon Sep 21 20:56:22 2020


Pair  time (%) = 2.63102 (47.1888)
Neigh time (%) = 0.451946 (8.10591)
Comm  time (%) = 0.300071 (5.38194)
Outpt time (%) = 0.0264764 (0.47487)
Other time (%) = 2.166 (38.8485)

Nlocal:    71511.5 ave 91880 max 49923 min
Histogram: 1 0 0 1 0 0 0 1 0 1
Nghost:    7938.5 ave 8693 max 7493 min
Histogram: 2 0 0 1 0 0 0 0 0 1
Neighs:    986132 ave 1.28876e+06 max 714593 min
Histogram: 1 0 1 0 0 0 1 0 0 1

Total # of neighbors = 3944528
Ave neighs/atom = 13.7898
Neighbor list builds = 4
Dangerous builds = 0
run 100    
Setting up run at Mon Sep 21 20:56:23 2020

Memory usage per processor = 169.594 Mbytes
    Step    Atoms         KinEng            rke         Volume       centerOf       dragtota       dragtota       dragtota 
  694102   286046   0.0012314127  1.4619715e-05         0.0051    0.017002972    0.020579345    0.074484698     0.39104476 
CFD Coupling established at step 694200
  694200   286046   0.0012359843  1.4571526e-05         0.0051    0.017073921    0.020579345    0.074484698     0.39104476 
  694202   286046   0.0012361182  1.4565785e-05         0.0051    0.017075356    0.020579345    0.074484698     0.39104476 
Loop time of 6.03684 on 4 procs for 100 steps with 286046 atoms, finish time Mon Sep 21 20:56:29 2020


Pair  time (%) = 2.85285 (47.2574)
Neigh time (%) = 0.450423 (7.46125)
Comm  time (%) = 0.294164 (4.87282)
Outpt time (%) = 0.0241071 (0.399333)
Other time (%) = 2.41529 (40.0092)

Nlocal:    71511.5 ave 91046 max 50254 min
Histogram: 1 0 0 1 0 0 0 1 0 1
Nghost:    7964 ave 8660 max 7577 min
Histogram: 2 0 0 1 0 0 0 0 0 1
Neighs:    983214 ave 1.27055e+06 max 716802 min
Histogram: 1 0 1 0 0 0 1 0 0 1

Total # of neighbors = 3932856
Ave neighs/atom = 13.749
Neighbor list builds = 4
Dangerous builds = 0
run 100    
Setting up run at Mon Sep 21 20:56:30 2020

Memory usage per processor = 169.594 Mbytes
    Step    Atoms         KinEng            rke         Volume       centerOf       dragtota       dragtota       dragtota 
  694202   286046   0.0012361182  1.4565785e-05         0.0051    0.017075356    0.019959554    0.071834275     0.38535239 
CFD Coupling established at step 694300
  694300   286046   0.0012401541  1.4484611e-05         0.0051    0.017145018    0.019959554    0.071834275     0.38535239 
  694302   286046    0.001240228  1.4485054e-05         0.0051    0.017146426    0.019959554    0.071834275     0.38535239 
Loop time of 5.23703 on 4 procs for 100 steps with 286046 atoms, finish time Mon Sep 21 20:56:36 2020


Pair  time (%) = 2.55984 (48.8796)
Neigh time (%) = 0.442894 (8.45697)
Comm  time (%) = 0.272368 (5.20081)
Outpt time (%) = 0.0236571 (0.451727)
Other time (%) = 1.93827 (37.0109)

Nlocal:    71511.5 ave 90200 max 50606 min
Histogram: 1 0 0 1 0 0 0 1 0 1
Nghost:    7997 ave 8648 max 7696 min
Histogram: 2 0 1 0 0 0 0 0 0 1
Neighs:    980435 ave 1.25262e+06 max 719626 min
Histogram: 1 0 1 0 0 0 1 0 0 1

Total # of neighbors = 3921740
Ave neighs/atom = 13.7102
Neighbor list builds = 4
Dangerous builds = 0
run 100    
Setting up run at Mon Sep 21 20:56:37 2020

Memory usage per processor = 169.594 Mbytes
    Step    Atoms         KinEng            rke         Volume       centerOf       dragtota       dragtota       dragtota 
  694302   286046    0.001240228  1.4485054e-05         0.0051    0.017146426    0.019287759    0.070229884     0.38128368 
CFD Coupling established at step 694400
  694400   286046   0.0012439909   1.444395e-05         0.0051    0.017214715    0.019287759    0.070229884     0.38128368 
  694402   286046   0.0012440902  1.4439387e-05         0.0051    0.017216094    0.019287759    0.070229884     0.38128368 
Loop time of 5.4567 on 4 procs for 100 steps with 286046 atoms, finish time Mon Sep 21 20:56:43 2020


Pair  time (%) = 2.67148 (48.9577)
Neigh time (%) = 0.446326 (8.1794)
Comm  time (%) = 0.237568 (4.35369)
Outpt time (%) = 0.0211251 (0.38714)
Other time (%) = 2.08021 (38.1221)

Nlocal:    71511.5 ave 89401 max 50954 min
Histogram: 1 0 0 1 0 0 0 1 0 1
Nghost:    8003.25 ave 8603 max 7757 min
Histogram: 2 1 0 0 0 0 0 0 0 1
Neighs:    977426 ave 1.23496e+06 max 722207 min
Histogram: 1 0 1 0 0 0 0 1 0 1

Total # of neighbors = 3909704
Ave neighs/atom = 13.6681
Neighbor list builds = 4
Dangerous builds = 0
run 100    
Setting up run at Mon Sep 21 20:56:44 2020

Memory usage per processor = 169.594 Mbytes
    Step    Atoms         KinEng            rke         Volume       centerOf       dragtota       dragtota       dragtota 
  694402   286046   0.0012440902  1.4439387e-05         0.0051    0.017216094    0.018685747    0.068808246     0.37916198 
CFD Coupling established at step 694500
  694500   286046   0.0012479659  1.4398194e-05         0.0051    0.017282927    0.018685747    0.068808246     0.37916198 
  694502   286046   0.0012480711  1.4398242e-05         0.0051    0.017284276    0.018685747    0.068808246     0.37916198 
Loop time of 5.55908 on 4 procs for 100 steps with 286046 atoms, finish time Mon Sep 21 20:56:50 2020


Pair  time (%) = 2.66912 (48.0137)
Neigh time (%) = 0.449282 (8.08194)
Comm  time (%) = 0.277071 (4.98411)
Outpt time (%) = 0.022899 (0.41192)
Other time (%) = 2.14071 (38.5083)

Nlocal:    71511.5 ave 88569 max 51314 min
Histogram: 1 0 0 1 0 0 0 1 0 1
Nghost:    8049 ave 8592 max 7809 min
Histogram: 1 2 0 0 0 0 0 0 0 1
Neighs:    974766 ave 1.21709e+06 max 725440 min
Histogram: 1 0 0 1 0 0 0 1 0 1

Total # of neighbors = 3899066
Ave neighs/atom = 13.6309
Neighbor list builds = 4
Dangerous builds = 0
run 100    
Setting up run at Mon Sep 21 20:56:51 2020

Memory usage per processor = 169.594 Mbytes
    Step    Atoms         KinEng            rke         Volume       centerOf       dragtota       dragtota       dragtota 
  694502   286046   0.0012480711  1.4398242e-05         0.0051    0.017284276    0.018004222    0.067160114     0.37684122 
CFD Coupling established at step 694600
  694600   286046   0.0012516747  1.4381608e-05         0.0051    0.017349599    0.018004222    0.067160114     0.37684122 
  694602   286046   0.0012517362  1.4388274e-05         0.0051    0.017350916    0.018004222    0.067160114     0.37684122 
Loop time of 5.32338 on 4 procs for 100 steps with 286046 atoms, finish time Mon Sep 21 20:56:57 2020


Pair  time (%) = 2.5867 (48.5913)
Neigh time (%) = 0.447129 (8.39936)
Comm  time (%) = 0.256209 (4.8129)
Outpt time (%) = 0.022014 (0.413535)
Other time (%) = 2.01133 (37.7829)

Nlocal:    71511.5 ave 87699 max 51735 min
Histogram: 1 0 0 1 0 0 0 0 1 1
Nghost:    8041.5 ave 8556 max 7746 min
Histogram: 1 0 2 0 0 0 0 0 0 1
Neighs:    972025 ave 1.19918e+06 max 728919 min
Histogram: 1 0 0 1 0 0 0 1 0 1

Total # of neighbors = 3888099
Ave neighs/atom = 13.5926
Neighbor list builds = 4
Dangerous builds = 0
run 100    
Setting up run at Mon Sep 21 20:56:58 2020

Memory usage per processor = 169.594 Mbytes
    Step    Atoms         KinEng            rke         Volume       centerOf       dragtota       dragtota       dragtota 
  694602   286046   0.0012517362  1.4388274e-05         0.0051    0.017350916    0.017228391    0.064744783     0.37251115 
CFD Coupling established at step 694700
  694700   286046   0.0012548247  1.4439268e-05         0.0051    0.017414655    0.017228391    0.064744783     0.37251115 
  694702   286046   0.0012548847  1.4438793e-05         0.0051    0.017415939    0.017228391    0.064744783     0.37251115 
Loop time of 5.42528 on 4 procs for 100 steps with 286046 atoms, finish time Mon Sep 21 20:57:04 2020


Pair  time (%) = 2.64142 (48.6872)
Neigh time (%) = 0.43589 (8.03442)
Comm  time (%) = 0.238557 (4.39713)
Outpt time (%) = 0.021389 (0.394247)
Other time (%) = 2.08803 (38.487)

Nlocal:    71511.5 ave 86807 max 52176 min
Histogram: 1 0 0 0 1 0 0 0 1 1
Nghost:    8067.25 ave 8487 max 7729 min
Histogram: 1 0 1 0 1 0 0 0 0 1
Neighs:    969016 ave 1.17997e+06 max 732861 min
Histogram: 1 0 0 1 0 0 0 1 0 1

Total # of neighbors = 3876062
Ave neighs/atom = 13.5505
Neighbor list builds = 4
Dangerous builds = 0
run 100    
Setting up run at Mon Sep 21 20:57:05 2020

Memory usage per processor = 169.594 Mbytes
    Step    Atoms         KinEng            rke         Volume       centerOf       dragtota       dragtota       dragtota 
  694702   286046   0.0012548847  1.4438793e-05         0.0051    0.017415939    0.015443847     0.06266418     0.36946485 
CFD Coupling established at step 694800
  694800   286046   0.0012582645  1.4386357e-05         0.0051    0.017478029    0.015443847     0.06266418     0.36946485 
  694802   286046   0.0012583351   1.438624e-05         0.0051    0.017479279    0.015443847     0.06266418     0.36946485 
Loop time of 5.74563 on 4 procs for 100 steps with 286046 atoms, finish time Mon Sep 21 20:57:11 2020


Pair  time (%) = 2.75567 (47.9611)
Neigh time (%) = 0.454078 (7.90302)
Comm  time (%) = 0.279741 (4.86877)
Outpt time (%) = 0.0216591 (0.376967)
Other time (%) = 2.23448 (38.8901)

Nlocal:    71511.5 ave 85968 max 52599 min
Histogram: 1 0 0 0 1 0 0 0 1 1
Nghost:    8082.25 ave 8473 max 7628 min
Histogram: 1 0 0 0 1 0 1 0 0 1
Neighs:    966440 ave 1.16251e+06 max 736449 min
Histogram: 1 0 0 1 0 0 0 1 0 1

Total # of neighbors = 3865758
Ave neighs/atom = 13.5145
Neighbor list builds = 4
Dangerous builds = 0
run 100    
Setting up run at Mon Sep 21 20:57:12 2020

Memory usage per processor = 169.594 Mbytes
    Step    Atoms         KinEng            rke         Volume       centerOf       dragtota       dragtota       dragtota 
  694802   286046   0.0012583351   1.438624e-05         0.0051    0.017479279    0.014791765    0.060815175     0.36720662 
CFD Coupling established at step 694900
  694900   286046   0.0012609973  1.4453761e-05         0.0051    0.017539664    0.014791765    0.060815175     0.36720662 
  694902   286046   0.0012610759   1.444644e-05         0.0051    0.017540879    0.014791765    0.060815175     0.36720662 
[...]
run 100    
Setting up run at Tue Sep 22 01:52:20 2020

Memory usage per processor = 191.299 Mbytes
    Step    Atoms         KinEng            rke         Volume       centerOf       dragtota       dragtota       dragtota 
  902602   286046   0.0030489852  2.5208377e-05         0.0051    0.016640585    0.021133189      0.0927401     0.53688033 
CFD Coupling established at step 902700
  902700   286046   0.0030831453  2.5569268e-05         0.0051    0.016518501    0.021133189      0.0927401     0.53688033 
  902702   286046   0.0030839049  2.5590474e-05         0.0051    0.016516027    0.021133189      0.0927401     0.53688033 
Loop time of 6.6958 on 4 procs for 100 steps with 286046 atoms, finish time Tue Sep 22 01:52:27 2020


Pair  time (%) = 3.14001 (46.8952)
Neigh time (%) = 0.333842 (4.98583)
Comm  time (%) = 0.309713 (4.62547)
Outpt time (%) = 0.0607211 (0.906853)
Other time (%) = 2.85152 (42.5867)

Nlocal:    71511.5 ave 104578 max 51474 min
Histogram: 2 0 0 0 1 0 0 0 0 1
Nghost:    7089.25 ave 7892 max 6560 min
Histogram: 2 0 0 0 0 1 0 0 0 1
Neighs:    938322 ave 1.43424e+06 max 627008 min
Histogram: 2 0 0 0 0 1 0 0 0 1

Total # of neighbors = 3753289
Ave neighs/atom = 13.1213
Neighbor list builds = 3
Dangerous builds = 0
run 100    
Setting up run at Tue Sep 22 01:52:28 2020

Memory usage per processor = 191.299 Mbytes
    Step    Atoms         KinEng            rke         Volume       centerOf       dragtota       dragtota       dragtota 
  902702   286046   0.0030839049  2.5590474e-05         0.0051    0.016516027    0.021077619    0.090531115     0.54069811 
CFD Coupling established at step 902800
  902800   286046   0.0031169444  2.5781662e-05         0.0051    0.016395697    0.021077619    0.090531115     0.54069811 
  902802   286046   0.0031175832  2.5807802e-05         0.0051    0.016393259    0.021077619    0.090531115     0.54069811 
Loop time of 6.39844 on 4 procs for 100 steps with 286046 atoms, finish time Tue Sep 22 01:52:35 2020


Pair  time (%) = 2.91069 (45.4906)
Neigh time (%) = 0.328361 (5.13189)
Comm  time (%) = 0.294048 (4.59563)
Outpt time (%) = 0.0335692 (0.524647)
Other time (%) = 2.83177 (44.2572)

Nlocal:    71511.5 ave 104393 max 51698 min
Histogram: 2 0 0 0 1 0 0 0 0 1
Nghost:    7053.75 ave 7837 max 6506 min
Histogram: 2 0 0 0 0 0 1 0 0 1
Neighs:    939886 ave 1.43397e+06 max 628312 min
Histogram: 2 0 0 0 0 1 0 0 0 1

Total # of neighbors = 3759546
Ave neighs/atom = 13.1432
Neighbor list builds = 3
Dangerous builds = 0
run 100    
Setting up run at Tue Sep 22 01:52:36 2020

Memory usage per processor = 191.299 Mbytes
    Step    Atoms         KinEng            rke         Volume       centerOf       dragtota       dragtota       dragtota 
  902802   286046   0.0031175832  2.5807802e-05         0.0051    0.016393259    0.020940004    0.087809294     0.54872549 
CFD Coupling established at step 902900
  902900   286046   0.0031470049  2.6194253e-05         0.0051    0.016274802    0.020940004    0.087809294     0.54872549 
  902902   286046   0.0031475684   2.618972e-05         0.0051    0.016272404    0.020940004    0.087809294     0.54872549 
Loop time of 6.10792 on 4 procs for 100 steps with 286046 atoms, finish time Tue Sep 22 01:52:42 2020


Pair  time (%) = 2.85309 (46.7112)
Neigh time (%) = 0.331367 (5.4252)
Comm  time (%) = 0.283034 (4.63389)
Outpt time (%) = 0.0406542 (0.665598)
Other time (%) = 2.59978 (42.5641)

Nlocal:    71511.5 ave 104201 max 51950 min
Histogram: 2 0 0 0 1 0 0 0 0 1
Nghost:    7049.5 ave 7819 max 6512 min
Histogram: 2 0 0 0 0 0 1 0 0 1
Neighs:    941749 ave 1.4346e+06 max 630159 min
Histogram: 2 0 0 0 0 1 0 0 0 1

Total # of neighbors = 3766997
Ave neighs/atom = 13.1692
Neighbor list builds = 3
Dangerous builds = 0
run 100    
Setting up run at Tue Sep 22 01:52:43 2020

Memory usage per processor = 191.299 Mbytes
    Step    Atoms         KinEng            rke         Volume       centerOf       dragtota       dragtota       dragtota 
  902902   286046   0.0031475684   2.618972e-05         0.0051    0.016272404    0.021051103     0.08556189     0.55257493 
CFD Coupling established at step 903000
  903000   286046   0.0031737273  2.6562927e-05         0.0051    0.016155942    0.021051103     0.08556189     0.55257493 
  903002   286046   0.0031742471  2.6600307e-05         0.0051    0.016153586    0.021051103     0.08556189     0.55257493 
Loop time of 6.21235 on 4 procs for 100 steps with 286046 atoms, finish time Tue Sep 22 01:52:50 2020


Pair  time (%) = 2.8517 (45.9037)
Neigh time (%) = 0.327104 (5.26539)
Comm  time (%) = 0.297531 (4.78934)
Outpt time (%) = 0.0491789 (0.791631)
Other time (%) = 2.68684 (43.2499)

Nlocal:    71511.5 ave 104030 max 52196 min
Histogram: 2 0 0 0 1 0 0 0 0 1
Nghost:    7029.5 ave 7830 max 6456 min
Histogram: 2 0 0 0 0 0 1 0 0 1
Neighs:    943633 ave 1.43537e+06 max 631429 min
Histogram: 2 0 0 0 0 1 0 0 0 1

Total # of neighbors = 3774533
Ave neighs/atom = 13.1955
Neighbor list builds = 3
Dangerous builds = 0
run 100    
Setting up run at Tue Sep 22 01:52:51 2020

Memory usage per processor = 191.299 Mbytes
    Step    Atoms         KinEng            rke         Volume       centerOf       dragtota       dragtota       dragtota 
  903002   286046   0.0031742471  2.6600307e-05         0.0051    0.016153586    0.021947922      0.0836422     0.55354484 
CFD Coupling established at step 903100
  903100   286046   0.0031940438  2.7288719e-05         0.0051    0.016039189    0.021947922      0.0836422     0.55354484 
  903102   286046   0.0031945129  2.7279723e-05         0.0051    0.016036875    0.021947922      0.0836422     0.55354484 
Loop time of 5.84533 on 4 procs for 100 steps with 286046 atoms, finish time Tue Sep 22 01:52:57 2020


Pair  time (%) = 2.81035 (48.0786)
Neigh time (%) = 0.325993 (5.57699)
Comm  time (%) = 0.284158 (4.86128)
Outpt time (%) = 0.038923 (0.665881)
Other time (%) = 2.38591 (40.8173)

Nlocal:    71511.5 ave 103819 max 52491 min
Histogram: 2 0 0 0 1 0 0 0 0 1
Nghost:    7010.75 ave 7824 max 6452 min
Histogram: 2 0 0 0 0 1 0 0 0 1
Neighs:    945545 ave 1.43529e+06 max 633552 min
Histogram: 2 0 0 0 0 1 0 0 0 1

Total # of neighbors = 3782180
Ave neighs/atom = 13.2223
Neighbor list builds = 3
Dangerous builds = 0
run 100    
Setting up run at Tue Sep 22 01:52:58 2020

Memory usage per processor = 191.299 Mbytes
    Step    Atoms         KinEng            rke         Volume       centerOf       dragtota       dragtota       dragtota 
  903102   286046   0.0031945129  2.7279723e-05         0.0051    0.016036875    0.022786706    0.080903375     0.55614908 
CFD Coupling established at step 903200
  903200   286046   0.0032064831  2.8074959e-05         0.0051     0.01592457    0.022786706    0.080903375     0.55614908 
  903202   286046   0.0032067305  2.8113803e-05         0.0051      0.0159223    0.022786706    0.080903375     0.55614908 
Loop time of 6.6299 on 4 procs for 100 steps with 286046 atoms, finish time Tue Sep 22 01:53:05 2020


Pair  time (%) = 3.06787 (46.2733)
Neigh time (%) = 0.327665 (4.94224)
Comm  time (%) = 0.28087 (4.23641)
Outpt time (%) = 0.0378365 (0.570695)
Other time (%) = 2.91566 (43.9774)

Nlocal:    71511.5 ave 103601 max 52762 min
Histogram: 2 0 0 0 1 0 0 0 0 1
Nghost:    7001.5 ave 7808 max 6441 min
Histogram: 2 0 0 0 0 0 1 0 0 1
Neighs:    947800 ave 1.43482e+06 max 636737 min
Histogram: 2 0 0 0 0 1 0 0 0 1

Total # of neighbors = 3791200
Ave neighs/atom = 13.2538
Neighbor list builds = 3
Dangerous builds = 0
run 100    
Setting up run at Tue Sep 22 01:53:06 2020

Memory usage per processor = 191.299 Mbytes
    Step    Atoms         KinEng            rke         Volume       centerOf       dragtota       dragtota       dragtota 
  903202   286046   0.0032067305  2.8113803e-05         0.0051      0.0159223    0.024267626    0.078288255     0.55793559 
CFD Coupling established at step 903300
  903300   286046   0.0032110355  2.8813155e-05         0.0051    0.015812174    0.024267626    0.078288255     0.55793559 
  903302   286046     0.00321107  2.8821743e-05         0.0051    0.015809949    0.024267626    0.078288255     0.55793559 
Loop time of 5.99757 on 4 procs for 100 steps with 286046 atoms, finish time Tue Sep 22 01:53:13 2020


Pair  time (%) = 2.88576 (48.1154)
Neigh time (%) = 0.334982 (5.5853)
Comm  time (%) = 0.291146 (4.8544)
Outpt time (%) = 0.0380946 (0.635167)
Other time (%) = 2.44759 (40.8097)

Nlocal:    71511.5 ave 103392 max 52985 min
Histogram: 2 0 0 0 1 0 0 0 0 1
Nghost:    6987.5 ave 7785 max 6415 min
Histogram: 2 0 0 0 0 0 1 0 0 1
Neighs:    950905 ave 1.43592e+06 max 641238 min
Histogram: 2 0 0 0 0 1 0 0 0 1

Total # of neighbors = 3803620
Ave neighs/atom = 13.2972
Neighbor list builds = 3
Dangerous builds = 0
run 100    
Setting up run at Tue Sep 22 01:53:14 2020

Memory usage per processor = 191.299 Mbytes
    Step    Atoms         KinEng            rke         Volume       centerOf       dragtota       dragtota       dragtota 
  903302   286046     0.00321107  2.8821743e-05         0.0051    0.015809949    0.025032333    0.075808791     0.55736143 
CFD Coupling established at step 903400
  903400   286046   0.0032099852  2.9302285e-05         0.0051    0.015701999    0.025032333    0.075808791     0.55736143 
  903402   286046   0.0032099988  2.9321548e-05         0.0051    0.015699819    0.025032333    0.075808791     0.55736143 
Loop time of 6.53597 on 4 procs for 100 steps with 286046 atoms, finish time Tue Sep 22 01:53:21 2020


Pair  time (%) = 3.12291 (47.7804)
Neigh time (%) = 0.338305 (5.17605)
Comm  time (%) = 0.269987 (4.13079)
Outpt time (%) = 0.0452762 (0.692724)
Other time (%) = 2.75949 (42.22)

Nlocal:    71511.5 ave 103166 max 53237 min
Histogram: 2 0 0 0 1 0 0 0 0 1
Nghost:    6953.25 ave 7771 max 6396 min
Histogram: 2 0 0 0 0 1 0 0 0 1
Neighs:    953989 ave 1.43615e+06 max 646212 min
Histogram: 2 0 0 0 0 1 0 0 0 1

Total # of neighbors = 3815956
Ave neighs/atom = 13.3404
Neighbor list builds = 3
Dangerous builds = 0
run 100    
Setting up run at Tue Sep 22 01:53:22 2020

Memory usage per processor = 191.299 Mbytes
    Step    Atoms         KinEng            rke         Volume       centerOf       dragtota       dragtota       dragtota 
  903402   286046   0.0032099988  2.9321548e-05         0.0051    0.015699819    0.025981213    0.074301304     0.55947812 
CFD Coupling established at step 903500
  903500   286046   0.0032022066  2.9907276e-05         0.0051    0.015594097    0.025981213    0.074301304     0.55947812 
  903502   286046   0.0032020919  2.9901138e-05         0.0051    0.015591962    0.025981213    0.074301304     0.55947812 
Loop time of 6.01076 on 4 procs for 100 steps with 286046 atoms, finish time Tue Sep 22 01:53:28 2020


Pair  time (%) = 2.90993 (48.412)
Neigh time (%) = 0.332253 (5.52764)
Comm  time (%) = 0.271336 (4.51417)
Outpt time (%) = 0.0592453 (0.985654)
Other time (%) = 2.438 (40.5606)

Nlocal:    71511.5 ave 102916 max 53393 min
Histogram: 2 0 0 0 1 0 0 0 0 1
Nghost:    6939.25 ave 7744 max 6377 min
Histogram: 2 0 0 0 0 1 0 0 0 1
Neighs:    957540 ave 1.43681e+06 max 652397 min
Histogram: 2 0 0 0 0 1 0 0 0 1

Total # of neighbors = 3830159
Ave neighs/atom = 13.39
Neighbor list builds = 3
Dangerous builds = 0
run 100    
Setting up run at Tue Sep 22 01:53:29 2020

Memory usage per processor = 191.299 Mbytes
    Step    Atoms         KinEng            rke         Volume       centerOf       dragtota       dragtota       dragtota 
  903502   286046   0.0032020919  2.9901138e-05         0.0051    0.015591962    0.026353022    0.074445211     0.56352779 
CFD Coupling established at step 903600
  903600   286046   0.0031883304  3.0502224e-05         0.0051    0.015488575    0.026353022    0.074445211     0.56352779 
  903602   286046   0.0031880927  3.0503796e-05         0.0051    0.015486489    0.026353022    0.074445211     0.56352779 
Loop time of 6.52345 on 4 procs for 100 steps with 286046 atoms, finish time Tue Sep 22 01:53:36 2020


Pair  time (%) = 3.09159 (47.3919)
Neigh time (%) = 0.353056 (5.4121)
Comm  time (%) = 0.255691 (3.91956)
Outpt time (%) = 0.0735462 (1.12741)
Other time (%) = 2.74957 (42.149)

Nlocal:    71511.5 ave 102616 max 53586 min
Histogram: 2 0 0 0 1 0 0 0 0 1
Nghost:    6944.5 ave 7716 max 6318 min
Histogram: 1 1 0 0 0 0 1 0 0 1
Neighs:    961229 ave 1.43794e+06 max 659020 min
Histogram: 2 0 0 0 0 1 0 0 0 1

Total # of neighbors = 3844916
Ave neighs/atom = 13.4416
Neighbor list builds = 3
Dangerous builds = 0
run 100    
Setting up run at Tue Sep 22 01:53:37 2020

Memory usage per processor = 191.299 Mbytes
    Step    Atoms         KinEng            rke         Volume       centerOf       dragtota       dragtota       dragtota 
  903602   286046   0.0031880927  3.0503796e-05         0.0051    0.015486489    0.028221165    0.074268012     0.56768341 
CFD Coupling established at step 903700
  903700   286046    0.003175308  3.0477206e-05         0.0051    0.015385555    0.028221165    0.074268012     0.56768341 
  903702   286046   0.0031751443  3.0478552e-05         0.0051    0.015383521    0.028221165    0.074268012     0.56768341 
Loop time of 6.39746 on 4 procs for 100 steps with 286046 atoms, finish time Tue Sep 22 01:53:44 2020


Pair  time (%) = 3.01665 (47.1539)
Neigh time (%) = 0.348577 (5.44867)
Comm  time (%) = 0.296088 (4.62821)
Outpt time (%) = 0.0364643 (0.569981)
Other time (%) = 2.69968 (42.1993)

Nlocal:    71511.5 ave 102344 max 53795 min
Histogram: 2 0 0 0 1 0 0 0 0 1
Nghost:    6944.25 ave 7685 max 6331 min
Histogram: 1 1 0 0 0 0 1 0 0 1
Neighs:    965012 ave 1.44022e+06 max 666277 min
Histogram: 2 0 0 0 0 1 0 0 0 1

Total # of neighbors = 3860046
Ave neighs/atom = 13.4945
Neighbor list builds = 3
Dangerous builds = 0
run 100    
Setting up run at Tue Sep 22 01:53:45 2020

Memory usage per processor = 191.299 Mbytes
    Step    Atoms         KinEng            rke         Volume       centerOf       dragtota       dragtota       dragtota 
  903702   286046   0.0031751443  3.0478552e-05         0.0051    0.015383521    0.029743474     0.07437133     0.56783828 
CFD Coupling established at step 903800
  903800   286046   0.0031630945  3.0843743e-05         0.0051     0.01528512    0.029743474     0.07437133     0.56783828 
  903802   286046   0.0031628019  3.0861325e-05         0.0051    0.015283138    0.029743474     0.07437133     0.56783828 
Loop time of 6.33244 on 4 procs for 100 steps with 286046 atoms, finish time Tue Sep 22 01:53:52 2020


Pair  time (%) = 3.09403 (48.86)
Neigh time (%) = 0.337184 (5.32471)
Comm  time (%) = 0.255543 (4.03546)
Outpt time (%) = 0.0557962 (0.881118)
Other time (%) = 2.58988 (40.8987)

Nlocal:    71511.5 ave 102042 max 54005 min
Histogram: 2 0 0 0 1 0 0 0 0 1
Nghost:    6937.5 ave 7696 max 6318 min
Histogram: 1 1 0 0 0 0 1 0 0 1
Neighs:    968752 ave 1.44273e+06 max 672367 min
Histogram: 2 0 0 0 1 0 0 0 0 1

Total # of neighbors = 3875010
Ave neighs/atom = 13.5468
Neighbor list builds = 3
Dangerous builds = 0
run 100    
Setting up run at Tue Sep 22 01:53:53 2020

Memory usage per processor = 191.299 Mbytes
    Step    Atoms         KinEng            rke         Volume       centerOf       dragtota       dragtota       dragtota 
  903802   286046   0.0031628019  3.0861325e-05         0.0051    0.015283138    0.031372062    0.074695714     0.56960664 
CFD Coupling established at step 903900
  903900   286046   0.0031531442  3.0959693e-05         0.0051    0.015187351    0.031372062    0.074695714     0.56960664 
  903902   286046    0.003153016  3.0960844e-05         0.0051    0.015185423    0.031372062    0.074695714     0.56960664 
Loop time of 6.50308 on 4 procs for 100 steps with 286046 atoms, finish time Tue Sep 22 01:54:00 2020


Pair  time (%) = 3.09026 (47.5199)
Neigh time (%) = 0.327707 (5.03926)
Comm  time (%) = 0.27253 (4.19078)
Outpt time (%) = 0.0412223 (0.633888)
Other time (%) = 2.77136 (42.6162)

Nlocal:    71511.5 ave 101762 max 54187 min
Histogram: 2 0 0 0 1 0 0 0 0 1
Nghost:    6928.75 ave 7707 max 6302 min
Histogram: 1 1 0 0 0 0 1 0 0 1
Neighs:    971876 ave 1.44529e+06 max 678110 min
Histogram: 2 0 0 0 1 0 0 0 0 1

Total # of neighbors = 3887502
Ave neighs/atom = 13.5905
Neighbor list builds = 3
Dangerous builds = 0
run 100    
Setting up run at Tue Sep 22 01:54:01 2020

Memory usage per processor = 191.299 Mbytes
    Step    Atoms         KinEng            rke         Volume       centerOf       dragtota       dragtota       dragtota 
  903902   286046    0.003153016  3.0960844e-05         0.0051    0.015185423    0.033118697    0.075040196     0.57167094 
CFD Coupling established at step 904000
  904000   286046   0.0031430741  3.0936898e-05         0.0051     0.01509235    0.033118697    0.075040196     0.57167094 
  904002   286046   0.0031429005  3.0923802e-05         0.0051    0.015090479    0.033118697    0.075040196     0.57167094 
Loop time of 6.67967 on 4 procs for 100 steps with 286046 atoms, finish time Tue Sep 22 01:54:08 2020


Pair  time (%) = 3.15475 (47.2291)
Neigh time (%) = 0.348935 (5.22384)
Comm  time (%) = 0.31018 (4.64364)
Outpt time (%) = 0.0468543 (0.701445)
Other time (%) = 2.81896 (42.202)

Nlocal:    71511.5 ave 101410 max 54379 min
Histogram: 2 0 0 0 1 0 0 0 0 1
Nghost:    6905.25 ave 7699 max 6253 min
Histogram: 1 1 0 0 0 0 1 0 0 1
Neighs:    974677 ave 1.44717e+06 max 684502 min
Histogram: 2 0 0 0 1 0 0 0 0 1

Total # of neighbors = 3898709
Ave neighs/atom = 13.6297
Neighbor list builds = 3
Dangerous builds = 0
run 100    
Setting up run at Tue Sep 22 01:54:09 2020

Memory usage per processor = 191.299 Mbytes
    Step    Atoms         KinEng            rke         Volume       centerOf       dragtota       dragtota       dragtota 
  904002   286046   0.0031429005  3.0923802e-05         0.0051    0.015090479    0.035096715    0.076591284      0.5731709 
CFD Coupling established at step 904100
  904100   286046    0.003132531   3.111268e-05         0.0051    0.015000194    0.035096715    0.076591284      0.5731709 
  904102   286046    0.003132284  3.1126541e-05         0.0051     0.01499838    0.035096715    0.076591284      0.5731709 
Loop time of 6.88525 on 4 procs for 100 steps with 286046 atoms, finish time Tue Sep 22 01:54:17 2020


Pair  time (%) = 3.14166 (45.6289)
Neigh time (%) = 0.342751 (4.97805)
Comm  time (%) = 0.310924 (4.51579)
Outpt time (%) = 0.0587041 (0.852607)
Other time (%) = 3.03121 (44.0247)

Nlocal:    71511.5 ave 101056 max 54582 min
Histogram: 2 0 0 0 1 0 0 0 0 1
Nghost:    6914 ave 7711 max 6298 min
Histogram: 1 1 0 0 0 0 1 0 0 1
Neighs:    977402 ave 1.44909e+06 max 689581 min
Histogram: 2 0 0 0 1 0 0 0 0 1

Total # of neighbors = 3909606
Ave neighs/atom = 13.6678
Neighbor list builds = 3
Dangerous builds = 0
run 100    
Setting up run at Tue Sep 22 01:54:17 2020

Memory usage per processor = 191.299 Mbytes
    Step    Atoms         KinEng            rke         Volume       centerOf       dragtota       dragtota       dragtota 
  904102   286046    0.003132284  3.1126541e-05         0.0051     0.01499838    0.037709631    0.077548873     0.57757461 
CFD Coupling established at step 904200
  904200   286046   0.0031221087  3.1224435e-05         0.0051    0.014910977    0.037709631    0.077548873     0.57757461 
  904202   286046   0.0031219225  3.1240574e-05         0.0051    0.014909223    0.037709631    0.077548873     0.57757461 
Loop time of 6.73745 on 4 procs for 100 steps with 286046 atoms, finish time Tue Sep 22 01:54:25 2020


Pair  time (%) = 3.27602 (48.6241)
Neigh time (%) = 0.335427 (4.97854)
Comm  time (%) = 0.293262 (4.35272)
Outpt time (%) = 0.0445671 (0.661483)
Other time (%) = 2.78817 (41.3832)

Nlocal:    71511.5 ave 100640 max 54831 min
Histogram: 2 0 0 0 1 0 0 0 0 1
Nghost:    6900.75 ave 7711 max 6259 min
Histogram: 2 0 0 0 0 0 1 0 0 1
Neighs:    979873 ave 1.44908e+06 max 694920 min
Histogram: 2 0 0 0 1 0 0 0 0 1

Total # of neighbors = 3919492
Ave neighs/atom = 13.7023
Neighbor list builds = 3
Dangerous builds = 0
