/*--------------------------------*- C++ -*----------------------------------*\
| =========                 |                                                 |
| \\      /  F ield         | OpenFOAM: The Open Source CFD Toolbox           |
|  \\    /   O peration     | Version:  5.x                                   |
|   \\  /    A nd           | Web:      www.OpenFOAM.org                      |
|    \\/     M anipulation  |                                                 |
\*---------------------------------------------------------------------------*/
FoamFile
{
    version     2.0;
    format      ascii;
    class       volVectorField;
    location    "2.1";
    object      Us;
}
// * * * * * * * * * * * * * * * * * * * * * * * * * * * * * * * * * * * * * //

dimensions      [0 1 -1 0 0 0 0];

internalField   nonuniform List<vector> 
10571
(
(-0.153016 -0.00909097 -0.0230792)
(-0.0259734 0.051777 -0.033218)
(-0.17098 0.132618 -0.0121031)
(-0.194663 0.0275438 -0.0419495)
(-0.0707929 -0.0300985 -0.0368176)
(0.0497513 0.0528733 0.0119312)
(-0.127464 0.15807 0.01538)
(-0.193804 0.073562 -0.0203527)
(-0.0932802 0.0232516 -0.102821)
(0.00727725 0.0418892 -0.0393337)
(0.00513164 0.0155825 0.0232892)
(0.02572 0.0198181 0.0104424)
(-0.0751842 0.0494925 0.0210285)
(-0.152397 0.0235028 -0.174159)
(-0.0702174 0.0639719 -0.172632)
(-0.00315825 0.044431 -0.0882467)
(-0.0041615 0.0313582 -0.00237309)
(-0.0369273 0.0446434 -0.0561804)
(-0.118791 0.0970979 -0.175304)
(-0.0509434 0.0643648 -0.112653)
(-0.0335354 0.0233294 -0.0594525)
(-0.0707213 -0.00940503 0.0487287)
(-0.0992431 -0.027258 -0.0190913)
(-0.048412 0.0053663 -0.0638518)
(-0.0390045 -0.00445191 -0.0551684)
(-0.0259796 0.0323584 -0.0611477)
(-0.105967 0.0216179 -0.0279547)
(-0.0272413 -0.0335118 -0.0618446)
(-0.0739987 -0.0224805 -0.053122)
(-0.0468912 0.0523641 -0.00317126)
(-0.0774221 -0.0590121 0.0501644)
(0.00618545 -0.104773 -0.0677451)
(-0.0857816 -0.120323 -0.165337)
(-0.0565303 -0.117684 -0.1346)
(-0.00803831 0.0268987 0.0501691)
(-0.073541 0.0254087 0.0215311)
(-0.129349 0.0113866 -0.0989778)
(-0.100673 -0.0157102 -0.0806702)
(-0.0588385 -0.067653 -0.0699512)
(0.0200106 -0.0592337 -0.0886689)
(-0.0524181 -0.0122553 0.0142345)
(-0.131492 0.0531824 -0.128864)
(-0.124694 0.105727 -0.0727919)
(-0.0278704 0.0623939 -0.0908486)
(-0.00861568 0.0211951 -0.11654)
(-0.146664 0.0387588 -0.0441967)
(-0.122153 0.0615709 -0.0886126)
(-0.078273 0.0597271 -0.141016)
(0.0158107 0.00106992 -0.062184)
(-0.0219918 0.00867429 -0.0355615)
(-0.071073 -0.0669608 0.0107588)
(0.0976829 -0.140327 -0.0924098)
(0 0 0)
(-0.124453 0.0495739 0.0314511)
(-0.0867286 0.0121366 -0.0496549)
(0.0372852 -0.0196213 -0.0821628)
(-0.104705 -0.170023 -0.322989)
(-0.0730157 -0.007817 -0.546075)
(-0.00521279 0.105214 0.148404)
(-0.0935762 0.0870842 0.0713248)
(-0.0657672 0.0138542 -0.0875677)
(-0.10025 -0.0389735 -0.089456)
(-0.102626 -0.0851664 -0.0932075)
(-0.0352635 -0.0882075 -0.131575)
(-0.0859734 -0.0510094 0.0309881)
(-0.118276 -0.0415901 -0.0673766)
(-0.138102 -0.0130991 -0.0613286)
(-0.0945866 -0.0277834 -0.0305532)
(-0.00228708 -0.0252395 -0.0131514)
(-0.0343099 -0.0359435 0.0471715)
(-0.0937288 0.00292029 -0.060447)
(-0.089045 0.0509338 -0.0489124)
(0 0 0)
(-0.00142065 -0.0237878 0.000276934)
(-0.0487072 -0.0751271 0.037475)
(0 0 0)
(0 0 0)
(-0.10203 0.0202952 0.0233556)
(-0.0392921 -0.00669507 -0.0952223)
(0.0154378 -0.0116012 -0.199162)
(-0.161048 -0.0185302 -0.4596)
(-0.0598298 0.0346704 -0.466727)
(-0.00127957 0.131017 0.231975)
(-0.0902423 0.0741276 0.00745813)
(0.0241177 -0.0250314 -0.11267)
(-0.129271 -0.107557 -0.117967)
(-0.0741795 -0.095753 -0.153612)
(-0.0879576 -0.0548814 -0.388857)
(0.0191885 0.0280464 -0.192718)
(-0.141196 -0.0828805 -0.0095855)
(-0.128348 -0.026658 -0.0837187)
(-0.0747936 -0.0275891 -0.115509)
(0.0077574 -0.0430375 -0.106153)
(-0.188049 -0.0963031 0.115978)
(-0.100507 -0.0141024 -0.0538328)
(-0.0645891 0.0250965 -0.087924)
(0 0 0)
(0.0940686 -0.109012 -0.0150226)
(0.162602 -0.182591 -0.139562)
(0 0 0)
(0 0 0)
(3.6623e-15 -1.47101e-14 -4.73378e-15)
(0.118397 -0.0781541 -0.137929)
(0 0 0)
(0 0 0)
(-0.054712 0.0644501 -0.357184)
(-0.00261615 -0.149966 0.0488905)
(0 0 0)
(0.115435 -0.0439898 -0.149179)
(0 0 0)
(-0.234303 -0.128644 -0.357039)
(-0.0879941 -0.0208123 -0.316103)
(0.0284132 0.0501264 -0.154946)
(-0.153325 -0.0988788 0.108328)
(-0.250765 0.0123937 -0.0389235)
(0 0 0)
(0 0 0)
(-0.158208 -0.0454595 0.123179)
(-0.161198 0.0654537 -0.0889388)
(-0.0434583 -0.00128377 -0.0854782)
(0 0 0)
(0.169436 -0.135959 -0.0296584)
(0.192134 -0.197257 -0.0523053)
(0 0 0)
(0 0 0)
(0.0836293 -0.165234 -0.00898583)
(0.171572 -0.0896229 -0.0626554)
(0 0 0)
(0 0 0)
(-0.0600682 0.0476017 -0.176608)
(-0.00796476 0.00640201 -0.0043419)
(-0.0202689 -0.129016 0.128248)
(0.0811444 -0.0457174 -0.0407565)
(0.172139 0.00448658 -0.0760329)
(0 0 0)
(0 0 0)
(-0.126357 0.00224372 -0.228378)
(-0.0024681 0.000497164 -0.00101522)
(0.0423788 0.0514321 -0.0406972)
(0 0 0)
(0 0 0)
(0 0 0)
(0 0 0)
(0 0 0)
(0 0 0)
(0 0 0)
(0 0 0)
(0.148641 -0.179895 0.0703652)
(0.21524 -0.20719 0.0530059)
(0 0 0)
(0 0 0)
(0.0872169 -0.164214 0.106668)
(0.198251 -0.132579 0.0343555)
(0 0 0)
(0 0 0)
(0 0 0)
(0 0 0)
(0.0338198 -0.121518 0.22705)
(0.105724 -0.0341526 0.0713217)
(0 0 0)
(0 0 0)
(0 0 0)
(0 0 0)
(0 0 0)
(0 0 0)
(0 0 0)
(0 0 0)
(0 0 0)
(0 0 0)
(0 0 0)
(0 0 0)
(0 0 0)
(0 0 0)
(0 0 0)
(0.142942 -0.232353 0.202214)
(0 0 0)
(0 0 0)
(0 0 0)
(0.0790613 -0.192543 0.242566)
(0 0 0)
(0 0 0)
(0 0 0)
(0 0 0)
(0 0 0)
(0 0 0)
(0.103126 -0.0206262 0.148838)
(0 0 0)
(0 0 0)
(0 0 0)
(0 0 0)
(0 0 0)
(0 0 0)
(0 0 0)
(0 0 0)
(0 0 0)
(0 0 0)
(0 0 0)
(0 0 0)
(0 0 0)
(0 0 0)
(0 0 0)
(0.153036 -0.203077 0.251145)
(0 0 0)
(0 0 0)
(0 0 0)
(0.113333 -0.149696 0.25881)
(0 0 0)
(0 0 0)
(0 0 0)
(0 0 0)
(0 0 0)
(0 0 0)
(0.096312 -0.0508712 0.241732)
(0 0 0)
(0 0 0)
(0 0 0)
(0 0 0)
(0 0 0)
(0 0 0)
(0 0 0)
(0 0 0)
(0 0 0)
(0 0 0)
(0 0 0)
(0 0 0)
(0 0 0)
(0 0 0)
(0.166043 -0.192676 0.332448)
(0 0 0)
(0 0 0)
(0 0 0)
(0.108008 -0.168397 0.365362)
(0 0 0)
(0 0 0)
(0 0 0)
(0 0 0)
(0 0 0)
(0 0 0)
(0 0 0)
(0 0 0)
(0 0 0)
(0 0 0)
(0 0 0)
(0 0 0)
(0 0 0)
(0 0 0)
(0 0 0)
(0 0 0)
(0 0 0)
(0 0 0)
(0 0 0)
(0 0 0)
(0 0 0)
(0 0 0)
(0 0 0)
(0 0 0)
(0 0 0)
(0 0 0)
(0 0 0)
(0 0 0)
(0 0 0)
(0 0 0)
(0 0 0)
(0 0 0)
(0 0 0)
(0 0 0)
(0 0 0)
(0 0 0)
(0 0 0)
(0 0 0)
(0 0 0)
(0 0 0)
(0 0 0)
(0 0 0)
(0 0 0)
(0 0 0)
(0 0 0)
(0 0 0)
(0 0 0)
(0 0 0)
(0 0 0)
(0 0 0)
(0 0 0)
(0 0 0)
(0 0 0)
(0 0 0)
(0 0 0)
(0 0 0)
(0 0 0)
(0 0 0)
(0 0 0)
(0 0 0)
(0 0 0)
(0 0 0)
(0 0 0)
(0 0 0)
(0 0 0)
(0 0 0)
(0 0 0)
(0 0 0)
(0 0 0)
(0 0 0)
(0 0 0)
(0 0 0)
(0 0 0)
(0 0 0)
(0 0 0)
(0 0 0)
(0 0 0)
(0 0 0)
(0 0 0)
(0 0 0)
(0 0 0)
(0 0 0)
(0 0 0)
(0 0 0)
(0 0 0)
(0 0 0)
(0 0 0)
(0 0 0)
(0 0 0)
(0 0 0)
(0 0 0)
(0 0 0)
(0 0 0)
(0 0 0)
(0 0 0)
(0 0 0)
(0 0 0)
(0 0 0)
(0 0 0)
(0 0 0)
(0 0 0)
(0 0 0)
(0 0 0)
(0 0 0)
(0 0 0)
(0 0 0)
(0 0 0)
(0 0 0)
(0 0 0)
(0 0 0)
(0 0 0)
(0 0 0)
(0 0 0)
(0 0 0)
(0 0 0)
(0 0 0)
(0 0 0)
(0 0 0)
(0 0 0)
(0 0 0)
(0 0 0)
(0 0 0)
(0 0 0)
(0 0 0)
(0 0 0)
(0 0 0)
(0 0 0)
(0 0 0)
(0 0 0)
(0 0 0)
(0 0 0)
(0 0 0)
(0 0 0)
(0 0 0)
(0 0 0)
(0 0 0)
(0 0 0)
(0 0 0)
(0 0 0)
(0 0 0)
(0 0 0)
(0 0 0)
(0 0 0)
(0 0 0)
(0 0 0)
(0 0 0)
(0 0 0)
(0 0 0)
(0 0 0)
(0 0 0)
(0 0 0)
(0 0 0)
(0 0 0)
(0 0 0)
(0 0 0)
(0 0 0)
(0 0 0)
(0 0 0)
(0 0 0)
(0 0 0)
(0 0 0)
(0 0 0)
(0 0 0)
(0 0 0)
(0 0 0)
(0 0 0)
(0 0 0)
(0 0 0)
(0 0 0)
(0 0 0)
(0 0 0)
(0 0 0)
(0 0 0)
(0 0 0)
(0 0 0)
(0 0 0)
(0 0 0)
(0 0 0)
(0 0 0)
(0 0 0)
(0 0 0)
(0 0 0)
(0 0 0)
(0 0 0)
(0 0 0)
(0 0 0)
(0 0 0)
(0 0 0)
(0 0 0)
(0 0 0)
(0 0 0)
(0 0 0)
(0 0 0)
(0 0 0)
(0 0 0)
(0 0 0)
(0 0 0)
(0 0 0)
(0 0 0)
(0 0 0)
(0 0 0)
(0 0 0)
(0 0 0)
(0 0 0)
(0 0 0)
(0 0 0)
(0 0 0)
(0 0 0)
(0 0 0)
(0 0 0)
(0 0 0)
(0 0 0)
(0 0 0)
(0 0 0)
(0 0 0)
(0 0 0)
(0 0 0)
(0 0 0)
(0 0 0)
(0 0 0)
(0 0 0)
(0 0 0)
(0 0 0)
(0 0 0)
(0 0 0)
(0 0 0)
(0 0 0)
(0 0 0)
(0 0 0)
(0 0 0)
(0 0 0)
(0 0 0)
(0 0 0)
(0 0 0)
(0 0 0)
(0 0 0)
(0 0 0)
(0 0 0)
(0 0 0)
(0 0 0)
(0 0 0)
(0 0 0)
(0 0 0)
(0 0 0)
(0 0 0)
(0 0 0)
(0 0 0)
(0 0 0)
(0 0 0)
(0 0 0)
(0 0 0)
(0 0 0)
(0 0 0)
(0 0 0)
(0 0 0)
(0 0 0)
(0 0 0)
(0 0 0)
(0 0 0)
(0 0 0)
(0 0 0)
(0 0 0)
(0 0 0)
(0 0 0)
(0 0 0)
(0 0 0)
(0 0 0)
(0 0 0)
(0 0 0)
(0 0 0)
(0 0 0)
(0 0 0)
(0 0 0)
(0 0 0)
(0 0 0)
(0 0 0)
(0 0 0)
(0 0 0)
(0 0 0)
(0 0 0)
(0 0 0)
(0 0 0)
(0 0 0)
(0 0 0)
(0 0 0)
(0 0 0)
(0 0 0)
(0 0 0)
(0 0 0)
(0 0 0)
(0 0 0)
(0 0 0)
(0 0 0)
(0 0 0)
(0 0 0)
(0 0 0)
(0 0 0)
(0 0 0)
(0 0 0)
(0 0 0)
(0 0 0)
(0 0 0)
(0 0 0)
(0 0 0)
(0 0 0)
(0 0 0)
(0 0 0)
(0 0 0)
(0 0 0)
(0 0 0)
(0 0 0)
(0 0 0)
(0 0 0)
(0 0 0)
(0 0 0)
(0 0 0)
(0 0 0)
(0 0 0)
(0 0 0)
(0 0 0)
(0 0 0)
(0 0 0)
(0 0 0)
(0 0 0)
(0 0 0)
(0 0 0)
(0 0 0)
(0 0 0)
(0 0 0)
(0 0 0)
(0 0 0)
(0 0 0)
(0 0 0)
(0 0 0)
(0 0 0)
(0 0 0)
(0 0 0)
(0 0 0)
(0 0 0)
(0 0 0)
(0 0 0)
(0 0 0)
(0 0 0)
(0 0 0)
(0 0 0)
(0 0 0)
(0 0 0)
(0 0 0)
(0 0 0)
(0 0 0)
(0 0 0)
(0 0 0)
(0 0 0)
(0 0 0)
(0 0 0)
(0 0 0)
(0 0 0)
(0 0 0)
(0 0 0)
(0 0 0)
(0 0 0)
(0 0 0)
(0 0 0)
(0 0 0)
(0 0 0)
(0 0 0)
(0 0 0)
(0 0 0)
(0 0 0)
(0 0 0)
(0 0 0)
(0 0 0)
(0 0 0)
(0 0 0)
(0 0 0)
(0 0 0)
(0 0 0)
(0 0 0)
(0 0 0)
(0 0 0)
(0 0 0)
(0 0 0)
(0 0 0)
(0 0 0)
(0 0 0)
(0 0 0)
(0 0 0)
(0 0 0)
(0 0 0)
(0 0 0)
(0 0 0)
(0 0 0)
(0 0 0)
(0 0 0)
(0 0 0)
(0 0 0)
(0 0 0)
(0 0 0)
(0 0 0)
(0 0 0)
(0 0 0)
(0 0 0)
(0 0 0)
(0 0 0)
(0 0 0)
(0 0 0)
(0 0 0)
(0 0 0)
(0 0 0)
(0 0 0)
(0 0 0)
(0 0 0)
(0 0 0)
(0 0 0)
(0 0 0)
(0 0 0)
(0 0 0)
(0 0 0)
(0 0 0)
(0 0 0)
(0 0 0)
(0 0 0)
(0 0 0)
(0 0 0)
(0 0 0)
(0 0 0)
(0 0 0)
(0 0 0)
(0 0 0)
(0 0 0)
(0 0 0)
(0 0 0)
(0 0 0)
(0 0 0)
(0 0 0)
(0 0 0)
(0 0 0)
(0 0 0)
(0 0 0)
(0 0 0)
(0 0 0)
(0 0 0)
(0 0 0)
(0 0 0)
(0 0 0)
(0 0 0)
(0 0 0)
(0 0 0)
(0 0 0)
(0 0 0)
(0 0 0)
(0 0 0)
(0 0 0)
(0 0 0)
(0 0 0)
(0 0 0)
(0 0 0)
(0 0 0)
(0 0 0)
(0 0 0)
(0 0 0)
(0 0 0)
(0 0 0)
(0 0 0)
(0 0 0)
(0 0 0)
(0 0 0)
(0 0 0)
(0 0 0)
(0 0 0)
(0 0 0)
(0 0 0)
(0 0 0)
(0 0 0)
(0 0 0)
(0 0 0)
(0 0 0)
(0 0 0)
(0 0 0)
(0 0 0)
(0 0 0)
(0 0 0)
(0 0 0)
(0 0 0)
(0 0 0)
(0 0 0)
(0 0 0)
(0 0 0)
(0 0 0)
(0 0 0)
(0 0 0)
(0 0 0)
(0 0 0)
(0 0 0)
(0 0 0)
(0 0 0)
(0 0 0)
(0 0 0)
(0 0 0)
(0 0 0)
(0 0 0)
(0 0 0)
(0 0 0)
(0 0 0)
(0 0 0)
(0 0 0)
(0 0 0)
(0 0 0)
(0 0 0)
(0 0 0)
(0 0 0)
(0 0 0)
(0 0 0)
(0 0 0)
(0 0 0)
(0 0 0)
(0 0 0)
(0 0 0)
(0 0 0)
(0 0 0)
(0 0 0)
(0 0 0)
(0 0 0)
(0 0 0)
(0 0 0)
(0 0 0)
(0 0 0)
(0 0 0)
(0 0 0)
(0 0 0)
(0 0 0)
(0 0 0)
(0 0 0)
(0 0 0)
(0 0 0)
(0 0 0)
(0 0 0)
(0 0 0)
(0 0 0)
(0 0 0)
(0 0 0)
(0 0 0)
(0 0 0)
(0 0 0)
(0 0 0)
(0 0 0)
(0 0 0)
(0 0 0)
(0 0 0)
(0 0 0)
(0 0 0)
(0 0 0)
(0 0 0)
(0 0 0)
(0 0 0)
(0 0 0)
(0 0 0)
(0 0 0)
(0 0 0)
(0 0 0)
(0 0 0)
(0 0 0)
(0 0 0)
(0 0 0)
(0 0 0)
(0 0 0)
(0 0 0)
(0 0 0)
(0 0 0)
(0 0 0)
(0 0 0)
(0 0 0)
(0 0 0)
(0 0 0)
(0 0 0)
(0 0 0)
(0 0 0)
(0 0 0)
(0 0 0)
(0 0 0)
(0 0 0)
(0 0 0)
(0 0 0)
(0 0 0)
(0 0 0)
(0 0 0)
(0 0 0)
(0 0 0)
(0 0 0)
(0 0 0)
(0 0 0)
(0 0 0)
(0 0 0)
(0 0 0)
(0 0 0)
(0 0 0)
(0 0 0)
(0 0 0)
(0 0 0)
(0 0 0)
(0 0 0)
(0 0 0)
(0 0 0)
(0 0 0)
(0 0 0)
(0 0 0)
(0 0 0)
(0 0 0)
(0 0 0)
(0 0 0)
(0 0 0)
(0 0 0)
(0 0 0)
(0 0 0)
(0 0 0)
(0 0 0)
(0 0 0)
(0 0 0)
(0 0 0)
(0 0 0)
(0 0 0)
(0 0 0)
(0 0 0)
(0 0 0)
(0 0 0)
(0 0 0)
(0 0 0)
(0 0 0)
(0 0 0)
(0 0 0)
(0 0 0)
(0 0 0)
(0 0 0)
(0 0 0)
(0 0 0)
(0 0 0)
(0 0 0)
(0 0 0)
(0 0 0)
(0 0 0)
(0 0 0)
(0 0 0)
(0 0 0)
(0 0 0)
(0 0 0)
(0 0 0)
(0 0 0)
(0 0 0)
(0 0 0)
(0 0 0)
(0 0 0)
(0 0 0)
(0 0 0)
(0 0 0)
(0 0 0)
(0 0 0)
(0 0 0)
(0 0 0)
(0 0 0)
(0 0 0)
(0 0 0)
(0 0 0)
(0 0 0)
(0 0 0)
(0 0 0)
(0 0 0)
(0 0 0)
(0 0 0)
(0 0 0)
(0 0 0)
(0 0 0)
(0 0 0)
(0 0 0)
(0 0 0)
(0 0 0)
(0 0 0)
(0 0 0)
(0 0 0)
(0 0 0)
(0 0 0)
(0 0 0)
(0 0 0)
(0 0 0)
(0 0 0)
(0 0 0)
(0 0 0)
(0 0 0)
(0 0 0)
(0 0 0)
(0 0 0)
(0 0 0)
(0 0 0)
(0 0 0)
(0 0 0)
(0 0 0)
(0 0 0)
(0 0 0)
(0 0 0)
(0 0 0)
(0 0 0)
(0 0 0)
(0 0 0)
(0 0 0)
(0 0 0)
(0 0 0)
(0 0 0)
(0 0 0)
(0 0 0)
(0 0 0)
(0 0 0)
(0 0 0)
(0 0 0)
(0 0 0)
(0 0 0)
(0 0 0)
(0 0 0)
(0 0 0)
(0 0 0)
(0 0 0)
(0 0 0)
(0 0 0)
(0 0 0)
(0 0 0)
(0 0 0)
(0 0 0)
(0 0 0)
(0 0 0)
(0 0 0)
(0 0 0)
(0 0 0)
(0 0 0)
(0 0 0)
(0 0 0)
(0 0 0)
(0 0 0)
(0 0 0)
(0 0 0)
(0 0 0)
(0 0 0)
(0 0 0)
(0 0 0)
(0 0 0)
(0 0 0)
(0 0 0)
(0 0 0)
(0 0 0)
(0 0 0)
(0 0 0)
(0 0 0)
(0 0 0)
(0 0 0)
(0 0 0)
(0 0 0)
(0 0 0)
(0 0 0)
(0 0 0)
(0 0 0)
(0 0 0)
(0 0 0)
(0 0 0)
(0 0 0)
(0 0 0)
(0 0 0)
(0 0 0)
(0 0 0)
(0 0 0)
(0 0 0)
(0 0 0)
(0 0 0)
(0 0 0)
(0 0 0)
(0 0 0)
(0 0 0)
(0 0 0)
(0 0 0)
(0 0 0)
(0 0 0)
(0 0 0)
(0 0 0)
(0 0 0)
(0 0 0)
(0 0 0)
(0 0 0)
(0 0 0)
(0 0 0)
(0 0 0)
(0 0 0)
(0 0 0)
(0 0 0)
(0 0 0)
(0 0 0)
(0 0 0)
(0 0 0)
(0 0 0)
(0 0 0)
(0 0 0)
(0 0 0)
(0 0 0)
(0 0 0)
(0 0 0)
(0 0 0)
(0 0 0)
(0 0 0)
(0 0 0)
(0 0 0)
(0 0 0)
(0 0 0)
(0 0 0)
(0 0 0)
(0 0 0)
(0 0 0)
(0 0 0)
(0 0 0)
(0 0 0)
(0 0 0)
(0 0 0)
(0 0 0)
(0 0 0)
(0 0 0)
(0 0 0)
(0 0 0)
(0 0 0)
(0 0 0)
(0 0 0)
(0 0 0)
(0 0 0)
(0 0 0)
(0 0 0)
(0 0 0)
(0 0 0)
(0 0 0)
(0 0 0)
(0 0 0)
(0 0 0)
(0 0 0)
(0 0 0)
(0 0 0)
(0 0 0)
(0 0 0)
(0 0 0)
(0 0 0)
(0 0 0)
(0 0 0)
(0 0 0)
(0 0 0)
(0 0 0)
(0 0 0)
(0 0 0)
(0 0 0)
(0 0 0)
(0 0 0)
(0 0 0)
(0 0 0)
(0 0 0)
(0 0 0)
(0 0 0)
(0 0 0)
(0 0 0)
(0 0 0)
(0 0 0)
(0 0 0)
(0 0 0)
(0 0 0)
(0 0 0)
(0 0 0)
(0 0 0)
(0 0 0)
(0 0 0)
(0 0 0)
(0 0 0)
(0 0 0)
(0 0 0)
(0 0 0)
(0 0 0)
(0 0 0)
(0 0 0)
(0 0 0)
(0 0 0)
(0 0 0)
(0 0 0)
(0 0 0)
(0 0 0)
(0 0 0)
(0 0 0)
(0 0 0)
(0 0 0)
(0 0 0)
(0 0 0)
(0 0 0)
(0 0 0)
(0 0 0)
(0 0 0)
(0 0 0)
(0 0 0)
(0 0 0)
(0 0 0)
(0 0 0)
(0 0 0)
(0 0 0)
(0 0 0)
(0 0 0)
(0 0 0)
(0 0 0)
(0 0 0)
(0 0 0)
(0 0 0)
(0 0 0)
(0 0 0)
(0 0 0)
(0 0 0)
(0 0 0)
(0 0 0)
(0 0 0)
(0 0 0)
(0 0 0)
(0 0 0)
(0 0 0)
(0 0 0)
(0 0 0)
(0 0 0)
(0 0 0)
(0 0 0)
(0 0 0)
(0 0 0)
(0 0 0)
(0 0 0)
(0 0 0)
(0 0 0)
(0 0 0)
(0 0 0)
(0 0 0)
(0 0 0)
(0 0 0)
(0 0 0)
(0 0 0)
(0 0 0)
(0 0 0)
(0 0 0)
(0 0 0)
(0 0 0)
(0 0 0)
(0 0 0)
(0 0 0)
(0 0 0)
(0 0 0)
(0 0 0)
(0 0 0)
(0 0 0)
(0 0 0)
(0 0 0)
(0 0 0)
(0 0 0)
(0 0 0)
(0 0 0)
(0 0 0)
(0 0 0)
(0 0 0)
(0 0 0)
(0 0 0)
(0 0 0)
(0 0 0)
(0 0 0)
(0 0 0)
(0 0 0)
(0 0 0)
(0 0 0)
(0 0 0)
(0 0 0)
(0 0 0)
(0 0 0)
(0 0 0)
(0 0 0)
(0 0 0)
(0 0 0)
(0 0 0)
(0 0 0)
(0 0 0)
(0 0 0)
(0 0 0)
(0 0 0)
(0 0 0)
(0 0 0)
(0 0 0)
(0 0 0)
(0 0 0)
(0 0 0)
(0 0 0)
(0 0 0)
(0 0 0)
(0 0 0)
(0 0 0)
(0 0 0)
(0 0 0)
(0 0 0)
(0 0 0)
(0 0 0)
(0 0 0)
(0 0 0)
(0 0 0)
(0 0 0)
(0 0 0)
(0 0 0)
(0 0 0)
(0 0 0)
(0 0 0)
(0 0 0)
(0 0 0)
(0 0 0)
(0 0 0)
(0 0 0)
(0 0 0)
(0 0 0)
(0 0 0)
(0 0 0)
(0 0 0)
(0 0 0)
(0 0 0)
(0 0 0)
(0 0 0)
(0 0 0)
(0 0 0)
(0 0 0)
(0 0 0)
(0 0 0)
(0 0 0)
(0 0 0)
(0 0 0)
(0 0 0)
(0 0 0)
(0 0 0)
(0 0 0)
(0 0 0)
(0 0 0)
(0 0 0)
(0 0 0)
(0 0 0)
(0 0 0)
(0 0 0)
(0 0 0)
(0 0 0)
(0 0 0)
(0 0 0)
(0 0 0)
(0 0 0)
(0 0 0)
(0 0 0)
(0 0 0)
(0 0 0)
(0 0 0)
(0 0 0)
(0 0 0)
(0 0 0)
(0 0 0)
(0 0 0)
(0 0 0)
(0 0 0)
(0 0 0)
(0 0 0)
(0 0 0)
(0 0 0)
(0 0 0)
(0 0 0)
(0 0 0)
(0 0 0)
(0 0 0)
(0 0 0)
(0 0 0)
(0 0 0)
(0 0 0)
(0 0 0)
(0 0 0)
(0 0 0)
(0 0 0)
(0 0 0)
(0 0 0)
(0 0 0)
(0 0 0)
(0 0 0)
(0 0 0)
(0 0 0)
(0 0 0)
(0 0 0)
(0 0 0)
(0 0 0)
(0 0 0)
(0 0 0)
(0 0 0)
(0 0 0)
(0 0 0)
(0 0 0)
(0 0 0)
(0 0 0)
(0 0 0)
(0 0 0)
(0 0 0)
(0 0 0)
(0 0 0)
(0 0 0)
(0 0 0)
(0 0 0)
(0 0 0)
(0 0 0)
(0 0 0)
(0 0 0)
(0 0 0)
(0 0 0)
(0 0 0)
(0 0 0)
(0 0 0)
(0 0 0)
(0 0 0)
(0 0 0)
(0 0 0)
(0 0 0)
(0 0 0)
(0 0 0)
(0 0 0)
(0 0 0)
(0 0 0)
(0 0 0)
(0 0 0)
(0 0 0)
(0 0 0)
(0 0 0)
(0 0 0)
(0 0 0)
(0 0 0)
(0 0 0)
(0 0 0)
(0 0 0)
(0 0 0)
(0 0 0)
(0 0 0)
(0 0 0)
(0 0 0)
(0 0 0)
(0 0 0)
(0 0 0)
(0 0 0)
(0 0 0)
(0 0 0)
(0 0 0)
(0 0 0)
(0 0 0)
(0 0 0)
(0 0 0)
(0 0 0)
(0 0 0)
(0 0 0)
(0 0 0)
(0 0 0)
(0 0 0)
(0 0 0)
(0 0 0)
(0 0 0)
(0 0 0)
(0 0 0)
(0 0 0)
(0 0 0)
(0 0 0)
(0 0 0)
(0 0 0)
(0 0 0)
(0 0 0)
(0 0 0)
(0 0 0)
(0 0 0)
(0 0 0)
(0 0 0)
(0 0 0)
(0 0 0)
(0 0 0)
(0 0 0)
(0 0 0)
(0 0 0)
(0 0 0)
(0 0 0)
(0 0 0)
(0 0 0)
(0 0 0)
(0 0 0)
(0 0 0)
(0 0 0)
(0 0 0)
(0 0 0)
(0 0 0)
(0 0 0)
(0 0 0)
(0 0 0)
(0 0 0)
(0 0 0)
(0 0 0)
(0 0 0)
(0 0 0)
(0 0 0)
(0 0 0)
(0 0 0)
(0 0 0)
(0 0 0)
(0 0 0)
(0 0 0)
(0 0 0)
(0 0 0)
(0 0 0)
(0 0 0)
(0 0 0)
(0 0 0)
(0 0 0)
(0 0 0)
(0 0 0)
(0 0 0)
(0 0 0)
(0 0 0)
(0 0 0)
(0 0 0)
(0 0 0)
(0 0 0)
(0 0 0)
(0 0 0)
(0 0 0)
(0 0 0)
(0 0 0)
(0 0 0)
(0 0 0)
(0 0 0)
(0 0 0)
(0 0 0)
(0 0 0)
(0 0 0)
(0 0 0)
(0 0 0)
(0 0 0)
(0 0 0)
(0 0 0)
(0 0 0)
(0 0 0)
(0 0 0)
(0 0 0)
(0 0 0)
(0 0 0)
(0 0 0)
(0 0 0)
(0 0 0)
(0 0 0)
(0 0 0)
(0 0 0)
(0 0 0)
(0 0 0)
(0 0 0)
(0 0 0)
(0 0 0)
(0 0 0)
(0 0 0)
(0 0 0)
(0 0 0)
(0 0 0)
(0 0 0)
(0 0 0)
(0 0 0)
(0 0 0)
(0 0 0)
(0 0 0)
(0 0 0)
(0 0 0)
(0 0 0)
(0 0 0)
(0 0 0)
(0 0 0)
(0 0 0)
(0 0 0)
(0 0 0)
(0 0 0)
(0 0 0)
(0 0 0)
(0 0 0)
(0 0 0)
(0 0 0)
(0 0 0)
(0 0 0)
(0 0 0)
(0 0 0)
(0 0 0)
(0 0 0)
(0 0 0)
(0 0 0)
(0 0 0)
(0 0 0)
(0 0 0)
(0 0 0)
(0 0 0)
(0 0 0)
(0 0 0)
(0 0 0)
(0 0 0)
(0 0 0)
(0 0 0)
(0 0 0)
(0 0 0)
(0 0 0)
(0 0 0)
(0 0 0)
(0 0 0)
(0 0 0)
(0 0 0)
(0 0 0)
(0 0 0)
(0 0 0)
(0 0 0)
(0 0 0)
(0 0 0)
(0 0 0)
(0 0 0)
(0 0 0)
(0 0 0)
(0 0 0)
(0 0 0)
(0 0 0)
(0 0 0)
(0 0 0)
(0 0 0)
(0 0 0)
(0 0 0)
(0 0 0)
(0 0 0)
(0 0 0)
(0 0 0)
(0 0 0)
(0 0 0)
(0 0 0)
(0 0 0)
(0 0 0)
(0 0 0)
(0 0 0)
(0 0 0)
(0 0 0)
(0 0 0)
(0 0 0)
(0 0 0)
(0 0 0)
(0 0 0)
(0 0 0)
(0 0 0)
(0 0 0)
(0 0 0)
(0 0 0)
(0 0 0)
(0 0 0)
(0 0 0)
(0 0 0)
(0 0 0)
(0 0 0)
(0 0 0)
(0 0 0)
(0 0 0)
(0 0 0)
(0 0 0)
(0 0 0)
(0 0 0)
(0 0 0)
(0 0 0)
(0 0 0)
(0 0 0)
(0 0 0)
(0 0 0)
(0 0 0)
(0 0 0)
(0 0 0)
(0 0 0)
(0 0 0)
(0 0 0)
(0 0 0)
(0 0 0)
(0 0 0)
(0 0 0)
(0 0 0)
(0 0 0)
(0 0 0)
(0 0 0)
(0 0 0)
(0 0 0)
(0 0 0)
(0 0 0)
(0 0 0)
(0 0 0)
(0 0 0)
(0 0 0)
(0 0 0)
(0 0 0)
(0 0 0)
(0 0 0)
(0 0 0)
(0 0 0)
(0 0 0)
(0 0 0)
(0 0 0)
(0 0 0)
(0 0 0)
(0 0 0)
(0 0 0)
(0 0 0)
(0 0 0)
(0 0 0)
(0 0 0)
(0 0 0)
(0 0 0)
(0 0 0)
(0 0 0)
(0 0 0)
(0 0 0)
(0 0 0)
(0 0 0)
(0 0 0)
(0 0 0)
(0 0 0)
(0 0 0)
(0 0 0)
(0 0 0)
(0 0 0)
(0 0 0)
(0 0 0)
(0 0 0)
(0 0 0)
(0 0 0)
(0 0 0)
(0 0 0)
(0 0 0)
(0 0 0)
(0 0 0)
(0 0 0)
(0 0 0)
(0 0 0)
(0 0 0)
(0 0 0)
(0 0 0)
(0 0 0)
(0 0 0)
(0 0 0)
(0 0 0)
(0 0 0)
(0 0 0)
(0 0 0)
(0 0 0)
(0 0 0)
(0 0 0)
(0 0 0)
(0 0 0)
(0 0 0)
(0 0 0)
(0 0 0)
(0 0 0)
(0 0 0)
(0 0 0)
(0 0 0)
(0 0 0)
(0 0 0)
(0 0 0)
(0 0 0)
(0 0 0)
(0 0 0)
(0 0 0)
(0 0 0)
(0 0 0)
(0 0 0)
(0 0 0)
(0 0 0)
(0 0 0)
(0 0 0)
(0 0 0)
(0 0 0)
(0 0 0)
(0 0 0)
(0 0 0)
(0 0 0)
(0 0 0)
(0 0 0)
(0 0 0)
(0 0 0)
(0 0 0)
(0 0 0)
(0 0 0)
(0 0 0)
(0 0 0)
(0 0 0)
(0 0 0)
(0 0 0)
(0 0 0)
(0 0 0)
(0 0 0)
(0 0 0)
(0 0 0)
(0 0 0)
(0 0 0)
(0 0 0)
(0 0 0)
(0 0 0)
(0 0 0)
(0 0 0)
(0 0 0)
(0 0 0)
(0 0 0)
(0 0 0)
(0 0 0)
(0 0 0)
(0 0 0)
(0 0 0)
(0 0 0)
(0 0 0)
(0 0 0)
(0 0 0)
(0 0 0)
(0 0 0)
(0 0 0)
(0 0 0)
(0 0 0)
(0 0 0)
(0 0 0)
(0 0 0)
(0 0 0)
(0 0 0)
(0 0 0)
(0 0 0)
(0 0 0)
(0 0 0)
(0 0 0)
(0 0 0)
(0 0 0)
(0 0 0)
(0 0 0)
(0 0 0)
(0 0 0)
(0 0 0)
(0 0 0)
(0 0 0)
(0 0 0)
(0 0 0)
(0 0 0)
(0 0 0)
(0 0 0)
(0 0 0)
(0 0 0)
(0 0 0)
(0 0 0)
(0 0 0)
(0 0 0)
(0 0 0)
(0 0 0)
(0 0 0)
(0 0 0)
(0 0 0)
(0 0 0)
(0 0 0)
(0 0 0)
(0 0 0)
(0 0 0)
(0 0 0)
(0 0 0)
(0 0 0)
(0 0 0)
(0 0 0)
(0 0 0)
(0 0 0)
(0 0 0)
(0 0 0)
(0 0 0)
(0 0 0)
(0 0 0)
(0 0 0)
(0 0 0)
(0 0 0)
(0 0 0)
(0 0 0)
(0 0 0)
(0 0 0)
(0 0 0)
(0 0 0)
(0 0 0)
(0 0 0)
(0 0 0)
(0 0 0)
(0 0 0)
(0 0 0)
(0 0 0)
(0 0 0)
(0 0 0)
(0 0 0)
(0 0 0)
(0 0 0)
(-0.0406969 0.0395128 -0.00422477)
(-0.0970683 0.0160171 -0.00614948)
(-0.0835897 0.0599413 -0.000235018)
(-0.137066 0.0524314 -0.00213839)
(-0.0971053 0.00150605 -0.0104523)
(-0.141192 0.0154748 -0.0110768)
(-0.083521 0.00127829 -0.0140932)
(-0.0369384 -0.0108132 -0.0108088)
(0.0330003 -0.0143365 -0.00276191)
(0.00750064 0.0187933 -0.00467936)
(0.00583069 0.0525401 0.00713695)
(0.0618376 0.00362565 0.00781221)
(0.0264906 0.0180285 0.0162073)
(-0.0687759 0.0838481 0.0216556)
(-0.172486 0.102651 0.0149786)
(-0.048962 0.0536126 0.0240525)
(-0.139944 0.0987223 0.0294237)
(-0.214891 0.0853316 -0.00966721)
(-0.142477 0.0304507 -0.0194979)
(-0.200056 0.10428 0.015409)
(-0.175782 0.0735935 -0.0181405)
(-0.0447628 -0.0060036 -0.0162503)
(-0.00390607 -0.000871849 -0.00792202)
(-0.0815983 0.0423188 -0.0294091)
(0.0027484 0.0283152 -0.0179278)
(0.0125419 0.0356483 -0.00960212)
(0.0638983 -0.0456636 -0.00683623)
(0.0369555 -0.0123472 -0.0254716)
(0.0581494 -0.0246923 -0.00756847)
(0.100049 -0.00790434 0.0249923)
(0.0299428 0.0112092 0.0142407)
(0.0972849 0.00421749 0.0239726)
(0.0389903 0.0109692 0.0216479)
(-0.0288943 0.0431813 0.0135512)
(-0.0842249 0.0793291 0.0188381)
(-0.00225455 0.0349902 0.0105202)
(-0.0440794 0.0611469 0.0162361)
(-0.154065 0.103202 0.0135318)
(-0.154869 0.11732 -0.0236477)
(-0.10183 0.101607 0.0119623)
(-0.122765 0.147915 0.00225922)
(-0.0874618 0.108481 -0.0352236)
(-0.0146916 0.0995218 -0.0271474)
(-0.0778998 0.169912 -0.0207422)
(-0.0303142 0.16109 -0.0120849)
(0.00959732 0.075038 -0.0028994)
(-0.00673792 0.0719899 0.00365242)
(-0.00221315 0.024961 -0.00509176)
(0.025591 -0.00509381 -0.0216815)
(0.0465377 -0.00622999 0.00460857)
(0.0342315 0.0170031 0.00695678)
(0.0861483 -0.0016529 0.0236439)
(0.0412303 0.00503782 0.0174398)
(0.0450266 -0.00168031 0.00674871)
(0.0340178 -0.0107614 0.00669599)
(0.000117881 0.0182348 0.0132582)
(-0.0438652 0.0361134 0.0103879)
(0.00629607 -0.00301999 0.00257188)
(-0.0255607 0.0130133 0.00895172)
(-0.079899 0.0615417 -0.00582506)
(-0.0799248 0.0855096 -0.0107241)
(-0.05005 0.0284888 0.00303034)
(-0.0555177 0.0380491 2.6411e-05)
(-0.0620372 0.109389 -0.0117872)
(-0.0395845 0.0892513 -0.00881858)
(-0.046756 0.0386012 -0.00285281)
(-0.0474679 0.0132101 0.00295577)
(-0.0291118 0.0264233 -0.00706359)
(-0.00270928 0.0123469 -0.00359913)
(-0.0317588 0.0155616 -0.0095352)
(0.0142901 0.011182 0.00262766)
(0.013289 0.0247035 0.000385382)
(0.0144174 0.0161584 -0.00520032)
(0.00997258 0.0173918 0.00249687)
(0.0093209 0.0231058 0.00677989)
(0.00761722 0.0050716 -0.00148822)
(-0.0058343 -0.00369855 -0.000362646)
(-0.00185685 0.00528636 0.00642827)
(-0.0145859 -0.0104103 0.000212295)
(-0.0343719 -0.0117941 0.0047342)
(-0.0376635 -0.0233019 0.000764237)
(-0.032165 -0.0366152 0.00855519)
(-0.0480633 -0.0385964 -0.00244939)
(-0.0365936 -0.0186799 0.00368114)
(-0.0359686 -0.0162129 0.000195778)
(-0.0401346 -0.0349814 -0.00542915)
(-0.0218443 -0.00737999 -0.0131112)
(-0.0244945 0.00615861 -0.00984013)
(0.00377042 0.007523 0.00407996)
(-0.0114628 -0.00465667 0.0114279)
(-0.0293215 -0.0184178 0.00940003)
(-0.0199246 -0.0142873 -0.00461703)
(-0.0457224 -0.0375152 0.00208297)
(-0.0460136 -0.0236316 -0.0109622)
(-0.0266849 -0.0183775 -0.0138014)
(-0.0267385 -0.0145482 -0.0208912)
(-0.105645 0.0642745 -0.0357139)
(-0.103281 0.0527162 -0.0754139)
(-0.168246 0.0168329 -0.0340075)
(-0.156996 0.0675424 -0.0329358)
(-0.187074 0.037035 -0.0342244)
(-0.11559 0.0119041 -0.0527945)
(-0.138002 0.0450164 -0.0722686)
(-0.13968 0.0220956 -0.0690824)
(-0.161094 -0.0103942 -0.0311065)
(-0.100169 -0.0241008 -0.0269485)
(-0.0928127 -0.00719084 -0.0417543)
(-0.0961779 -0.00920949 -0.0570411)
(-0.0663989 -0.0189664 -0.0460509)
(-0.0550377 -0.0267201 -0.0144536)
(-0.056343 -0.0224268 -0.033768)
(0.0108326 0.0132238 -0.0151631)
(-0.0034433 0.0192942 -0.0240714)
(-0.0710435 0.109806 -0.0425026)
(0.0334534 0.0599857 -0.0152328)
(-0.00552843 0.141524 0.00171686)
(-0.0267557 0.0410172 -0.0509987)
(-0.0828044 0.0792598 -0.0693905)
(0.00488301 0.0575585 -0.0337036)
(-0.0371352 0.1185 -0.0240333)
(-0.0290242 -0.0237835 -0.017298)
(-0.0969 -0.017183 -0.0755137)
(-0.0308341 -0.00875037 -0.0438246)
(-0.0786175 -0.0285748 -0.053655)
(-0.0590193 -0.0410057 -0.0424738)
(-0.0941627 -0.044583 -0.0909288)
(-0.0757186 -0.054545 -0.0850321)
(0.000912216 0.00997669 -0.0270653)
(-0.0340282 -0.0485218 -0.0583648)
(0.01916 0.00741384 0.00167999)
(0.00656257 0.0133168 0.0231344)
(0.00850539 0.0144618 0.0220404)
(-0.00570113 0.0178365 0.00042653)
(-0.00333693 0.0147111 0.0236624)
(-0.0177773 0.0210359 0.0273966)
(0.019128 0.0504139 -0.0605103)
(0.00661502 0.0240524 -0.0527171)
(-0.0340295 -0.0466918 -0.0875352)
(-0.0357342 -0.0427906 -0.0918162)
(0.000203955 -0.00849981 -0.0631467)
(0.0074078 0.0157071 0.0223738)
(0.00487135 0.0119095 0.0122409)
(-0.00169027 0.0143221 0.025596)
(-0.0143834 0.0174835 0.0329456)
(-0.00843849 0.00662112 0.0186725)
(0.00286829 0.029994 -0.0920406)
(-0.0249414 0.0435694 -0.0742948)
(0.0150845 -0.0210944 -0.127679)
(0.00322774 -0.00417326 -0.124746)
(-0.0139282 0.0185285 -0.128149)
(0.00372902 0.0116222 0.00489247)
(-0.00612488 0.000330347 0.00928076)
(-0.0175258 0.0458111 -0.0370494)
(0.00536109 0.0320367 0.0229813)
(-0.0210162 0.0535257 0.0398172)
(-0.0244068 0.0128305 -0.00206109)
(-0.0558519 0.0378748 -0.0806989)
(-0.00611764 0.0280695 0.0359499)
(-0.0781415 0.0569185 0.00976122)
(-0.0432492 0.0288269 -0.0822325)
(-0.063297 -0.00156265 -0.0445083)
(-0.0342483 0.0161913 -0.046654)
(-0.0337436 0.10495 -0.153346)
(0.000227417 0.0760546 -0.160081)
(-0.0608529 0.0467566 -0.112475)
(-0.033647 0.0481726 -0.133742)
(-0.0102818 0.031313 -0.152933)
(-0.0310597 0.00605079 0.0473674)
(-0.076742 -0.0159301 0.112418)
(-0.098743 -0.0239153 0.0259884)
(-0.0915329 -0.0165412 -0.00970068)
(-0.111768 -0.0177223 0.0678449)
(-0.133071 -0.00813994 0.00403333)
(-0.103997 -0.0109337 -0.0316498)
(-0.080868 -0.00199721 -0.0462071)
(-0.0842407 -0.00713025 -0.0420308)
(-0.113532 0.00350491 -0.0672981)
(-0.0883159 0.0198055 -0.095826)
(-0.0967197 0.00436384 -0.067021)
(-0.0658395 0.0299299 -0.111902)
(-0.0633519 0.0339786 -0.0686139)
(-0.0397624 0.0147182 -0.0475971)
(-0.0503975 0.00142684 -0.0602327)
(-0.08242 0.0218046 -0.0669399)
(-0.072026 -0.000488921 -0.0731587)
(-0.0114939 -0.00529897 -0.0535441)
(-0.0465213 -0.00499226 -0.0500239)
(-0.0286144 -0.0346928 -0.0641026)
(-0.0444578 -0.00933742 -0.0689706)
(-0.0440792 -0.00700299 -0.0508102)
(-0.00238712 0.000277292 -0.058111)
(0.00787209 -0.0285372 -0.078688)
(-0.014821 -0.00245684 -0.0561128)
(-0.0580817 -0.0202128 -0.0488789)
(0 0 0)
(-0.00799819 0.0148188 -0.0256016)
(-0.011625 0.0129782 -0.0232325)
(-0.0733341 0.04687 -0.0588749)
(-0.0153737 0.0432876 -0.042124)
(-0.0652402 0.0801238 -0.00815949)
(-0.025098 0.0205616 -0.0542969)
(-0.0635485 0.0188376 -0.0349692)
(-0.0385845 0.025993 -0.0345376)
(-0.0900496 0.0415134 0.00951551)
(-0.0723134 -0.0517566 -0.0567134)
(-0.0768608 -0.0697131 -0.0869566)
(-0.0906894 -0.0830713 -0.0995116)
(0.24844 -0.286983 -0.282334)
(0 0 0)
(0.202777 -0.157278 -0.262413)
(-0.0877312 -0.0184731 -0.588186)
(-0.0551407 -0.0855889 -0.0890731)
(0 0 0)
(-0.0215577 0.0214951 0.00695299)
(-0.00921981 0.0257985 0.0370728)
(-0.0456549 0.0363686 0.0466635)
(-0.0394602 0.029475 0.0170888)
(-0.0171057 0.0512579 0.0619541)
(-0.0630725 0.0616553 0.0766442)
(-0.0691357 -0.112511 -0.116122)
(-0.0197117 -0.0956237 -0.0327582)
(-0.0885119 -0.178871 -0.231269)
(-0.0680798 -0.140397 -0.17131)
(-0.0266253 -0.0960533 -0.0651263)
(-0.034078 0.0348523 0.0635957)
(-0.0248435 0.00697173 0.0506897)
(-0.00413355 0.0581102 0.0937552)
(-0.0443991 0.0698334 0.116448)
(-0.0253958 0.0201361 0.119677)
(0.0169478 -0.078166 -0.0577311)
(-0.0348166 0.00128999 -0.0771526)
(0.00323422 -0.0798647 -0.0869197)
(0.0111341 -0.0681008 -0.0614091)
(-0.00443039 -0.048839 -0.00619931)
(-0.0193179 -0.0142692 0.0348323)
(-0.037201 -0.0378248 0.111049)
(-0.0734602 0.01122 -0.0887285)
(-0.0622518 -0.00434262 -0.0155726)
(-0.114191 0.0179531 -0.115338)
(-0.0806396 -0.0391184 0.0402131)
(-0.0706139 -0.015058 -0.0859636)
(-0.0672581 -0.0389007 -0.0683862)
(-0.0786523 -0.0253437 -0.114996)
(0.000708694 0.0505887 -0.112536)
(-0.0455733 0.0969655 -0.133437)
(-0.0304445 0.0652619 -0.139357)
(-0.0389849 0.0665804 -0.0411628)
(-0.0145456 0.0608467 -0.0478822)
(-0.0492122 0.109644 -0.0756265)
(-0.0332256 0.0691546 -0.0803882)
(-0.00796922 0.00921489 -0.0173381)
(-0.0443463 -0.0599998 -0.0836198)
(-0.0361662 -0.0458873 -0.0898939)
(-0.153753 0.0898711 -0.0654035)
(-0.125009 0.0378414 -0.0421697)
(-0.0668345 0.058547 -0.0224879)
(-0.130178 0.113904 -0.0710188)
(-0.0938817 0.109097 -0.0740268)
(-0.0970236 0.0532112 -0.117282)
(-0.0928345 0.0207451 -0.0834849)
(-0.127247 0.085571 -0.0752025)
(-0.104276 0.068232 -0.0825701)
(-0.0871675 0.0440271 -0.0684085)
(-0.0779508 0.0693682 -0.0934419)
(-0.0208966 -0.00274122 -0.0264446)
(-0.00811552 -0.0147507 0.00668385)
(0.00417257 -0.0123919 -0.0315338)
(-0.0276968 -0.0277139 -0.0216195)
(-0.00970129 -0.064745 -0.0443243)
(-0.00396873 -0.0105676 -0.00760385)
(-0.0182104 -0.0427045 0.0220272)
(-0.0105664 -0.0464047 -0.00649325)
(0.0269773 -0.0493559 -0.0828435)
(0 0 0)
(0 0 0)
(0 0 0)
(0 0 0)
(0 0 0)
(0 0 0)
(-0.0178028 0.014339 -0.00929925)
(-0.021333 0.0157014 0.00416954)
(-0.0539494 -0.0074898 -0.00827487)
(-0.0549074 0.0171451 -0.0119506)
(-0.111745 -0.00233812 0.0238073)
(-0.0144563 -0.00251948 -0.0144746)
(-0.0385986 -0.0307457 0.0200167)
(-0.054574 0.00884649 0.00799581)
(-0.099671 -0.0221007 0.032385)
(0 0 0)
(0.211759 -0.12289 -0.180372)
(-0.0631136 -0.00797454 -0.568675)
(0 0 0)
(0 0 0)
(0 0 0)
(0 0 0)
(0 0 0)
(-0.0142411 0.030973 -0.561386)
(-0.0551662 0.0493492 0.0397087)
(-0.0190378 0.0836842 0.09996)
(-0.0729839 0.0924819 0.108359)
(-0.0639729 0.0563389 0.0569058)
(-0.0211893 0.103865 0.14133)
(-0.0856684 0.112752 0.132965)
(-0.0820762 -0.136616 -0.26864)
(-0.0225345 -0.0905449 -0.101103)
(-0.062033 0.0179055 -0.522108)
(-0.0893394 -0.0486533 -0.520357)
(-0.0123818 -0.106093 -0.187942)
(-0.0457237 0.111958 0.1773)
(-0.0187142 0.0520396 0.206895)
(-0.00302088 0.137677 0.197009)
(-0.0405891 0.157012 0.238064)
(0.0275299 0.0984753 0.284682)
(-0.00180375 -0.0529371 -0.0893333)
(-0.0457102 -0.066467 -0.0298008)
(-0.0270616 -0.120791 -0.16983)
(-0.0125343 -0.0661778 -0.14207)
(-0.01586 -0.0674981 -0.08677)
(-0.0430767 -0.0306391 0.215006)
(-0.0271592 0.0161592 0.277007)
(-0.0551211 -0.0304505 -0.0856791)
(-0.0415065 -0.036125 -0.102623)
(-0.0460414 -0.0399336 -0.105996)
(-0.0359256 -0.0279638 -0.107178)
(-0.0536147 -0.040978 -0.0864589)
(-0.013879 -0.0151293 -0.142397)
(-0.0735801 -0.058351 -0.0738352)
(-0.0333649 -0.0247946 -0.0366788)
(-0.0870541 0.0601286 -0.0364997)
(-0.0377609 0.0364745 -0.0410147)
(-0.0789099 -0.0290978 -0.0666809)
(-0.0306868 -0.027314 -0.0784315)
(-0.0765899 0.0217313 -0.0636418)
(-0.0288673 0.0105846 -0.0766619)
(0.0089337 -0.0370491 -0.0629337)
(-0.0580623 -0.052097 -0.0612753)
(-0.118091 -0.0803452 0.0300897)
(-0.10661 -0.0311452 -0.0341693)
(-0.0498347 0.0333147 0.00977914)
(-0.107704 -0.0708735 0.125555)
(-0.123037 -0.0570804 0.0129035)
(-0.0904581 -0.0192018 0.0452943)
(-0.100079 0.0259284 -0.0524672)
(-0.0458896 0.00924602 -0.0242093)
(-0.0951016 -0.0138998 -0.0439485)