/*--------------------------------*- C++ -*----------------------------------*\
| =========                 |                                                 |
| \\      /  F ield         | OpenFOAM: The Open Source CFD Toolbox           |
|  \\    /   O peration     | Version:  5.x                                   |
|   \\  /    A nd           | Web:      www.OpenFOAM.org                      |
|    \\/     M anipulation  |                                                 |
\*---------------------------------------------------------------------------*/
FoamFile
{
    version     2.0;
    format      ascii;
    class       volVectorField;
    location    "4.05";
    object      U;
}
// * * * * * * * * * * * * * * * * * * * * * * * * * * * * * * * * * * * * * //

dimensions      [0 1 -1 0 0 0 0];

internalField   nonuniform List<vector> 
10571
(
(-0.0576768 0.0119018 2.3237)
(0.326583 -0.0707856 1.13328)
(0.54136 -0.0644771 1.73216)
(-0.766511 -0.314597 2.12146)
(-0.286797 -0.138193 1.29686)
(-0.0514198 0.694167 1.95353)
(0.319313 -0.137015 1.34822)
(-0.706377 0.549355 3.97962)
(-0.429438 0.116515 1.51495)
(0.257995 0.398542 1.26248)
(0.27027 0.475673 3.21672)
(0.762214 1.15592 3.32574)
(0.793786 0.746835 2.4083)
(0.255178 0.703668 4.61662)
(-0.350532 0.0757653 1.31548)
(1.65379 -0.611704 3.25912)
(0.52406 0.0178144 1.12732)
(0.19077 0.35559 1.46916)
(-0.742007 -1.04632 3.67133)
(-0.512393 0.00138667 1.35963)
(0.279273 -0.273439 1.16866)
(0.209025 -0.28169 0.899472)
(-0.274689 0.066336 1.50241)
(-0.271539 0.056299 1.21716)
(0.107674 0.455835 1.74457)
(0.182374 -0.0801773 0.619624)
(0.748776 1.15048 2.12224)
(0.39606 0.922173 2.67857)
(0.366291 0.397749 1.06537)
(0.462036 -0.227783 1.14368)
(0.438513 -0.29506 2.25612)
(0.289466 -0.0215532 2.99086)
(-0.271086 -0.0462182 1.3084)
(-0.362306 -0.740907 1.16117)
(0.324253 0.31504 2.08079)
(0.756039 0.868918 1.78224)
(0.172897 -0.279292 1.32909)
(1.20613 -0.557667 5.14536)
(-0.373748 -0.186283 0.937431)
(-1.18797 0.1617 1.82869)
(0.570365 0.313221 1.42047)
(0.190854 0.000972249 2.12183)
(0.322847 -0.117877 1.79188)
(-0.145337 -0.159908 0.768847)
(-0.196722 0.220046 0.993449)
(0.0140908 0.00164343 0.583219)
(0.640902 0.00190937 1.55149)
(-0.236563 0.758607 1.78676)
(0.181549 0.0770369 0.266895)
(0.0028811 0.0610316 0.274769)
(-0.0548881 0.27979 0.740527)
(1.87839 0.845227 2.21234)
(1.86998 0.700365 1.53445)
(0.115652 -0.0193681 0.992173)
(0.573519 1.24813 3.14832)
(1.13821 0.533877 2.8824)
(1.16545 0.635981 2.24346)
(-0.248664 0.180206 1.93661)
(0.110258 -0.0766877 0.831701)
(0.365257 0.0083207 1.06577)
(0.220714 0.185377 1.99906)
(0.747535 0.0356676 3.074)
(0.626069 0.0381649 2.60264)
(-0.340299 0.0526387 1.57776)
(-0.245522 0.675489 2.38877)
(0.397824 0.071842 1.79205)
(0.309643 -0.389925 1.70736)
(0.185626 -0.140796 0.844555)
(-0.046348 0.0824137 0.715779)
(-0.0578794 -0.0648434 0.469249)
(0.0898079 -0.681352 1.4197)
(0.674195 -0.602325 1.39982)
(0.121377 0.0176008 0.106932)
(-0.121182 0.106463 0.110224)
(-0.195067 -0.0828903 0.260915)
(0.443869 -0.0917996 0.451731)
(1.31624 0.425631 1.42523)
(-0.39134 0.337812 1.84632)
(0.0521861 0.597042 1.13032)
(0.79072 0.638779 2.32483)
(0.930776 0.611014 2.19395)
(-0.314031 0.407752 1.73317)
(0.0380086 -0.0496485 0.333463)
(0.171142 0.0566357 0.984023)
(0.142267 0.580384 1.89103)
(0.372632 0.262726 3.48018)
(0.309098 0.222865 2.11743)
(-0.23164 0.564587 0.90442)
(0.101524 0.119934 1.10886)
(0.583901 -0.0205006 3.51206)
(-0.287584 -0.161352 2.04244)
(0.781167 -0.14533 1.00926)
(-0.123531 0.223856 0.685022)
(0.437282 -0.28733 1.0467)
(0.0124966 0.0766462 0.999788)
(0.775619 0.00056245 2.62029)
(-0.00874924 -0.00368339 0.0651573)
(-0.0431251 -0.00339878 -0.0278747)
(-0.0665769 -0.0611724 0.134918)
(0.039317 -0.0973995 0.112072)
(0.276387 0.0564565 1.17878)
(0.691907 0.183849 1.88578)
(0.35053 0.414992 2.20116)
(0.210849 0.350046 2.38663)
(0.460009 0.409714 2.33887)
(-0.175629 0.297479 2.35987)
(0.0108512 0.0115118 0.0303475)
(0.365971 0.339448 0.834711)
(0.288402 0.152387 1.69954)
(0.125066 0.0817136 3.42197)
(0.196909 0.233663 2.24089)
(-0.364689 0.512908 0.984119)
(0.113639 0.246671 0.583509)
(0.542656 -0.0472649 2.73164)
(-0.275058 -0.112121 1.4234)
(-0.182183 0.130114 1.09977)
(-0.369417 0.639392 1.35907)
(0.513201 -0.0951475 0.279009)
(0.270729 -0.102942 0.156464)
(0.343634 0.0621158 2.2132)
(0.229165 0.0568853 0.192464)
(0.0836355 -0.287525 0.311225)
(0.179663 0.174235 -0.04298)
(0.349176 0.240796 -0.198808)
(0.0145717 -0.181576 1.28903)
(0.313907 -0.0760995 1.0936)
(0.361927 0.272446 1.25272)
(0.205861 0.215873 1.98536)
(0.331795 0.224047 2.52624)
(0.000675836 0.260297 2.42215)
(-0.0185374 0.0105572 -0.00755809)
(0.0162771 -0.00898338 -0.0268632)
(0.061401 0.17672 0.420898)
(0.16007 0.113398 1.55059)
(0.0422868 -0.0472686 3.14211)
(0.25944 0.165174 2.46068)
(-0.235536 0.274423 0.988584)
(-0.00323958 -0.0025437 -0.00306826)
(-0.0283722 0.196321 0.452196)
(0.328468 0.0899954 2.61797)
(-0.225996 -0.0219264 1.48146)
(-0.274178 0.212105 1.37679)
(-0.210333 0.535905 1.56934)
(0.280618 0.314611 0.638612)
(0.274328 0.053304 0.439542)
(0.072022 0.14456 2.4101)
(0.0406868 -0.00399519 -0.0744756)
(0.0605738 -0.0704058 -0.0165514)
(0.275246 0.15794 0.120837)
(0.267481 0.121305 -0.00046745)
(-0.140276 -0.217987 1.52494)
(0.268675 -0.0844438 1.037)
(0.261056 0.0453427 0.985463)
(0.2675 -0.0698226 1.96392)
(0.249009 0.0822788 2.53863)
(0.165462 0.235459 2.53307)
(-0.409478 -0.104493 0.037095)
(0.0142759 0.0815456 -0.231205)
(0.127401 0.0162665 0.208264)
(0.101131 0.135096 1.60932)
(0.00282909 -0.113824 3.10351)
(0.181939 0.0337825 2.52571)
(-0.0654536 0.169742 0.961456)
(-0.0230238 0.000103121 -0.0207257)
(-0.0504775 -0.0844673 0.457611)
(0.203365 0.130124 2.74765)
(-0.209976 -0.00295178 1.5605)
(-0.32786 0.0887187 1.4821)
(-0.10178 0.488602 1.56732)
(-0.109249 0.01031 0.0495644)
(0.147484 0.31747 0.966991)
(0.202804 0.028368 0.640548)
(-0.0401892 0.186383 2.46649)
(-0.14338 -0.0363118 -0.111847)
(-0.0646008 0.126411 -0.137228)
(0.05278 0.0995143 0.148962)
(0.146533 -0.0475463 0.149621)
(-0.198124 -0.280465 1.76709)
(0.172173 -0.100007 0.919858)
(0.179935 -0.0226606 0.868813)
(0.195116 -0.249272 1.94032)
(0.232271 -0.0314025 2.48125)
(0.261104 0.212154 2.52569)
(0.0183105 0.100251 -0.0292787)
(0.00406675 -0.014297 -0.2219)
(0.119827 -0.00768046 0.277097)
(0.0188698 0.104113 1.73444)
(-0.0664486 -0.170752 3.06371)
(0.132989 0.000761942 2.45204)
(-0.0811631 0.00371012 0.905963)
(-0.11313 0.111975 -0.0737097)
(-0.0797903 -0.194688 0.40361)
(0.118876 0.095211 2.78319)
(-0.245156 -0.0660287 1.57413)
(-0.390333 0.0596619 1.55594)
(-0.0881953 0.382671 1.2)
(0.0635668 0.0697652 0.135116)
(0.0722225 0.213181 1.08938)
(0.0114731 -0.00541156 0.947872)
(-0.227439 0.176757 2.40529)
(-0.253247 -0.0596026 -0.0840338)
(-0.124867 0.157087 -0.162735)
(-0.0322226 0.0187096 0.191663)
(-0.026381 -0.038196 0.216359)
(-0.298549 -0.315363 1.92062)
(0.0994482 -0.0251905 0.811048)
(0.0823721 -0.0226114 0.768574)
(0.136913 -0.31412 2.03545)
(0.181113 -0.171055 2.45284)
(0.217154 0.155295 2.51722)
(0.352123 0.227514 0.15327)
(-0.00485901 -0.0658855 -0.20341)
(0.107226 -0.00742717 0.36418)
(-0.00291851 -0.00315753 1.7938)
(-0.130177 -0.233016 2.97968)
(0.0194568 -0.050492 2.36005)
(-0.154248 0.0380298 0.988517)
(-0.00583639 0.0345463 0.0321045)
(-0.023902 -0.249733 0.341506)
(0.0566928 0.0555482 2.7706)
(-0.276343 -0.130508 1.62039)
(-0.365713 0.0966623 1.59602)
(-0.109228 0.235761 1.02218)
(0.080287 0.119807 1.10229)
(-0.0553017 -0.0191602 1.25686)
(-0.394779 0.140657 1.95196)
(-0.343474 -0.0873619 -0.0147338)
(-0.165564 0.203715 -0.155279)
(-0.071217 0.0533255 0.251947)
(-0.124352 -0.0534293 0.287361)
(-0.32749 -0.343677 1.95127)
(0.115026 0.0386499 0.705699)
(-0.0681989 -0.0186776 0.785404)
(0.0172787 -0.363955 2.11051)
(0.142744 -0.256621 2.336)
(0.087528 0.130177 2.48363)
(0.0035828 -0.0574034 -0.170851)
(0.0781771 0.0353289 0.425)
(0.0137138 -0.10855 1.87353)
(-0.164079 -0.259406 2.88391)
(-0.0444105 0.0139344 2.14211)
(-0.278643 0.377618 1.0472)
(-0.0118562 -0.0919115 0.170777)
(0.0436861 0.0425705 2.74301)
(-0.240701 -0.141301 1.66841)
(-0.310124 0.128589 1.61165)
(-0.0604917 0.189834 0.951571)
(0.0648448 0.118225 1.21082)
(0.000568034 -0.0396169 1.43598)
(-0.351225 0.15191 1.64474)
(-0.421463 -0.0873237 0.097396)
(-0.187845 0.172379 -0.165007)
(-0.101959 0.0758169 0.246311)
(-0.276098 -0.087793 0.456072)
(-0.325382 -0.313489 1.92519)
(0.056691 0.0952493 0.644885)
(-0.250802 -0.0247608 0.934468)
(-0.131009 -0.386258 2.08554)
(0.0602201 -0.212829 2.21504)
(0.0893761 0.154053 2.40534)
(0.0147201 0.104635 -0.327278)
(0.053506 0.0743981 0.477102)
(0.0488709 -0.155127 1.94294)
(-0.158989 -0.242691 2.81132)
(-0.085092 0.117656 2.02917)
(-0.0802373 0.367784 1.0257)
(-0.0311204 -0.054275 0.162615)
(0.0627416 0.0259534 2.69377)
(-0.190177 -0.145276 1.71532)
(-0.229579 0.169368 1.63922)
(-0.0904251 0.192537 0.949991)
(0.0805841 0.150396 1.35302)
(-0.02558 -0.0471078 1.49197)
(-0.248432 0.143428 1.53266)
(-0.433942 -0.0875344 0.227826)
(-0.243301 0.239825 -0.0742273)
(-0.172016 0.0869562 0.334439)
(-0.432872 -0.0897356 0.608154)
(-0.520745 -0.0902815 1.75413)
(-0.0713914 0.10718 0.650365)
(-0.386833 -0.00718434 1.10281)
(-0.287102 -0.285682 2.05478)
(-0.160386 0.0683586 1.97745)
(0.106226 0.09063 2.17817)
(-0.00269316 0.22112 -0.326091)
(0.0222003 0.116373 0.483017)
(0.0409845 -0.14249 1.98898)
(-0.16933 -0.183266 2.77426)
(-0.0930166 0.222263 1.94996)
(-0.0467121 0.409784 0.99157)
(0.00228462 0.0523577 0.222359)
(0.0803274 0.00648118 2.62115)
(-0.180011 -0.142153 1.74701)
(-0.157037 0.220923 1.69327)
(-0.0801374 0.166125 1.04953)
(0.0615601 0.182682 1.521)
(-0.121426 -0.0502622 1.50176)
(-0.188988 0.0964585 1.48585)
(-0.412903 -0.0887564 0.331052)
(-0.302204 0.296868 0.062603)
(-0.217244 0.0716072 0.452773)
(-0.405148 -0.112403 0.735076)
(-0.633427 -0.0623912 1.0828)
(-0.165264 0.0938555 0.71132)
(-0.427591 0.0111147 1.19925)
(-0.371582 -0.151828 2.05187)
(-0.255254 0.286377 1.77855)
(-0.195833 0.212844 1.588)
(0.000782037 0.242666 -0.251685)
(-0.0042796 0.147935 0.503282)
(-0.00324371 -0.0978669 2.06965)
(-0.21561 -0.0727444 2.76983)
(-0.0778463 0.257994 1.9241)
(-0.00143483 0.348927 1.06795)
(0.044579 0.157783 0.276734)
(0.0700981 -0.0078694 2.56672)
(-0.194652 -0.114553 1.7834)
(-0.120915 0.245355 1.7419)
(-0.0411085 0.0894046 1.10253)
(0.0583949 0.204049 1.70066)
(-0.134641 -0.0329179 1.52801)
(-0.177329 0.0589759 1.26068)
(-0.390062 -0.0872867 0.386579)
(-0.336868 0.32308 0.208768)
(-0.241266 0.050355 0.567144)
(-0.320822 -0.13509 0.790802)
(-0.285135 -0.11641 0.684019)
(-0.200553 0.082784 0.793493)
(-0.422359 0.00996745 1.21248)
(-0.369681 -0.090706 2.00407)
(-0.134502 0.28161 1.64018)
(-0.19177 0.17322 1.09613)
(-0.000258844 0.257099 -0.149817)
(-0.0250357 0.186789 0.582268)
(-0.0590032 -0.0632187 2.10851)
(-0.218965 0.00843681 2.78279)
(-0.0655673 0.240714 1.91481)
(0.0407135 0.219435 1.15076)
(0.0870726 0.209374 0.331899)
(0.0675497 0.00783558 2.51692)
(-0.214337 -0.0813104 1.8316)
(-0.112254 0.239856 1.74098)
(-0.00053552 0.0548234 1.06752)
(0.0625892 0.221566 1.83372)
(0.0398644 0.0320483 1.64131)
(-0.132481 0.041458 1.12565)
(-0.342187 -0.0880834 0.439089)
(-0.330803 0.311709 0.355344)
(-0.275022 0.0162465 0.694454)
(-0.326346 -0.172387 0.812076)
(-0.194017 -0.102616 0.42836)
(-0.20358 0.0947803 0.834305)
(-0.413215 0.0100581 1.18403)
(-0.328527 -0.0589259 1.83261)
(0.041601 0.259565 1.47499)
(-0.138148 0.0995866 0.899136)
(0.0035628 0.286144 -0.0509897)
(-0.0447581 0.226153 0.699615)
(-0.16515 -0.0249864 2.08821)
(-0.148754 0.0492013 2.78149)
(-0.0202871 0.219114 1.8655)
(0.0908511 0.126176 1.22719)
(0.0735508 0.200016 0.429185)
(0.0815571 0.0730497 2.46494)
(-0.204812 -0.034018 1.89578)
(-0.116365 0.230724 1.66018)
(0.0311885 0.0507991 1.04607)
(0.0601834 0.245028 1.93892)
(0.178153 0.0684497 1.74252)
(-0.0145805 -0.0169541 1.16827)
(-0.257232 -0.0682762 0.468143)
(-0.293765 0.280226 0.462543)
(-0.269498 -0.00430275 0.818579)
(-0.319131 -0.176948 0.799974)
(-0.180883 -0.0915518 0.266247)
(-0.181434 0.122747 0.820644)
(-0.367949 0.0380631 1.15024)
(-0.253933 0.00482546 1.55837)
(0.0835454 0.24552 1.33182)
(-0.0441651 0.0184027 0.859247)
(0.00560437 0.277284 0.0629314)
(-0.0695876 0.205587 0.849786)
(-0.321406 0.0485645 2.00531)
(-0.0444972 0.129843 2.68587)
(0.0614504 0.213537 1.81808)
(0.13773 0.0699347 1.28995)
(0.0423834 0.179021 0.552447)
(0.0757928 0.154168 2.40949)
(-0.179778 0.0486295 1.96401)
(-0.0879839 0.242292 1.58755)
(0.0538008 0.0434479 1.08039)
(0.0514209 0.269669 2.01584)
(0.229883 0.077091 1.81644)
(0.119955 -0.0622767 1.30242)
(-0.17463 -0.0559156 0.484581)
(-0.247064 0.241886 0.498644)
(-0.229924 0.0225826 0.914724)
(-0.277024 -0.126389 0.748011)
(-0.166552 -0.0825097 0.18007)
(-0.141056 0.104608 0.801768)
(-0.254748 0.0657186 1.13138)
(-0.207456 0.0540713 1.36921)
(0.013125 0.133975 1.14599)
(-0.00913937 -0.0833917 0.885207)
(0.00303447 0.225967 0.20359)
(-0.135427 0.0964609 1.03979)
(-0.407428 0.106235 1.88508)
(-0.026454 0.240313 2.50038)
(0.144949 0.202734 1.78618)
(0.169058 -0.0013912 1.35343)
(0.0147862 0.16418 0.690694)
(0.0595281 0.215443 2.37224)
(-0.172055 0.130866 2.0323)
(-0.0438601 0.246472 1.57026)
(0.0656626 0.0256779 1.17075)
(0.0418952 0.283866 2.08298)
(0.244016 0.0809867 1.89751)
(0.216414 -0.0840026 1.47221)
(-0.119625 -0.0290126 0.543782)
(-0.214839 0.211416 0.513578)
(-0.181281 0.067748 0.982515)
(-0.194372 -0.0802199 0.742871)
(-0.142658 -0.0770281 0.147012)
(-0.0952586 0.0539443 0.829563)
(-0.167246 0.0620404 1.11474)
(-0.171338 0.00638164 1.20961)
(-0.0732616 -0.00416193 0.984622)
(-0.0743399 -0.183159 0.860515)
(-0.0040923 0.16307 0.368462)
(-0.212951 -0.0148855 1.22352)
(-0.404376 0.103351 1.73606)
(-0.0688018 0.259149 2.28571)
(0.227298 0.172639 1.72188)
(0.135845 -0.0792164 1.39382)
(0.00839181 0.151687 0.840711)
(0.0452061 0.241519 2.34962)
(-0.162769 0.163646 2.1057)
(0.0193637 0.24385 1.60128)
(0.0549996 -0.00357884 1.26672)
(0.038426 0.283905 2.15648)
(0.246343 0.0798932 2.00571)
(0.271567 -0.0980457 1.65032)
(-0.100074 -0.0196126 0.566477)
(-0.205811 0.201408 0.520415)
(-0.138417 0.0968727 1.01506)
(-0.14987 -0.0931112 0.770086)
(-0.120839 -0.0831928 0.158524)
(-0.0715893 0.0141573 0.91568)
(-0.135066 0.0649239 1.10628)
(-0.149116 -0.060908 1.08582)
(-0.095697 -0.0758335 0.893245)
(-0.20686 -0.237879 0.728768)
(-0.00963141 0.119443 0.536226)
(-0.239695 -0.0726873 1.36111)
(-0.365162 0.0473768 1.58046)
(-0.0653422 0.183316 1.99711)
(0.252681 0.119561 1.63068)
(0.103763 -0.107157 1.40319)
(0.0157805 0.137407 0.989133)
(0.0417131 0.24301 2.33505)
(-0.146678 0.157617 2.1596)
(0.0529898 0.230158 1.66409)
(0.0556333 -0.0233866 1.37154)
(0.0382733 0.270494 2.22911)
(0.257755 0.0616702 2.11692)
(0.307473 -0.119082 1.79738)
(-0.108341 -0.0263969 0.565986)
(-0.209117 0.200488 0.537422)
(-0.121584 0.0903233 1.03572)
(-0.131371 -0.115958 0.793393)
(-0.109025 -0.08992 0.185197)
(-0.0586301 -0.0199458 1.0207)
(-0.13602 0.0746675 1.10626)
(-0.14493 -0.0452829 0.997858)
(-0.0603928 -0.0946525 0.868347)
(-0.224005 -0.214383 0.559377)
(-0.0122669 0.100714 0.683425)
(-0.222865 -0.091979 1.44976)
(-0.3056 -0.0133494 1.4415)
(-0.0126551 0.0809913 1.71558)
(0.198235 0.058981 1.57346)
(0.0308881 -0.182039 1.40191)
(0.0232907 0.107227 1.12068)
(0.0519452 0.236959 2.32552)
(-0.124278 0.150166 2.18006)
(0.0345162 0.204095 1.74114)
(0.0743483 -0.0799692 1.50555)
(0.0378347 0.245877 2.28589)
(0.267216 0.0353142 2.2036)
(0.344219 -0.145402 1.89422)
(-0.124261 -0.0316322 0.573255)
(-0.191487 0.19066 0.584219)
(-0.119558 0.070186 1.06507)
(-0.115412 -0.126898 0.792375)
(-0.098851 -0.0968385 0.205515)
(-0.0457686 -0.0442968 1.12854)
(-0.139689 0.109001 1.10354)
(-0.127903 0.0145399 0.919852)
(-0.0175386 -0.107887 0.869044)
(-0.158896 -0.178687 0.438846)
(-0.0124725 0.0989318 0.796882)
(-0.181211 -0.095142 1.51414)
(-0.214684 -0.0278884 1.31935)
(0.0514584 0.00536956 1.52026)
(0.126616 -0.00569939 1.5866)
(-0.131398 -0.17357 1.37021)
(0.0261584 0.068632 1.22537)
(0.0806511 0.2154 2.30718)
(-0.0756593 0.149871 2.18704)
(0.049906 0.127815 1.81889)
(0.110498 -0.155258 1.63822)
(0.0367221 0.21348 2.31788)
(0.268424 0.0094665 2.25688)
(0.376198 -0.170859 1.94572)
(-0.131454 -0.0218996 0.603735)
(-0.147647 0.160573 0.653869)
(-0.12899 0.0439022 1.12022)
(-0.0958332 -0.115029 0.793089)
(-0.0928908 -0.107078 0.220371)
(-0.0331509 -0.0548331 1.22055)
(-0.115558 0.152836 1.0739)
(-0.105114 0.0422979 0.850472)
(-0.00478743 -0.131407 0.86889)
(-0.106549 -0.168829 0.376611)
(-0.0125133 0.102063 0.877342)
(-0.135436 -0.0877922 1.55931)
(-0.120759 -0.00392921 1.21737)
(0.102393 -0.0298904 1.4017)
(0.0910853 -0.0760765 1.63796)
(-0.148913 -0.150114 1.3644)
(0.0271725 0.0308982 1.30503)
(0.11849 0.170582 2.27621)
(0.020099 0.129685 2.19491)
(0.104422 0.0411167 1.88611)
(0.164944 -0.234789 1.74891)
(0.0366864 0.172518 2.32552)
(0.255723 -0.0146562 2.27987)
(0.386887 -0.185749 1.96842)
(-0.0945388 -0.00682345 0.616882)
(-0.0661373 0.115017 0.715248)
(-0.126842 0.0297535 1.18792)
(-0.103636 -0.0942144 0.793107)
(-0.0973829 -0.117458 0.240672)
(-0.0328653 -0.0517111 1.28483)
(-0.0981551 0.184465 1.01462)
(-0.111094 0.0161915 0.793588)
(-0.0307746 -0.16997 0.861911)
(-0.0832994 -0.186222 0.358226)
(-0.010293 0.109698 0.935049)
(-0.0893371 -0.0761347 1.59341)
(-0.0584611 0.0171635 1.15224)
(0.129321 -0.0450779 1.32757)
(0.078482 -0.1355 1.6849)
(-0.0847031 -0.206819 1.42334)
(0.028037 0.00302089 1.36979)
(0.14192 0.105958 2.23596)
(0.121883 0.0742946 2.1894)
(0.179361 -0.0238265 1.94318)
(0.212644 -0.305449 1.81348)
(0.0390301 0.134845 2.28963)
(0.246322 -0.0343474 2.2733)
(0.375263 -0.186475 1.97521)
(-0.0754745 -0.0123734 0.625658)
(-0.0154314 0.070109 0.748016)
(-0.122559 0.016552 1.25834)
(-0.114382 -0.0979945 0.791549)
(-0.107565 -0.12259 0.277197)
(-0.0429717 -0.0434429 1.32484)
(-0.114477 0.187147 0.95622)
(-0.149115 -0.043352 0.761839)
(-0.0923689 -0.231987 0.84228)
(-0.075143 -0.221493 0.372424)
(-0.00690089 0.125932 0.981747)
(-0.0517254 -0.0727728 1.62146)
(-0.0160682 0.0167705 1.13212)
(0.132772 -0.0579911 1.2803)
(0.0683089 -0.175404 1.70867)
(-0.0120514 -0.306148 1.5354)
(0.0279724 -0.0162168 1.43384)
(0.145274 0.0205799 2.15222)
(0.200073 0.0123493 2.15846)
(0.254192 -0.085574 1.98572)
(0.242428 -0.341197 1.84858)
(0.0415068 0.104674 2.2041)
(0.251391 -0.0416121 2.23885)
(0.349591 -0.173967 1.98716)
(-0.0671997 -0.0321749 0.669786)
(-0.0310628 0.057366 0.823796)
(-0.129065 0.00790671 1.2987)
(-0.111742 -0.105646 0.775864)
(-0.11575 -0.115876 0.335075)
(-0.053862 -0.0245903 1.33934)
(-0.138626 0.154415 0.919567)
(-0.193847 -0.105801 0.756963)
(-0.144318 -0.286748 0.811448)
(-0.0764537 -0.254574 0.408101)
(-0.0022503 0.153485 1.02958)
(-0.0199712 -0.0708342 1.64952)
(0.0416373 0.00684752 1.13974)
(0.118151 -0.0758854 1.2517)
(0.0474527 -0.206003 1.71681)
(0.00807977 -0.336828 1.6071)
(0.0248766 -0.0213924 1.50009)
(0.131839 -0.0488 2.01752)
(0.247358 -0.0292682 2.11674)
(0.282548 -0.129753 2.00629)
(0.247617 -0.353049 1.88506)
(0.0373403 0.0890857 2.07777)
(0.257296 -0.0423005 2.18053)
(0.31601 -0.155179 2.00955)
(-0.0547751 -0.0276031 0.750559)
(-0.064376 0.0683183 0.940654)
(-0.134205 -0.013291 1.32302)
(-0.0967709 -0.125948 0.723055)
(-0.117175 -0.102751 0.41012)
(-0.0584395 -0.00348354 1.34075)
(-0.144138 0.0836107 0.910848)
(-0.234756 -0.170611 0.780682)
(-0.179102 -0.320545 0.770632)
(-0.081238 -0.27821 0.45482)
(0.0029246 0.180478 1.08273)
(0.00562148 -0.0555829 1.67997)
(0.107171 -0.0031452 1.14504)
(0.081858 -0.0994706 1.25133)
(-0.00369789 -0.228249 1.71767)
(0.00334003 -0.332789 1.6119)
(0.0180856 -0.0287976 1.56516)
(0.111621 -0.0708267 1.87226)
(0.251903 -0.0674455 2.06629)
(0.273135 -0.146713 2.00395)
(0.23259 -0.332878 1.9091)
(0.0178882 0.077981 1.94408)
(0.250747 -0.0357594 2.11755)
(0.285371 -0.136403 2.0305)
(-0.0501998 -0.0226132 0.814254)
(-0.090988 0.0884718 1.05504)
(-0.169397 -0.0238069 1.3415)
(-0.0999689 -0.15565 0.719787)
(-0.107576 -0.0878756 0.493543)
(-0.060301 0.00992887 1.33948)
(-0.126557 0.000366009 0.932091)
(-0.254721 -0.233485 0.816191)
(-0.193276 -0.320127 0.730184)
(-0.0903926 -0.289816 0.50518)
(0.00964658 0.196957 1.13705)
(0.0347331 -0.0418257 1.72068)
(0.13741 -0.0180338 1.14274)
(-0.0134648 -0.136355 1.28835)
(-0.102909 -0.238924 1.67054)
(0.0144093 -0.308268 1.5585)
(0.00681283 -0.0375863 1.62134)
(0.079826 -0.0533348 1.73848)
(0.200641 -0.112478 2.0019)
(0.238169 -0.154038 1.97869)
(0.203073 -0.304449 1.9241)
(0.0167871 0.0784552 1.84522)
(0.232881 -0.0115913 2.0319)
(0.24986 -0.124776 2.02822)
(-0.0466265 -0.0228796 0.859914)
(-0.0951183 0.0997316 1.15827)
(-0.210621 -0.0257219 1.36098)
(-0.113582 -0.173513 0.761362)
(-0.090832 -0.0744978 0.581011)
(-0.041824 0.0255003 1.34943)
(-0.0998063 -0.0510475 0.971091)
(-0.251787 -0.276569 0.849502)
(-0.18424 -0.300198 0.70913)
(-0.0961925 -0.27702 0.557858)
(0.0176522 0.196217 1.17094)
(0.05651 -0.0166262 1.75479)
(0.133875 -0.0316045 1.14324)
(-0.132669 -0.160715 1.33593)
(-0.18452 -0.242008 1.54674)
(0.0398473 -0.287002 1.43601)
(-0.00820739 -0.0503893 1.66963)
(0.0340273 -0.0206727 1.64032)
(0.104579 -0.133953 1.9295)
(0.15634 -0.147266 1.93093)
(0.181155 -0.295052 1.9086)
(0.015392 0.0590122 1.76646)
(0.194508 0.0102391 1.93418)
(0.21687 -0.119224 1.99559)
(-0.0501429 -0.0269685 0.881652)
(-0.0828413 0.103996 1.22946)
(-0.216385 -0.0149026 1.39798)
(-0.0939445 -0.167811 0.83244)
(-0.0704134 -0.0622433 0.669239)
(-0.0466397 0.0572951 1.36777)
(-0.0810546 -0.0581302 1.01213)
(-0.227585 -0.289906 0.870214)
(-0.162437 -0.265039 0.703258)
(-0.090131 -0.243347 0.607527)
(0.0232004 0.185182 1.19089)
(0.0491664 -0.00334547 1.77861)
(0.109199 -0.0546991 1.15559)
(-0.209568 -0.160745 1.37764)
(-0.18373 -0.235285 1.37513)
(0.0190489 -0.274274 1.25209)
(-0.00862908 -0.0565775 1.70812)
(-0.00791755 0.00862255 1.59611)
(0.00496414 -0.120235 1.86222)
(0.0489737 -0.136545 1.87561)
(0.0907791 -0.253053 1.84671)
(0.00729514 0.0277958 1.70096)
(0.139932 0.0181339 1.84799)
(0.163028 -0.108337 1.90323)
(-0.0608958 -0.0394841 0.907587)
(-0.0743634 0.107963 1.24477)
(-0.176077 0.05909 1.42173)
(-0.0634111 -0.163111 0.892716)
(-0.0421001 -0.0402372 0.762236)
(-0.0733592 0.0837965 1.40719)
(-0.0814155 -0.044491 1.05174)
(-0.193252 -0.27787 0.878849)
(-0.138201 -0.217637 0.704525)
(-0.0733196 -0.195063 0.646686)
(0.0213442 0.168703 1.21393)
(0.0293821 0.0191144 1.763)
(0.0549436 -0.0668399 1.17777)
(-0.233266 -0.154875 1.39418)
(-0.140261 -0.216107 1.19693)
(0.00499439 -0.239493 1.04515)
(0.00778039 -0.0408039 1.75304)
(-0.0259287 0.0327877 1.58844)
(-0.0639955 -0.102283 1.81559)
(-0.0644996 -0.072117 1.82046)
(0.0789048 -0.20025 1.62982)
(0.0109465 0.0130802 1.67012)
(0.0805565 0.0219625 1.7843)
(0.0880919 -0.0695774 1.80448)
(-0.0754091 -0.045154 0.967305)
(-0.0824021 0.107275 1.23838)
(-0.184424 0.0940066 1.37565)
(-0.0459889 -0.168658 0.921808)
(-0.0158117 -0.0061492 0.850488)
(-0.099192 0.0922341 1.46293)
(-0.0963048 -0.0274462 1.09792)
(-0.1645 -0.247219 0.878034)
(-0.124907 -0.170897 0.710996)
(-0.0519567 -0.133742 0.674392)
(0.00908671 0.147618 1.26644)
(-0.0389037 0.0261426 1.66863)
(-0.0541617 -0.0657432 1.20733)
(-0.231535 -0.151089 1.38314)
(-0.102222 -0.193462 1.04488)
(0.00154693 -0.190297 0.880723)
(0.0288874 -0.017022 1.81422)
(-0.0181124 0.0582193 1.59884)
(-0.104522 -0.0835501 1.79777)
(-0.160188 0.0030224 1.75894)
(0.0370307 -0.0960065 1.47724)
(0.0116626 0.0103839 1.66968)
(0.0427033 0.0216701 1.74299)
(0.034546 -0.0345403 1.72617)
(-0.0739065 -0.040062 1.0591)
(-0.12189 0.0887074 1.2722)
(-0.215692 0.0436586 1.26678)
(-0.0580992 -0.16828 0.924158)
(-0.0152788 0.0110807 0.912463)
(-0.108041 0.0847008 1.5228)
(-0.111416 0.000852663 1.14614)
(-0.149156 -0.208441 0.875882)
(-0.117722 -0.13232 0.719048)
(-0.0331994 -0.0643156 0.688401)
(0.0041791 0.129913 1.34172)
(-0.0665951 -0.0191959 1.58119)
(-0.168258 -0.069299 1.22365)
(-0.221661 -0.153868 1.31919)
(-0.0907741 -0.169744 0.923393)
(-0.00813079 -0.147276 0.787779)
(0.0284335 0.0211121 1.88922)
(0.00695929 0.090618 1.6214)
(-0.143631 -0.0371801 1.78818)
(-0.144437 -0.0303042 1.66146)
(0.0112865 -0.0778451 1.27456)
(0.0280603 0.0126522 1.7054)
(0.0324433 0.0185172 1.72945)
(0.000251143 -0.00596699 1.67503)
(-0.0519102 -0.0300498 1.13152)
(-0.108607 0.0645153 1.35245)
(-0.183297 -0.0175141 1.17584)
(-0.0876292 -0.149557 0.924636)
(-0.0152837 0.0132609 0.9408)
(-0.105611 0.0754962 1.58963)
(-0.120783 0.0254424 1.18597)
(-0.14205 -0.170534 0.878479)
(-0.0853261 -0.0970928 0.727625)
(-0.0236436 -0.00870389 0.686906)
(0.0031957 0.108016 1.42243)
(-0.0910337 -0.0195173 1.53579)
(-0.243381 -0.0881703 1.22787)
(-0.214566 -0.170212 1.19892)
(-0.100455 -0.129745 0.834204)
(-0.0229086 -0.100342 0.754343)
(0.0311454 0.0497639 1.97668)
(0.0241608 0.115397 1.646)
(-0.18791 0.0168691 1.75649)
(-0.0296574 -0.0332237 1.49809)
(0.0680311 -0.155439 1.10297)
(0.088178 0.022686 1.79676)
(0.0268711 0.0148214 1.73578)
(-0.0222964 0.0147166 1.64565)
(-0.0437019 -0.0291972 1.1915)
(-0.0596271 0.0265526 1.42323)
(-0.162093 -0.0487198 1.16517)
(-0.116088 -0.134982 0.918036)
(-0.00483011 0.0168133 0.930282)
(-0.0993603 0.0618962 1.66535)
(-0.125584 0.0288523 1.21354)
(-0.127208 -0.144846 0.884555)
(-0.0278279 -0.0669536 0.735626)
(-0.0172127 0.0258144 0.679347)
(0.000893063 0.0807761 1.50705)
(-0.126286 -0.0185532 1.5338)
(-0.270766 -0.110721 1.22286)
(-0.223084 -0.178156 1.09422)
(-0.100954 -0.065816 0.776718)
(-0.0240883 -0.0326499 0.744287)
(0.0315966 0.0676727 2.06021)
(0.0154253 0.131338 1.66551)
(-0.229121 0.0272463 1.71807)
(-0.0696597 -0.0844453 1.24176)
(0.0586083 -0.152795 0.991776)
(0.132535 0.0432364 1.90151)
(0.0310698 0.00802694 1.76292)
(-0.0446311 -0.00541502 1.65315)
(-0.0320141 -0.0116852 1.24262)
(-0.0400238 -0.000590503 1.50679)
(-0.147527 0.00406329 1.23135)
(-0.116358 -0.0762326 0.884774)
(0.023373 0.0559379 0.858816)
(-0.0855966 0.0620374 1.73395)
(-0.125138 0.0272705 1.23202)
(-0.0816997 -0.12325 0.883489)
(0.0359213 -0.0390529 0.73994)
(-0.0031059 0.0477725 0.677542)
(-0.0023787 0.0579014 1.59469)
(-0.144058 -0.00844694 1.55893)
(-0.271609 -0.118323 1.21335)
(-0.225543 -0.179616 1.00548)
(-0.0780346 -0.00488084 0.740696)
(-0.0124789 0.0370568 0.735544)
(0.0232942 0.0717627 2.13669)
(-0.0197613 0.131816 1.67915)
(-0.275796 -0.027355 1.68137)
(-0.100206 -0.11046 0.978777)
(0.0145249 -0.0742646 0.892188)
(0.175391 0.0797399 2.01274)
(0.0613931 0.0114175 1.82551)
(-0.0410518 -0.00843042 1.66214)
(-0.00292201 0.00577764 1.20977)
(-0.00849123 -0.0108242 1.61546)
(-0.0865114 0.12884 1.30026)
(-0.0986006 0.0386607 0.861698)
(0.0311713 0.0557419 0.771742)
(-0.0644561 0.0498642 1.78964)
(-0.118694 0.0408562 1.24672)
(0.00363249 -0.0882509 0.85972)
(0.0856782 -0.0118386 0.742182)
(0.0237489 0.0670482 0.6892)
(-0.00793263 0.0407609 1.67281)
(-0.145293 -0.00933366 1.59865)
(-0.265792 -0.115676 1.20946)
(-0.203536 -0.173179 0.939683)
(-0.045162 0.0301188 0.71238)
(-0.00461852 0.0918679 0.732895)
(0.0212093 0.0756259 2.21437)
(-0.0627946 0.0929179 1.70039)
(-0.318518 -0.121125 1.61196)
(-0.0869307 -0.0850694 0.8331)
(-0.0262613 0.00577448 0.813423)
(0.206322 0.109701 2.11454)
(0.105681 0.0182522 1.90646)
(-0.00267184 0.000683709 1.64032)
(0.0381715 -0.00298704 1.0882)
(0.0372129 -0.0488721 1.70132)
(0.0633183 0.208043 1.28785)
(-0.0403051 0.104345 0.890384)
(0.0400292 0.0226305 0.724694)
(-0.0665926 0.0439704 1.83666)
(-0.100592 0.084608 1.26149)
(0.0736605 -0.053692 0.81219)
(0.10963 0.00842415 0.747746)
(0.0524167 0.0961258 0.721032)
(-0.00675846 0.0337367 1.754)
(-0.133834 -0.0175969 1.64851)
(-0.245456 -0.101367 1.21633)
(-0.153902 -0.150239 0.904431)
(-0.0156818 0.0396601 0.693242)
(-0.00371146 0.127922 0.742599)
(0.0271176 0.0788174 2.28257)
(-0.0840356 0.0103803 1.72181)
(-0.302202 -0.187878 1.51457)
(-0.0691701 -0.0486371 0.774572)
(-0.0484494 0.0598687 0.769938)
(0.217702 0.126939 2.19191)
(0.123976 0.0279925 1.9819)
(-0.0571273 -0.0230578 1.53023)
(0.0733674 -0.00666719 0.969957)
(0.0124033 -0.043488 1.7422)
(0.168198 0.16761 1.24417)
(0.0340878 0.073984 0.939532)
(0.0748794 0.000842044 0.728875)
(-0.0512572 0.0427093 1.86892)
(-0.0731389 0.133268 1.26967)
(0.107856 -0.0430763 0.760743)
(0.110214 0.0165086 0.759881)
(0.0736883 0.136265 0.770615)
(0.00241156 0.05657 1.7994)
(-0.0685994 0.0258266 1.74458)
(-0.182651 -0.0556245 1.25431)
(-0.0866686 -0.102718 0.893118)
(0.0031352 0.0296182 0.689734)
(-0.0109815 0.142607 0.764078)
(0.0452112 0.0764496 2.32317)
(-0.0835996 -0.0768479 1.72641)
(-0.229568 -0.220623 1.41296)
(-0.052569 -0.0153224 0.747968)
(-0.0550751 0.0845423 0.75389)
(0.241152 0.13392 2.24565)
(0.157773 0.0383836 2.06672)
(-0.0523589 -0.0148239 1.29847)
(0.102228 -0.00161844 0.902945)
(-0.00616897 -0.0371797 1.72556)
(0.192911 0.103885 1.2295)
(0.101801 -0.0162035 0.935909)
(0.120168 -0.00487316 0.763221)
(-0.0205784 0.0250057 1.85078)
(-0.0430019 0.150453 1.28902)
(0.120978 -0.0621628 0.716192)
(0.0863948 0.0216387 0.784621)
(0.0864813 0.177256 0.831098)
(0.00309055 0.0715916 1.7907)
(0.00907279 0.0795788 1.81415)
(-0.0789893 0.0193364 1.33934)
(-0.0163615 -0.0383354 0.9071)
(0.0117029 0.00810463 0.704029)
(-0.0179806 0.139992 0.793667)
(0.0526723 0.0620868 2.34991)
(-0.07067 -0.123291 1.72733)
(-0.153088 -0.232127 1.33164)
(-0.038435 0.00295857 0.747203)
(-0.0517995 0.0860499 0.75194)
(0.265709 0.136057 2.2555)
(0.216496 0.0332459 2.1407)
(0.0581094 -0.034987 1.19909)
(0.144036 -0.00278574 0.918417)
(0.136572 -0.0582027 1.57271)
(0.139238 0.0662111 1.23345)
(0.162705 -0.102494 0.871467)
(0.154695 0.000435359 0.811946)
(0.0597196 0.119288 1.77168)
(-0.00742601 0.128165 1.30902)
(0.116223 -0.0882614 0.680835)
(0.0283295 0.0271339 0.828604)
(0.0930426 0.207683 0.891744)
(-0.00157478 0.077571 1.74419)
(0.102802 0.120184 1.81279)
(-0.0031776 0.0707651 1.45364)
(0.0364725 0.0249079 0.933224)
(0.00462866 -0.0114359 0.73143)
(-0.0197337 0.129618 0.827299)
(0.0682913 0.0609613 2.36886)
(-0.0598374 -0.127702 1.73618)