/*--------------------------------*- C++ -*----------------------------------*\
| =========                 |                                                 |
| \\      /  F ield         | OpenFOAM: The Open Source CFD Toolbox           |
|  \\    /   O peration     | Version:  5.x                                   |
|   \\  /    A nd           | Web:      www.OpenFOAM.org                      |
|    \\/     M anipulation  |                                                 |
\*---------------------------------------------------------------------------*/
FoamFile
{
    version     2.0;
    format      ascii;
    class       surfaceScalarField;
    location    "0.15";
    object      phi;
}
// * * * * * * * * * * * * * * * * * * * * * * * * * * * * * * * * * * * * * //

dimensions      [0 3 -1 0 0 0 0];

internalField   nonuniform List<scalar> 
29271
(
-8.39552e-06
4.05623e-08
1.18621e-05
-3.50625e-06
-1.26088e-05
5.64782e-06
5.66342e-06
1.41775e-06
-2.97589e-05
-6.16185e-06
-7.5697e-06
2.50493e-06
1.70526e-06
3.92803e-05
-3.04604e-05
-5.0686e-06
6.24341e-07
-3.02632e-06
-1.01322e-06
3.89442e-05
-3.10594e-05
-6.60215e-06
-6.64899e-06
6.44484e-06
3.25186e-05
5.34712e-06
-2.9274e-05
-7.00719e-06
-6.16973e-06
2.47862e-06
2.18391e-06
3.77884e-05
-2.99973e-05
1.69521e-06
1.64909e-06
-1.79238e-06
-2.16825e-06
3.06136e-05
-3.40343e-05
2.05822e-06
5.18318e-07
1.28955e-06
-9.03432e-07
3.10716e-05
-3.0594e-05
-3.14763e-06
-5.37219e-07
-5.55485e-06
6.4165e-07
3.91921e-05
-2.61527e-05
-2.41487e-06
5.50359e-07
1.9147e-05
8.92904e-06
-7.77739e-06
4.49133e-07
1.09697e-05
-3.63484e-06
-3.02995e-05
-5.40343e-06
4.83615e-07
-9.19428e-07
-3.14302e-06
3.92818e-05
-3.50252e-05
-1.68258e-07
1.91716e-06
-2.98902e-07
1.27286e-06
3.23023e-05
-3.52302e-05
-2.77074e-07
1.50209e-07
3.44473e-07
3.12367e-07
3.47003e-05
-2.98081e-05
-1.0595e-06
-1.52192e-06
-2.37618e-06
-5.0691e-08
3.48163e-05
-3.20513e-05
-2.69897e-07
-9.2925e-06
-5.12312e-07
3.38219e-05
8.30402e-06
-3.13469e-05
-7.09931e-06
6.71447e-06
-6.4236e-06
3.31958e-05
4.95951e-06
-2.97931e-05
-1.7263e-06
-1.17771e-06
-2.8001e-07
-2.98675e-06
3.59639e-05
-3.08468e-05
-1.56668e-06
-2.22699e-07
7.11809e-07
5.61843e-07
3.13625e-05
-3.07185e-05
-8.56628e-06
-7.55649e-06
3.96727e-05
4.18473e-06
2.98387e-06
-1.20505e-05
2.02136e-06
5.40037e-06
4.69947e-06
-2.69624e-05
-4.02302e-06
1.70272e-06
2.2002e-05
7.32379e-06
-3.22922e-05
-6.69415e-07
-5.78706e-07
-1.11451e-05
3.88884e-05
5.797e-06
-1.16855e-05
6.02325e-06
4.17654e-06
1.5504e-06
2.45561e-06
-5.5735e-07
-6.81882e-06
4.9222e-06
3.25216e-06
-6.96943e-07
-6.31173e-07
-1.92179e-06
-4.07866e-07
-1.35978e-06
-4.25789e-05
1.41117e-06
5.35526e-07
4.23998e-05
8.60164e-07
-4.18508e-05
1.01246e-07
-8.81879e-07
5.65066e-07
4.12062e-05
-3.10293e-05
3.54067e-06
7.7041e-07
8.85438e-07
2.48818e-05
9.50972e-07
-1.22722e-06
-5.11253e-07
-4.02638e-05
1.07005e-06
1.08608e-06
3.98462e-05
-2.48364e-06
-4.11484e-07
0.0001295
-3.11966e-05
-3.11577e-05
-2.72028e-05
-2.94206e-05
-1.43542e-06
-2.18663e-06
-3.1619e-07
-4.64459e-07
-1.45083e-06
-1.5483e-06
-1.40858e-08
-2.112e-07
-9.29289e-06
-1.96698e-06
0.000128617
-3.21501e-05
-3.01872e-05
-3.03182e-05
-2.53421e-05
-1.08309e-06
-1.9869e-06
9.11026e-07
3.16327e-07
-3.02875e-06
-8.07571e-07
0.000162671
-2.72127e-06
-6.48439e-07
4.85315e-07
3.09345e-08
-1.84728e-06
-1.32656e-06
-1.17099e-06
-4.37391e-05
-3.86756e-05
-3.81267e-05
-4.0388e-05
-1.44445e-05
3.20853e-06
-8.54619e-07
9.06559e-06
2.21892e-06
-6.68087e-08
-5.88446e-06
3.73231e-06
1.8494e-07
-4.19494e-05
1.78426e-08
1.43101e-06
-7.74675e-07
4.10903e-05
-3.42477e-06
-6.20327e-06
0.000142058
-3.33939e-05
-3.39185e-05
-2.83755e-05
-3.3047e-05
-1.57017e-06
-2.06167e-06
-2.4888e-07
-2.25805e-07
-1.15045e-05
-5.13893e-06
0.000144931
-3.42482e-05
-3.42603e-05
-3.19064e-05
-3.32641e-05
-1.99983e-06
-3.10382e-06
0.000166973
-2.69838e-06
-9.49419e-07
-9.68325e-07
-5.94238e-07
4.04538e-07
5.13037e-08
-3.90379e-05
-4.49536e-05
-4.67235e-05
-3.87117e-05
-2.97962e-05
2.57144e-07
3.89751e-06
4.17558e-07
2.32241e-05
-3.0007e-05
3.82697e-06
1.00461e-06
8.45092e-07
2.30427e-05
1.2876e-06
-1.46354e-06
-2.38719e-06
0.000155569
-2.62414e-06
-1.26527e-06
3.44634e-07
-3.20313e-09
-4.77881e-07
-7.57767e-07
-2.68486e-07
-3.96609e-05
-3.37227e-05
-3.91516e-05
-4.03347e-05
-3.85836e-06
4.34241e-07
0.000156637
-1.46402e-06
-8.57099e-07
-4.02872e-07
-1.13675e-06
8.5663e-07
1.0652e-06
-3.3423e-05
-4.03432e-05
-4.2219e-05
-4.18913e-05
-4.23735e-05
-2.69649e-06
-1.66207e-06
3.97699e-05
-1.74538e-06
-2.36722e-06
7.62904e-07
3.3529e-06
-1.75914e-05
1.3948e-06
1.06331e-06
1.27455e-05
-3.95451e-05
-2.26983e-07
-4.15962e-07
7.70039e-06
3.29219e-05
1.58722e-06
-1.83492e-06
-2.84415e-06
3.09192e-06
-5.80509e-06
-2.74849e-08
-2.75045e-07
6.10659e-06
2.82648e-06
-3.18062e-08
7.59213e-08
-2.86926e-06
-1.56507e-06
-1.19255e-06
-4.33584e-05
8.82765e-07
9.45036e-07
4.42882e-05
-1.08942e-06
-4.18044e-05
-1.0506e-07
-3.09205e-07
4.98784e-07
4.28093e-05
-2.65243e-05
-1.18463e-06
3.05588e-08
8.49773e-07
2.61319e-05
6.96652e-07
-1.05736e-06
-9.86492e-07
-4.10071e-05
3.70583e-07
6.22405e-07
4.2058e-05
-2.29207e-06
-9.4945e-07
0.000139726
-8.99226e-07
-2.16244e-06
-7.2757e-07
-9.06391e-07
-4.81418e-07
-1.24618e-06
-2.6106e-07
-2.99996e-07
-6.35782e-06
-1.12582e-06
0.000134651
-7.03345e-07
-9.93098e-07
6.83025e-07
1.70697e-07
-1.81194e-06
6.12968e-08
0.000164263
-9.16678e-07
-3.98865e-07
3.93052e-07
-5.09899e-07
-2.1994e-06
-1.12389e-06
-1.44337e-06
-6.82134e-06
3.28291e-07
-6.06288e-08
4.74657e-06
-3.99717e-06
-3.67796e-07
1.54484e-08
4.34817e-06
-1.47307e-06
-4.1058e-05
-9.71425e-08
1.15695e-06
-4.17177e-07
4.18885e-05
-1.18988e-06
-4.31773e-06
0.000150993
-1.55648e-06
-1.79e-06
-8.02922e-07
-2.27142e-07
-7.06822e-06
-4.64505e-06
0.000154328
-2.01953e-06
-1.64754e-06
0.000169398
-1.67686e-06
-1.68542e-06
-1.07532e-06
-5.23152e-07
-2.06651e-07
-5.97499e-07
-2.39006e-05
-2.48299e-07
-2.81141e-07
-2.43844e-09
2.2413e-05
-2.29225e-05
-5.46294e-07
8.91692e-07
3.59235e-07
2.11942e-05
1.02367e-06
-7.26983e-07
-1.3775e-06
0.000156399
-7.60848e-07
-3.42422e-07
2.3448e-07
5.79964e-08
-8.91566e-07
-1.1119e-06
-2.28623e-07
-1.869e-06
-8.77492e-07
0.000155115
-1.97581e-07
2.68515e-08
3.43845e-07
-3.45787e-07
-4.89454e-07
-4.40976e-07
-4.23964e-05
-1.95432e-06
-1.30465e-06
4.21388e-05
-2.22822e-06
-1.81219e-07
7.01897e-07
1.71098e-06
-1.11516e-05
3.17193e-07
-3.68234e-07
9.82657e-06
-3.34763e-05
-6.24664e-07
3.98036e-07
2.03152e-08
3.28052e-05
-2.56502e-06
5.29404e-07
-7.58397e-07
2.79272e-06
-6.81456e-06
-2.64281e-07
-5.09319e-08
7.12936e-06
3.09885e-06
-1.91866e-07
1.80484e-07
-3.09546e-06
-1.98109e-06
-1.82259e-07
-4.4624e-05
7.84267e-07
1.42976e-06
4.45733e-05
-1.80601e-06
-4.38548e-05
-2.13434e-07
4.05486e-07
1.56692e-06
4.39018e-05
-2.61967e-05
-1.59903e-06
1.57414e-06
1.7232e-06
2.49893e-05
-4.90903e-07
-3.63251e-07
-1.86243e-06
-4.32244e-05
8.88599e-07
5.59825e-07
4.40017e-05
6.31792e-07
7.93086e-07
0.000147317
-1.19429e-06
-1.97387e-06
-1.01636e-06
-7.47417e-07
-8.72025e-07
-1.78624e-06
-6.63576e-07
-7.62135e-07
-2.49467e-06
-1.62912e-07
0.000140281
-1.21288e-06
-1.15084e-06
-8.66163e-08
1.09595e-07
-7.58843e-07
5.02586e-07
0.000167257
-1.13527e-06
-1.21806e-06
-2.54458e-08
-1.44144e-06
-1.15513e-06
7.37377e-08
-3.30954e-07
-3.75167e-06
-9.07798e-07
3.81625e-07
3.52106e-06
-4.70314e-06
-2.71215e-07
-3.96898e-07
5.37141e-06
-2.1301e-06
-4.28377e-05
-1.87375e-07
2.04208e-06
-2.47204e-07
4.33603e-05
2.01327e-06
-4.24892e-06
0.000159609
-2.40478e-06
-1.77272e-06
-1.14094e-06
-2.69529e-07
-4.35097e-06
-4.92266e-06
0.000165452
-1.68563e-06
-2.01397e-06
0.000174475
-1.0065e-06
-7.17949e-07
-9.48633e-08
-1.39231e-06
-6.4275e-07
-1.37182e-06
-2.07397e-05
-3.0662e-07
6.95128e-07
4.29867e-07
1.82357e-05
-1.95492e-05
-6.74283e-07
1.18098e-06
7.48569e-07
1.75993e-05
6.94594e-07
7.11483e-07
-1.76775e-06
0.000160031
-1.32841e-06
-8.83548e-07
-1.42987e-07
-9.70762e-07
-1.09624e-06
-1.57867e-06
-8.23673e-07
-1.24986e-06
-8.84923e-07
0.000153101
2.83901e-07
7.34487e-07
7.55928e-07
-7.20892e-07
-6.72868e-07
-4.43791e-07
-4.41949e-05
-6.92749e-07
-1.87491e-06
4.34987e-05
-1.05316e-06
9.88981e-07
3.22423e-07
-2.51605e-07
-8.92602e-06
-9.88228e-08
-1.15769e-07
7.37339e-06
-3.20985e-05
-3.14508e-07
3.9491e-07
-2.05255e-07
3.13384e-05
-2.77551e-06
1.34495e-06
-9.2119e-07
2.35194e-06
-7.4299e-06
-7.01163e-07
-1.78622e-07
8.30969e-06
2.7336e-06
-2.16766e-07
-1.47463e-07
-2.37813e-06
-2.10023e-06
3.3032e-08
-4.49866e-05
4.2787e-07
1.65959e-06
4.49664e-05
-2.43054e-06
-4.42645e-05
-2.00285e-07
6.478e-07
2.25605e-06
4.39914e-05
-2.39729e-05
-2.04726e-06
1.94964e-06
2.46073e-06
2.27377e-05
-1.12791e-06
1.03207e-07
-2.3478e-06
-4.49317e-05
1.42914e-06
3.69824e-07
4.53773e-05
1.44549e-06
1.1854e-06
0.000157834
-1.72113e-06
-2.58037e-06
-1.41118e-06
-1.56043e-06
-1.24014e-06
-2.41272e-06
-9.93231e-07
-1.22849e-06
-5.32977e-07
2.6308e-07
0.000145498
-1.80162e-06
-1.29433e-06
-4.84607e-07
7.8814e-08
1.0499e-06
2.99993e-07
0.000165596
-1.52224e-06
-1.38349e-06
-2.37525e-07
-6.91417e-07
2.08345e-07
2.43171e-06
9.7291e-07
-4.27621e-06
-1.35293e-06
4.28918e-07
6.2489e-06
-6.64768e-06
-6.03218e-07
-4.54874e-07
7.70577e-06
-2.19304e-06
-4.35568e-05
-3.35274e-07
3.08735e-06
-7.74887e-08
4.30753e-05
1.97989e-06
-4.54763e-06
0.000170004
-2.67078e-06
-1.79597e-06
-1.61903e-06
-5.56094e-07
-1.37551e-06
-3.69309e-06
0.000172764
5.89639e-08
-2.10796e-06
0.000173333
9.46498e-07
6.70856e-07
2.32365e-06
-1.09783e-06
-3.85135e-07
-3.41804e-07
-1.69752e-05
-2.1622e-07
-4.91734e-07
-4.58252e-08
1.7788e-05
-1.58696e-05
-9.16416e-07
1.5478e-06
9.79997e-07
1.3951e-05
3.07222e-07
7.67087e-07
-1.24648e-06
0.000162361
-1.58551e-06
-1.0902e-06
-5.00463e-07
-3.93635e-07
-1.45846e-06
-5.15821e-07
-8.54876e-07
-3.26619e-07
-7.78347e-07
0.000148234
7.91689e-07
1.67631e-06
1.19807e-06
-3.82044e-07
-2.08188e-07
-2.88993e-08
-4.5351e-05
7.51365e-07
-1.95123e-06
4.41163e-05
1.09664e-06
1.24669e-06
-1.3412e-06
-9.99607e-07
-5.73099e-06
6.04985e-08
-2.5259e-07
4.67334e-06
-3.09247e-05
-6.92945e-07
1.00801e-06
-1.76034e-07
3.00073e-05
-1.57997e-06
8.90374e-07
-3.89537e-07
1.07809e-06
-8.96017e-06
-6.11813e-07
4.698e-07
9.10218e-06
2.19554e-06
-6.22679e-08
-6.53383e-08
-2.07962e-06
-8.29856e-07
2.81257e-07
-4.45731e-05
9.34299e-08
8.84284e-07
4.4144e-05
-1.26969e-06
-4.33244e-05
-5.84448e-07
1.06518e-06
2.21932e-06
4.18941e-05
-2.1312e-05
-9.2373e-07
1.97998e-06
1.62135e-06
2.04753e-05
-1.84091e-06
3.45331e-07
-1.59853e-06
-4.55844e-05
9.95421e-07
-3.73006e-08
4.58795e-05
3.18124e-06
2.86819e-06
0.000162985
-1.66623e-06
-2.73223e-06
-8.20958e-07
-1.46496e-06
-1.21047e-06
-2.11116e-06
-2.79518e-07
-9.15368e-07
7.55064e-07
6.73738e-07
0.00015176
-2.12225e-06
-1.42918e-06
-7.60904e-07
-1.97335e-07
1.27726e-06
5.82235e-08
0.0001676
-1.47395e-06
-5.46852e-07
-4.66702e-07
-8.77183e-07
2.10552e-07
7.12981e-07
-1.43e-07
-9.35428e-06
-7.46614e-07
1.24756e-06
-2.78207e-06
1.29127e-05
-3.10969e-07
-6.45265e-07
-9.93213e-08
1.05251e-06
-8.14725e-06
-4.79929e-07
-6.07167e-08
8.6879e-06
-1.5262e-06
-4.24976e-05
-6.48944e-07
2.72611e-06
2.6284e-07
4.16838e-05
2.32941e-06
-3.06848e-06
0.000180624
-3.01619e-06
-2.06426e-06
-1.46772e-06
-4.64321e-07
-8.37602e-07
-2.10272e-06
0.000178707
-1.51179e-07
-1.42402e-06
0.000174111
8.82602e-07
-6.95473e-07
2.31741e-07
1.14274e-07
-1.24994e-07
-3.90906e-07
-1.98501e-05
1.01067e-07
6.24217e-07
2.74225e-06
1.62314e-05
1.5925e-07
8.96425e-07
-1.49033e-06
4.19672e-07
-6.50732e-08
-1.27676e-05
-1.03022e-06
8.40293e-07
6.39306e-07
1.23249e-05
-6.72137e-09
8.0283e-07
-5.24027e-07
0.000163162
-1.82552e-06
-6.04803e-07
-3.47974e-07
-2.97472e-07
-7.71716e-07
6.43683e-08
-3.64756e-07
3.53945e-07
-3.65505e-07
0.000143096
8.62626e-07
1.73744e-06
1.04899e-06
-7.3652e-08
-2.32646e-08
2.96983e-07
-4.53329e-05
1.4e-06
-9.81345e-07
4.38442e-05
2.1976e-07
5.24925e-07
-1.49759e-06
7.49926e-07
-4.70892e-06
-3.79699e-07
-4.12285e-07
4.97677e-06
-2.92329e-05
-3.40604e-07
1.07562e-06
-7.41985e-08
2.82065e-05
-1.37137e-06
-2.63936e-08
-8.7055e-07
2.26739e-06
-9.85831e-06
-7.63909e-07
-1.64623e-07
1.07868e-05
1.78018e-06
-1.97945e-07
-1.98553e-07
-1.39349e-06
1.12181e-07
6.10937e-07
-4.45973e-05
-7.82672e-07
-7.65536e-07
4.54224e-05
-4.95771e-07
-4.00106e-05
1.13415e-07
7.26987e-07
1.58205e-06
3.80839e-05
-2.05968e-05
-8.02403e-07
1.48146e-06
8.43181e-07
2.09332e-05
-1.85857e-06
6.23709e-07
-4.96185e-07
-4.68505e-05
-1.80164e-07
-6.67865e-07
4.7571e-05
2.39941e-06
3.59291e-06
0.000163113
-6.43339e-07
-2.49179e-06
-4.65567e-08
-8.32872e-07
-3.90679e-07
-1.66722e-06
4.22751e-07
-4.70983e-07
1.48369e-06
1.41534e-06
0.000155027
-2.04855e-06
-1.36993e-06
-3.42146e-07
-5.62221e-09
5.85228e-07
4.03134e-07
0.000168498
-1.46096e-06
-4.47962e-07
5.80034e-08
4.7059e-08
-1.73273e-07
1.13834e-06
4.36265e-07
-1.46914e-05
-1.86107e-08
2.45348e-06
-4.04329e-07
1.32461e-05
-4.44453e-06
2.94581e-06
-4.83e-07
-6.15983e-07
-2.78069e-06
5.3784e-06
-9.5508e-06
-3.24864e-07
-2.93853e-07
1.01695e-05
-2.17553e-07
-4.02155e-05
-1.80677e-07
1.90973e-06
6.83793e-07
3.80202e-05
2.57151e-06
-3.32402e-07
0.000186739
-2.48998e-06
-1.63091e-06
-6.81536e-07
4.15228e-08
-2.114e-06
-1.7909e-06
0.000186599
-1.35098e-06
-1.25294e-06
0.000175071
-5.10431e-08
-7.76904e-07
3.99142e-07
-6.94804e-08
2.36138e-07
1.95551e-07
-1.53369e-05
2.67181e-07
-2.50875e-07
8.04447e-07
1.31652e-05
6.93044e-07
4.19681e-07
-8.81723e-07
5.18381e-07
2.58703e-06
-3.33641e-06
-1.24546e-05
-6.59761e-07
1.98322e-07
6.34943e-07
1.27251e-05
-4.44046e-07
1.13828e-06
-7.43758e-08
0.000162959
-1.55238e-06
-9.40346e-08
9.30452e-08
3.10524e-07
-3.61552e-07
2.78303e-07
1.32725e-07
1.51823e-07
-2.10894e-07
0.000140165
5.07469e-07
1.28466e-06
4.98853e-07
-8.48527e-08
5.74725e-08
7.41562e-08
-4.4939e-05
8.89569e-07
-9.85314e-07
4.39336e-05
-1.01518e-06
-7.1981e-07
-9.13792e-07
1.00809e-06
1.63708e-06
-3.27896e-06
-1.66417e-07
-4.52935e-07
3.89887e-06
-5.28555e-06
-3.68486e-07
1.34259e-07
5.44536e-06
-2.78432e-05
-1.34657e-07
4.83595e-07
-2.15086e-07
2.74984e-05
-2.6528e-06
4.15247e-07
-2.71075e-07
2.50833e-06
-1.13044e-05
-3.2041e-07
1.17719e-07
1.15071e-05
1.13112e-06
-2.57739e-08
-1.56871e-07
-9.55993e-07
1.04889e-06
2.18366e-07
-4.60098e-05
-4.75742e-07
-8.6735e-07
4.60857e-05
1.43339e-07
-3.6661e-05
5.26746e-07
3.08262e-07
4.34229e-07
3.52485e-05
-2.15226e-05
8.41098e-07
7.05384e-07
-6.99189e-07
2.19603e-05
-1.28508e-06
2.9436e-07
7.84594e-07
-4.86474e-05
-1.49438e-06
-5.65558e-07
4.96284e-05
5.40699e-07
1.8441e-06
0.000162581
-1.2095e-07
-1.5635e-06
2.62594e-08
1.27365e-07
2.79555e-07
-1.20097e-06
4.5157e-07
1.48223e-07
3.27024e-07
2.25595e-06
0.000154531
-1.54231e-06
-9.33243e-07
3.19183e-07
6.09733e-07
1.03304e-06
9.2508e-07
0.000165184
-1.06422e-06
-2.39108e-08
4.68216e-07
2.07326e-07
3.63298e-07
1.0599e-06
6.72272e-07
-1.38743e-05
-2.33565e-07
1.72058e-06
-9.16773e-08
1.3512e-05
-5.31124e-06
1.63837e-07
-1.6538e-06
1.64225e-06
-1.47034e-07
5.30598e-06
-1.05016e-05
1.17758e-08
-3.12618e-07
1.08025e-05
4.28802e-07
-3.63681e-05
6.26824e-08
2.34528e-07
5.1117e-07
3.51309e-05
3.41369e-06
7.76309e-07
0.000185841
-1.63193e-06
-8.85173e-07
2.4274e-07
8.25839e-07
-2.53328e-06
-8.27357e-07
0.000195629
-6.60824e-07
-1.24303e-06
0.000173757
1.63964e-07
2.53503e-08
2.98088e-07
1.69207e-07
3.69788e-07
5.82481e-07
-1.13487e-05
-1.0078e-07
4.91817e-07
8.87579e-07
9.40925e-06
5.24404e-06
-4.22642e-07
-7.72523e-07
6.78374e-07
4.80193e-07
-5.20744e-06
-1.36424e-05
1.48645e-07
-6.20737e-07
8.06353e-08
1.45891e-05
-5.55284e-07
2.38404e-07
2.96618e-07
0.000161547
-7.17424e-07
4.69956e-08
5.6171e-07
2.47197e-07
1.67496e-07
6.32688e-07
7.14971e-07
-2.2729e-07
-1.02456e-09
0.000136743
1.91454e-07
9.48069e-07
5.13195e-07
1.8973e-07
4.72503e-07
7.46408e-07
-4.55184e-05
1.02876e-07
-6.4867e-07
4.45938e-05
-1.61481e-06
-2.33854e-07
-1.83066e-07
5.8147e-07
1.45333e-06
-6.00515e-06
-5.22037e-08
-2.45631e-07
5.47773e-07
5.75521e-06
-5.5426e-06
3.0779e-08
3.67035e-07
5.43798e-06
-2.71517e-05
-2.73139e-08
9.33303e-08
1.78575e-07
2.69061e-05
-2.41755e-06
-2.72132e-08
1.1424e-07
2.32631e-06
-1.17956e-05
-3.8344e-07
-2.05268e-07
1.23843e-05
1.76524e-07
-8.78002e-07
-6.12759e-07
1.30363e-06
4.83835e-07
3.73611e-07
-4.64421e-05
-3.28142e-07
-5.90778e-07
4.65036e-05
1.86565e-07
-3.46188e-05
2.37363e-07
8.27399e-08
1.38871e-07
3.39733e-05
-2.27904e-05
8.00453e-07
-3.70061e-07
-9.31713e-07
2.31154e-05
1.7636e-07
5.06867e-07
8.12041e-07
-5.02618e-05
-1.18825e-06
-2.77379e-07
5.04085e-05
1.0217e-08
1.77258e-06
0.000162949
-3.23833e-07
-1.20283e-06
-1.34694e-07
4.11103e-08
1.18004e-07
-1.06209e-06
1.62616e-07
2.51366e-07
-3.17021e-06
1.42195e-06
0.000157155
-1.17954e-06
-6.84111e-07
3.98496e-07
6.00165e-07
1.9474e-07
3.99168e-07
0.000165415
-2.03992e-07
3.61286e-07
6.67159e-07
8.35367e-08
-3.72016e-07
-2.55933e-06
-1.97236e-06
-1.51132e-05
1.49118e-06
1.25939e-06
-4.36351e-07
1.29937e-05
-7.39113e-06
-1.16763e-07
6.91074e-07
2.77029e-06
4.04653e-06
-1.12373e-05
-1.52398e-07
-4.64847e-07
1.18545e-05
3.6623e-07
-3.51213e-05
-7.32087e-08
8.10585e-09
1.42888e-07
3.46773e-05
5.0378e-07
2.57314e-07
0.000186814
-1.0326e-06
-4.25544e-07
5.40393e-07
9.56714e-07
-5.96069e-06
-1.88589e-07
0.000203704
-7.65829e-07
-7.35408e-07
0.000172373
-4.20639e-07
-2.04313e-06
-2.43545e-06
1.0429e-06
6.12433e-07
5.68356e-07
-7.90468e-06
-3.79698e-07
-1.63553e-07
1.25319e-06
6.42891e-06
2.71834e-06
-2.20205e-07
7.30652e-07
-3.58861e-07
-2.78164e-06
-8.82928e-08
-1.53344e-05
1.19835e-07
-4.74422e-07
1.17748e-07
1.5551e-05
2.02634e-08
-3.63056e-07
2.40324e-07
0.000160491
-4.92501e-07
-1.28648e-07
5.95905e-07
3.78431e-07
2.66976e-07
3.59129e-07
4.56224e-07
-6.07598e-07
3.08532e-07
0.000133963
1.31405e-07
5.22874e-07
7.62735e-08
4.94678e-07
6.63697e-07
6.38697e-07
-4.59567e-05
-4.01907e-07
-4.55789e-08
4.50612e-05
-2.30927e-06
-2.76179e-06
9.85366e-07
4.09108e-06
-5.87204e-06
-4.88568e-07
3.59205e-07
6.24124e-06
-2.71179e-05
3.00409e-07
-6.36371e-07
3.01816e-07
2.74606e-05
-2.66614e-06
-3.7841e-07
1.22607e-08
3.0325e-06
-1.28684e-05
-1.77542e-07
-4.42027e-08
1.30902e-05
-2.16815e-06
2.39074e-07
1.1252e-07
1.81672e-06
1.05489e-06
1.47678e-07
-4.62e-05
-3.28317e-07
-4.44795e-07
4.57705e-05
7.40438e-07
-3.34703e-05
3.27499e-07
-2.08147e-07
-6.18926e-07
3.32295e-05
-2.37497e-05
1.55496e-06
1.45202e-07
-1.66765e-06
2.34383e-05
2.78886e-07
1.28421e-07
1.31838e-06
-4.98717e-05
-7.59146e-07
-1.46668e-08
4.91987e-05
-3.36452e-07
7.49722e-07
0.000162848
-1.91025e-07
-5.81125e-07
-6.59131e-08
3.53738e-07
2.79826e-08
-5.05602e-07
1.97574e-07
4.52192e-07
-6.41275e-06
-3.36693e-07
0.000163438
-9.65047e-07
-6.22644e-07
8.00172e-07
9.17021e-07
-3.74661e-06
-5.38741e-07
0.000170553
-3.60694e-07
1.69475e-07
9.92791e-07
8.76506e-07
-3.52285e-06
-2.50347e-06
-2.91701e-06
-1.20571e-05
1.42921e-07
-1.40601e-06
9.5748e-06
-1.21816e-05
-9.2804e-08
9.38559e-08
1.21805e-05
8.28268e-07
-3.43762e-05
-1.04355e-08
-1.11621e-06
-1.04708e-07
3.47793e-05
-1.08003e-06
-7.75146e-07
0.000188157
-5.98126e-07
-2.8825e-07
9.91261e-07
1.15743e-06
-6.18004e-06
-7.6917e-08
0.000208545
-3.03704e-06
-1.04624e-06
0.00017486
-2.75407e-06
-2.24674e-06
-1.43426e-06
9.39709e-08
7.6462e-07
4.5394e-07
-8.92268e-06
-1.91197e-08
-2.30001e-06
1.29799e-06
6.90679e-06
-1.606e-05
1.01245e-06
-1.31264e-06
-1.6536e-07
1.65394e-05
-1.39002e-08
-8.17681e-07
-9.37467e-08
0.000157545
1.00961e-07
5.43893e-07
1.18265e-06
8.38108e-07
6.40868e-08
1.37657e-07
2.15655e-07
-1.04646e-06
4.99957e-07
0.000131671
-3.59462e-07
3.89049e-07
-1.18966e-07
6.41982e-07
5.85916e-07
8.05378e-07
-4.69398e-05
-1.29446e-06
-9.28591e-09
4.61509e-05
-4.57671e-06
-1.55813e-07
1.45209e-06
3.27998e-06
-6.3809e-06
2.92043e-07
-8.07111e-08
6.07519e-06
-2.80226e-05
3.98349e-07
-3.9812e-07
3.73783e-07
2.81486e-05
-3.70862e-06
-8.97957e-07
8.17774e-08
4.52397e-06
-1.31139e-05
-2.33058e-07
9.25021e-08
1.32545e-05
-1.3647e-06
2.38423e-07
-3.61767e-07
1.48112e-06
5.85218e-07
-2.5874e-07
-4.574e-05
-1.09195e-07
-5.1795e-07
4.60407e-05
4.22544e-07
-3.37301e-05
2.04881e-08
-2.48031e-07
-8.57344e-07
3.43924e-05
-2.28678e-05
1.18564e-06
-3.32963e-07
-1.19613e-06
2.25024e-05
7.08785e-07
-1.30657e-07
4.57244e-07
-4.94098e-05
-6.47897e-07
-1.12388e-08
4.97423e-05
-2.49155e-08
4.89239e-07
0.000163719
-2.22927e-07
-6.86318e-07
6.13886e-08
3.37967e-07
-1.60362e-07
-8.46839e-07
3.70782e-08
1.44515e-07
-5.92668e-06
-8.81741e-07
0.000168948
-4.45273e-07
-2.36394e-07
9.71002e-07
9.84188e-07
-1.76371e-06
-3.61031e-07
0.000170076
-1.43896e-07
3.86235e-07
8.1574e-07
4.28065e-07
-2.39839e-06
-1.00136e-06
-1.41137e-06
-7.88467e-06
2.19527e-07
-1.06756e-06
6.9712e-06
-1.22502e-05
-7.56608e-08
5.17159e-08
1.22741e-05
7.10337e-07
-3.5661e-05
-9.18859e-09
-9.09491e-07
-2.02575e-07
3.60719e-05
-6.6254e-07
-1.45575e-06
0.000189382
-3.04627e-07
-2.97529e-07
9.77633e-07
1.00703e-06
-4.57781e-06
-2.95112e-07
0.000211873
-1.35122e-06
-9.32459e-07
0.000173371
-1.0425e-06
-6.62417e-07
-5.30656e-07
1.43238e-07
7.31055e-07
1.95229e-07
-4.62943e-06
1.33931e-07
-2.5283e-07
1.86761e-07
3.21035e-06
-1.67313e-05
8.40798e-07
-8.00808e-07
-2.53832e-07
1.65943e-05
3.50825e-07
-4.60685e-07
-8.39877e-09
0.000153356
1.96392e-07
5.6095e-07
1.17353e-06
6.77131e-07
-1.09939e-12
2.41842e-07
3.51911e-07
-9.32894e-07
4.04513e-07
0.000128384
5.31614e-08
6.64524e-07
5.13006e-07
5.86501e-07
5.66259e-07
6.75296e-07
-4.80975e-05
-6.41333e-07
-1.08993e-07
4.69825e-05
-2.52355e-06
2.43199e-07
-1.27441e-08
2.28793e-06
-5.84426e-06
5.21211e-07
-3.35564e-07
5.64897e-06
-2.8224e-05
3.85024e-07
-2.56546e-08
3.81808e-07
2.78873e-05
-5.47064e-06
-2.48559e-07
-2.34122e-07
5.95287e-06
-1.35158e-05
-1.75615e-07
-5.98397e-08
1.37513e-05
-2.12411e-06
-3.23431e-07
-9.2687e-07
3.3672e-06
5.82829e-07
4.14714e-07
-4.63134e-05
-2.30405e-07
-8.98121e-07
4.64444e-05
6.98977e-07
-3.54991e-05
-1.26356e-07
5.5223e-09
-1.27776e-06
3.61987e-05
-2.25605e-05
7.98585e-07
8.36143e-08
-9.45042e-07
2.21789e-05
4.44443e-07
4.90601e-07
6.4903e-07
-4.99726e-05
-7.21551e-07
-3.05379e-07
4.98599e-05
1.47129e-06
-6.27718e-08
0.000161499
1.61301e-07
-3.21102e-07
4.20792e-07
5.58328e-07
-1.18578e-08
-7.02591e-07
2.96441e-07
4.09982e-07
-2.86223e-06
-1.24953e-06
0.000173107
-4.37411e-07
-2.5497e-07
1.03798e-06
1.07858e-06
-8.2641e-07
-2.67572e-07
0.000170291
-5.03064e-07
5.97086e-08
5.02197e-07
1.9748e-07
-1.15835e-06
-4.14645e-07
-6.66112e-07
-6.45897e-06
-3.98111e-07
1.21457e-09
6.03054e-06
-1.21663e-05
2.13416e-07
-2.4999e-07
1.22031e-05
1.22543e-06
-3.6736e-05
2.63024e-07
-1.22398e-06
-1.51172e-07
3.66227e-05
5.00937e-07
-1.25223e-06
0.000188724
-5.30782e-07
-2.26972e-07
9.82601e-07
1.1216e-06
-1.61322e-06
-3.61697e-07
0.0002131
-5.5427e-07
-1.02375e-06
0.000173892
-5.01671e-07
-2.55967e-07
-2.03463e-07
-2.74971e-07
6.29005e-07
-2.16699e-07
-2.91872e-06
1.13664e-07
-7.36435e-08
-6.7682e-07
3.00125e-06
-1.69815e-05
6.3117e-07
-1.05415e-06
-3.01322e-07
1.75311e-05
1.74603e-07
9.81446e-07
1.11642e-07
0.000147702
1.08059e-07
3.69548e-07
1.17171e-06
5.63286e-07
2.12252e-07
4.08488e-07
4.75343e-07
-5.57556e-07
4.76757e-07
0.000124716
5.44025e-07
1.07097e-06
9.47625e-07
5.67723e-07
6.28995e-07
6.09249e-07
-4.84744e-05
4.82681e-08
-2.36856e-07
4.70817e-05
-2.19263e-06
4.71049e-07
-3.81822e-07
2.10279e-06
-5.6839e-06
3.87823e-08
4.95559e-08
5.70518e-06
-2.75969e-05
1.59274e-07
2.59576e-07
5.08464e-07
2.71463e-05
-6.25678e-06
6.10252e-07
-7.01688e-07
6.34789e-06
-1.40368e-05
1.33429e-07
-3.53664e-07
1.4257e-05
-4.54396e-06
-1.07601e-07
-4.85837e-07
5.13668e-06
1.22564e-06
8.95783e-07
-4.60915e-05
-5.74291e-07
-8.73327e-07
4.54177e-05
1.64361e-06
-3.66213e-05
2.01072e-07
2.35096e-07
-1.47343e-06
3.60149e-05
-2.21221e-05
1.09797e-07
8.29597e-07
-4.53786e-07
2.21002e-05
-4.63678e-07
8.52635e-07
1.1754e-06
-4.94997e-05
-7.11325e-07
-5.40612e-07
4.87237e-05
3.1812e-07
-1.38424e-06
0.000157928
6.45585e-07
4.63342e-09
1.05129e-06
1.20548e-06
4.19744e-07
-2.28387e-07
7.04712e-07
8.33578e-07
-8.8322e-07
-2.33983e-06
0.000173126
-5.60662e-08
2.08386e-07
1.65108e-06
1.71828e-06
-4.83949e-07
-1.19969e-06
0.000171603
-2.97604e-07
8.18275e-08
7.36693e-07
2.29004e-07
-7.0346e-07
-1.29077e-07
-4.29553e-07
-5.83472e-06
-3.34443e-07
-3.9249e-09
5.69036e-06
-1.23621e-05
5.33739e-07
-5.24666e-07
1.2353e-05
1.83562e-06
-3.61808e-05
5.5687e-07
-1.47661e-06
-9.70394e-08
3.5362e-05
-3.2666e-08
-6.09587e-07
0.000184744
-1.89762e-07
1.39883e-07
1.58527e-06
1.70214e-06
3.91042e-07
8.95455e-07
0.000209441
-3.43102e-07
-1.10179e-06
0.000175136
-2.49654e-07
6.08731e-08
6.2833e-08
-5.50851e-07
5.01851e-07
-4.33304e-07
-3.54221e-06
4.04723e-07
-3.32874e-09
-8.26501e-07
3.62421e-06
-1.82277e-05
5.55009e-07
-1.09556e-06
-5.20803e-08
1.9034e-05
-2.13707e-07
8.09194e-07
4.39402e-07
0.000139606
7.12983e-07
7.94615e-07
1.87394e-06
1.14301e-06
2.83187e-07
7.90719e-07
6.3945e-07
-1.81727e-07
6.41893e-07
0.000120309
9.40858e-07
1.45149e-06
1.18255e-06
6.13839e-07
7.58018e-07
7.05431e-07
-4.85123e-05
4.83857e-07
-3.21239e-07
4.70662e-05
-2.09501e-06
6.06608e-07
-5.90495e-07
2.07318e-06
-5.89146e-06
2.57351e-07
-2.39479e-07
6.31029e-06
-2.68932e-05
3.39349e-07
1.61859e-07
5.36661e-07
2.64972e-05
-6.3299e-06
7.07192e-07
-7.48193e-07
6.36881e-06
-1.4374e-05
3.44743e-07
-2.6999e-07
1.42992e-05
-5.68532e-06
-3.764e-07
-6.4166e-07
6.70136e-06
1.51222e-06
7.85063e-07
-4.4885e-05
-5.12728e-07
-1.02259e-06
4.4123e-05
1.68882e-06
-3.5401e-05
-2.4653e-08
5.92716e-07
-1.61744e-06
3.47615e-05
-2.24906e-05
-1.00056e-07
8.32653e-07
1.36503e-07
2.24065e-05
-7.84956e-07
1.00675e-06
1.56848e-06
-4.8029e-05
-1.05625e-06
-9.0257e-07
4.74126e-05
1.23456e-06
-2.98767e-06
0.000154921
8.88184e-07
4.66898e-07
8.69763e-07
1.30601e-06
4.30255e-07
-3.05133e-07
5.07341e-07
5.96901e-07
1.46364e-06
-3.66112e-06
0.000171096
5.80773e-07
8.03764e-07
1.8416e-06
2.23656e-06
-2.85937e-07
-2.42442e-06
0.000176299
-3.78933e-07
6.34233e-08
4.51013e-07
1.86961e-07
-5.67163e-07
-9.45533e-08
-1.82868e-07
-5.78293e-06
-2.336e-07
-2.0954e-07
5.94197e-06
-1.20989e-05
5.4287e-07
-2.49773e-07
1.18062e-05
2.17406e-06
-3.49444e-05
3.99757e-07
-1.56521e-06
2.49608e-07
3.36862e-05
-2.25579e-07
-1.71483e-07
0.000178345
2.51976e-07
5.52015e-07
1.33045e-06
1.67411e-06
2.80966e-06
2.64475e-06
0.000200099
-3.7916e-08
-1.33941e-06
0.000178134
-4.43006e-08
2.30159e-07
1.36398e-07
-9.89342e-07
2.99661e-07
-8.67591e-07
-3.7747e-06
7.42985e-07
1.13045e-07
-9.01024e-07
3.78178e-06
-2.0065e-05
7.971e-07
-1.39663e-06
2.73367e-07
2.07771e-05
-3.86017e-07
5.86676e-07
6.26593e-07
0.000130832
1.10311e-06
1.0416e-06
2.0218e-06
1.28087e-06
4.331e-07
7.83085e-07
7.25851e-07
3.92651e-09
6.79749e-07
0.000117286
9.87831e-07
1.45813e-06
9.85208e-07
6.13894e-07
8.50758e-07
6.7491e-07
-4.83621e-05
8.1389e-07
-3.46432e-07
4.65591e-05
-2.31084e-06
6.62176e-07
-8.51883e-07
2.49955e-06
-6.95313e-06
5.9695e-07
-3.06214e-07
7.28718e-06
-2.61009e-05
4.8672e-07
1.96611e-09
6.25971e-07
2.5666e-05
-6.48638e-06
6.82658e-07
-6.35933e-07
6.43888e-06
-1.4447e-05
5.18878e-07
-7.10663e-07
1.46388e-05
-8.01048e-06
-5.01031e-07
-9.08822e-07
9.41941e-06
1.41896e-06
1.11305e-06
-4.26696e-05
-5.15886e-07
-5.17191e-07
4.11707e-05
2.60972e-06
-3.3917e-05
4.12306e-07
6.24283e-07
-2.18178e-06
3.24524e-05
-2.18858e-05
2.889e-07
1.15212e-06
-3.85853e-07
2.1991e-05
-1.16038e-06
1.30907e-06
1.72466e-06
-4.62159e-05
-6.46383e-07
-6.34876e-07
4.44634e-05
-8.04644e-08
-5.13631e-06
0.000147364
1.05658e-06
1.38254e-06
2.00442e-06
2.71045e-06
9.27711e-07
8.82651e-07
1.51856e-06
2.29108e-06
4.56447e-06
-7.84989e-06
0.000163679
1.65166e-06
1.8732e-06
3.42075e-06
3.67658e-06
2.36987e-08
-3.1896e-06
0.000182231
-1.73359e-07
3.73901e-08
9.85384e-07
3.34464e-07
7.17237e-09
3.64379e-07
2.43153e-07
-6.24503e-06
-2.2393e-07
-4.60365e-07
6.9552e-06
-1.19303e-05
7.02547e-07
-7.70034e-07
1.19978e-05
2.06367e-06
-3.28449e-05
6.26948e-07
-2.26379e-06
-2.13603e-07
3.26316e-05
-3.93255e-06
1.36378e-06
0.000166359
1.36807e-06
1.53571e-06
3.20707e-06
3.3075e-06
6.70276e-06
6.24948e-06
0.000175365
4.83185e-07
-1.50326e-06
0.000182189
3.43752e-07
6.47007e-07
4.87161e-07
-7.71136e-07
2.46927e-07
-4.75986e-07
-4.00814e-06
8.13809e-07
1.37379e-07
-6.56067e-07
4.1962e-06
-2.12904e-05
1.34029e-06
-1.69334e-06
1.34669e-07
2.18142e-05
-3.05414e-07
-7.76613e-07
1.02584e-06
0.000121739
1.5161e-06
1.3302e-06
2.73825e-06
1.64867e-06
6.08195e-07
1.32168e-06
1.04389e-06
9.40368e-08
1.07291e-06
0.000114875
8.68869e-07
1.65939e-06
1.07229e-06
8.57014e-07
1.27382e-06
9.85153e-07
-4.75193e-05
1.06071e-06
-3.93928e-07
4.54433e-05
-2.60068e-06
4.37297e-07
-4.12973e-07
2.57604e-06
-7.80198e-06
3.13311e-07
-4.55244e-07
8.96807e-06
-2.53727e-05
8.92503e-07
-5.46379e-07
7.17412e-07
2.5382e-05
-6.27191e-06
4.34423e-07
-1.87172e-07
6.0229e-06
-1.47306e-05
6.62501e-07
-6.3386e-07
1.4702e-05
-1.0339e-05
-1.00174e-07
-4.12701e-07
1.08526e-05
1.21831e-06
9.81986e-07
-4.05464e-05
-5.23108e-07
-1.054e-06
3.99232e-05
1.43858e-06
-3.12638e-05
3.70214e-07
3.251e-07
-1.62197e-06
3.07518e-05
-2.30411e-05
3.78611e-07
4.70944e-08
-3.87074e-07
2.35126e-05
-5.10147e-07
1.31781e-06
1.24087e-06
-4.29937e-05
-7.71416e-07
-6.96619e-07
4.1903e-05
-2.95918e-06
-8.577e-06
0.00013524
2.70483e-06
2.57458e-06
3.70451e-06
4.34807e-06
2.18514e-06
1.93242e-06
3.01076e-06
3.19945e-06
5.06483e-06
-8.10333e-06
0.000148432
2.81575e-06
3.06662e-06
4.6777e-06
4.76534e-06
2.4047e-07
-6.26015e-06
0.000186879
5.64804e-07
6.90421e-07
2.34383e-06
1.44557e-06
2.20682e-07
6.28484e-07
5.42893e-07
-8.10822e-06
7.31376e-08
-7.12906e-07
8.9899e-06
-1.1966e-05
7.22717e-07
-6.10546e-07
1.18538e-05
1.64186e-06
-3.24984e-05
4.64594e-07
-1.78736e-06
-5.07919e-07
3.26872e-05
-4.61418e-06
1.14974e-06
0.000147034
2.77783e-06
2.59222e-06
4.52711e-06
4.31544e-06
6.58331e-06
5.58425e-06
0.00015048
5.99793e-07
-1.6707e-06
0.000183729
4.7508e-07
6.94686e-07
5.52622e-07
-9.59617e-07
2.69266e-08
-9.34889e-07
-4.37555e-06
1.12816e-06
7.91098e-08
-6.67698e-07
4.43577e-06
-2.28275e-05
1.12403e-06
-1.87677e-06
-5.21794e-07
2.39692e-05
1.32818e-07
-2.64926e-06
9.43446e-07
0.000110687
2.35157e-06
1.95755e-06
3.92794e-06
2.66091e-06
8.09005e-07
1.1671e-06
1.03425e-06
1.10181e-07