/*--------------------------------*- C++ -*----------------------------------*\
| =========                 |                                                 |
| \\      /  F ield         | OpenFOAM: The Open Source CFD Toolbox           |
|  \\    /   O peration     | Version:  5.x                                   |
|   \\  /    A nd           | Web:      www.OpenFOAM.org                      |
|    \\/     M anipulation  |                                                 |
\*---------------------------------------------------------------------------*/
FoamFile
{
    version     2.0;
    format      ascii;
    class       volScalarField;
    location    "2.7";
    object      Ksl;
}
// * * * * * * * * * * * * * * * * * * * * * * * * * * * * * * * * * * * * * //

dimensions      [1 -3 -1 0 0 0 0];

internalField   nonuniform List<scalar> 
10571
(
11754.3
4079.12
4634.04
9911.68
10908.1
520.295
1401.25
3242.76
375.076
7752.02
8551.76
4139.29
696.943
512.661
4305.5
11120.7
8467.52
6465.91
1684.57
7036.82
11963.4
3888.78
203.48
7298.58
3902.63
5578.65
4679.19
616.183
6110.84
4304.07
3554.95
3633.16
8157.25
9294.49
748.284
1618.13
1542.09
5083.99
4589.37
5982.13
393.997
2774.74
1665.26
6307.11
4205.37
3839.71
287.261
6136.91
3198.36
73.6474
66.9262
281.806
1278.46
984.341
3102.46
4961.82
6125.65
1127.96
155.627
573.416
1105.06
2945.07
2530.4
642.376
613.531
1273.65
3541.95
414.001
1316.64
1459.35
8176.88
1933.73
1207.31
83.7216
29.115
58.9819
1133.68
34.0698
641.307
3944.64
1128.41
217.711
84.8207
242.448
355.074
481.858
661.315
397.966
1220.05
56.6891
69.8857
126.686
1551.1
915.97
114.883
459.161
2380.67
117.156
14.4043
132.299
634.006
27.1247
169.435
143.792
509.997
424.786
70.1959
129.003
40.2323
71.1966
250.036
1316.92
366.712
34.0295
41.5467
126.247
1426.98
723.992
77.55
469.754
1508.86
100.714
63.8105
57.0406
426.842
37.6727
126.352
25.9184
86.6329
4460.31
10052.3
25.4606
88.7981
124.16
86.6218
60.269
5745.01
10268.4
143.333
289.075
42.8666
43.1855
1184.61
1332.75
110.271
389.528
1280.61
65.1763
54.4707
29.7599
316.208
21.9772
108.369
49.7142
72.8781
5620.12
10545
13.762
118.559
425.635
52.9369
28.1739
445.747
8982.21
170.416
610.33
176.759
25.6374
1789.62
8142.5
901.798
288.765
292.487
2560.41
151.701
95.0861
48.3205
395.903
68.6261
106.138
97.9509
35.4525
2419.22
0
50.6407
381.742
611.556
1155.81
19.5011
839.853
0
216.168
251.337
960.213
23.2487
1458.52
0
10.7561
661.828
517.166
3032.23
297.367
94.9041
41.8156
1103.43
59.308
49.7842
43.5992
215.491
4424.89
0
98.305
223.465
21.6267
176.171
1170.6
6506.31
0
338.241
1.60953
92.6692
2207.15
3628.44
5.62032
16.2009
1443.39
5704.75
453.881
43.373
24.6973
2819.91
53.5657
222.718
226.763
284.457
10634.1
627.499
59.3531
14.5292
3.22136
2.09278
2070.46
14.7566
0.584899
0.73098
-6.04903e-13
341.147
0
0
7.42778
625.299
377.578
61.0087
537.7
107.124
92.0556
124.122
180.768
31.263
3953.18
531.007
44.5374
3.85111
0.516932
1.45309
63.6517
4.81687
0
0.585283
-2.15584e-13
55.6948
0
0
0
40.0317
762.688
199.233
0
30.0443
160.204
2.30073
0.784004
0.59328
227.396
79.7251
50.5464
0.129327
0.562022
1.44868
30.611
0
0
0
0
13.3572
0
0
0
7.00309
83.0375
19.6014
0
10.6638
12.9163
1.78772
0
3.61632
32.8178
10.2253
10.1039
2.90427
0
0.110676
18.0598
0
0
0
0
13.1577
0
0
0
0
0
0
0
-2.1042e-12
15.2935
1.33186
0
1.00528
7.09475
11.3834
9.94722
0
0
0
0
0
0
0
4.17117
0
0
0
0
0
0
0
0
3.58707
5.08356
0.630134
0
0.51272
0
0
0
0
0
0
0
0
0
0
0
0
0
0
0
0
0
0
0
0
0
0
0
0.436502
0
0
0
0
0
0
0
0
0
0
0
0
0
0
0
0
0
0
0
0
0
0
0
0
0
0
0
0
0
0
0
0
0
0
0
0
0
0
0
0
0
0
0
0
0
0
0
0
0
0
0
0
0
0
0
0
0
0
0
0
0
0
0
0
0
0
0
0
0
0
0
0
0
0
0
0
0
0
0
0
0
0
0
0
0
0
0
0
0
0
0
0
0
0
0
0
0
0
0
0
0
0
0
0
0
0
0
0
0
0
0
0
0
0
0
0
0
0
0
0
0
0
0
0
0
0
0
0
0
0
0
0
0
0
0
0
0
0
0
0
0
0
0
0
0
0
0
0
0
0
0
0
0
0
0
0
0
0
0
0
0
0
0
0
0
0
0
0
0
0
0
0
0
0
0
0
0
0
0
0
0
0
0
0
0
0
0
0
0
0
0
0
0
0
0
0
0
0
0
0
0
0
0
0
0
0
0
0
0
0
0
0
0
0
0
0
0
0
0
0
0
0
0
0
0
0
0
0
0
0
0
0
0
0
0
0
0
0
0
0
0
0
0
0
0
0
0
0
0
0
0
0
0
0
0
0
0
0
0
0
0
0
0
0
0
0
0
0
0
0
0
0
0
0
0
0
0
0
0
0
0
0
0
0
0
0
0
0
0
0
0
0
0
0
0
0
0
0
0
0
0
0
0
0
0
0
0
0
0
0
0
0
0
0
0
0
0
0
0
0
0
0
0
0
0
0
0
0
0
0
0
0
0
0
0
0
0
0
0
0
0
0
0
0
0
0
0
0
0
0
0
0
0
0
0
0
0
0
0
0
0
0
0
0
0
0
0
0
0
0
0
0
0
0
0
0
0
0
0
0
0
0
0
0
0
0
0
0
0
0
0
0
0
0
0
0
0
0
0
0
0
0
0
0
0
0
0
0
0
0
0
0
0
0
0
0
0
0
0
0
0
0
0
0
0
0
0
0
0
0
0
0
0
0
0
0
0
0
0
0
0
0
0
0
0
0
0
0
0
0
0
0
0
0
0
0
0
0
0
0
0
0
0
0
0
0
0
0
0
0
0
0
0
0
0
0
0
0
0
0
0
0
0
0
0
0
0
0
0
0
0
0
0
0
0
0
0
0
0
0
0
0
0
0
0
0
0
0
0
0
0
0
0
0
0
0
0
0
0
0
0
0
0
0
0
0
0
0
0
0
0
0
0
0
0
0
0
0
0
0
0
0
0
0
0
0
0
0
0
0
0
0
0
0
0
0
0
0
0
0
0
0
0
0
0
0
0
0
0
0
0
0
0
0
0
0
0
0
0
0
0
0
0
0
0
0
0
0
0
0
0
0
0
0
0
0
0
0
0
0
0
0
0
0
0
0
0
0
0
0
0
0
0
0
0
0
0
0
0
0
0
0
0
0
0
0
0
0
0
0
0
0
0
0
0
0
0
0
0
0
0
0
0
0
0
0
0
0
0
0
0
0
0
0
0
0
0
0
0
0
0
0
0
0
0
0
0
0
0
0
0
0
0
0
0
0
0
0
0
0
0
0
0
0
0
0
0
0
0
0
0
0
0
0
0
0
0
0
0
0
0
0
0
0
0
0
0
0
0
0
0
0
0
0
0
0
0
0
0
0
0
0
0
0
0
0
0
0
0
0
0
0
0
0
0
0
0
0
0
0
0
0
0
0
0
0
0
0
0
0
0
0
0
0
0
0
0
0
0
0
0
0
0
0
0
0
0
0
0
0
0
0
0
0
0
0
0
0
0
0
0
0
0
0
0
0
0
0
0
0
0
0
0
0
0
0
0
0
0
0
0
0
0
0
0
0
0
0
0
0
0
0
0
0
0
0
0
0
0
0
0
0
0
0
0
0
0
0
0
0
0
0
0
0
0
0
0
0
0
0
0
0
0
0
0
0
0
0
0
0
0
0
0
0
0
0
0
0
0
0
0
0
0
0
0
0
0
0
0
0
0
0
0
0
0
0
0
0
0
0
0
0
0
0
0
0
0
0
0
0
0
0
0
0
0
0
0
0
0
0
0
0
0
0
0
0
0
0
0
0
0
0
0
0
0
0
0
0
0
0
0
0
0
0
0
0
0
0
0
0
0
0
0
0
0
0
0
0
0
0
0
0
0
0
0
0
0
0
0
0
0
0
0
0
0
0
0
0
0
0
0
0
0
0
0
0
0
0
0
0
0
0
0
0
0
0
0
0
0
0
0
0
0
0
0
0
0
0
0
0
0
0
0
0
0
0
0
0
0
0
0
0
0
0
0
0
0
0
0
0
0
0
0
0
0
0
0
0
0
0
0
0
0
0
0
0
0
0
0
0
0
0
0
0
0
0
0
0
0
0
0
0
0
0
0
0
0
0
0
0
0
0
0
0
0
0
0
0
0
0
0
0
0
0
0
0
0
0
0
0
0
0
0
0
0
0
0
0
0
0
0
0
0
0
0
0
0
0
0
0
0
0
0
0
0
0
0
0
0
0
0
0
0
0
0
0
0
0
0
0
0
0
0
0
0
0
0
0
0
0
0
0
0
0
0
0
0
0
0
0
0
0
0
0
0
0
0
0
0
0
0
0
0
0
0
0
0
0
0
0
0
0
0
0
0
0
0
0
0
0
0
0
0
0
0
0
0
0
0
0
0
0
0
0
0
0
0
0
0
0
0
0
0
0
0
0
0
0
0
0
0
0
0
0
0
0
0
0
0
0
0
0
0
0
0
0
0
0
0
0
0
0
0
0
0
0
0
0
0
0
0
0
0
0
0
0
0
0
0
0
0
0
0
0
0
0
0
0
0
0
0
0
0
0
0
0
0
0
0
0
0
0
0
0
0
0
0
0
0
0
0
0
0
0
0
0
0
0
0
0
0
0
0
0
0
0
0
0
0
0
0
0
0
0
0
0
0
0
0
0
0
0
0
0
0
0
0
0
0
0
0
0
0
0
0
0
0
0
0
0
0
0
0
0
0
0
0
0
0
0
0
0
0
0
0
0
0
0
0
0
0
0
0
0
0
0
0
0
0
0
0
0
0
0
0
0
0
0
0
0
0
0
0
0
0
0
0
0
0
0
0
0
0
0
0
0
0
0
0
0
0
0
0
0
0
0
0
0
0
0
0
0
0
0
0
0
0
0
0
0
0
0
0
0
0
0
0
0
0
0
0
0
0
0
0
0
0
0
0
0
0
0
0
0
0
0
0
0
0
0
0
0
0
0
0
0
0
0
0
0
0
0
0
0
0
0
0
0
0
0
5555.02
9199.51
7551.98
9474.58
10351
9614.06
9454.89
8989.01
2230.34
4746.02
6311.46
829.389
1039.47
3596.09
4505.31
3145.15
1414.76
6319.18
8064.57
2738.02
4082.05
7740.45
8233.14
3919.54
6442.37
5189.79
654.71
2473.97
730.183
28.3699
139.286
73.4955
4.71084
884.087
5285.15
0
390.151
4258.72
1321.81
888.29
1325.08
944.909
1146.37
710.734
1234.24
3185.54
4199.19
7229.64
7405.28
7332.98
9920.42
2997.58
121.832
7839.76
1767.46
18.1975
26.2725
79.5817
565.749
265.872
1649.18
843.889
5112.82
6562.61
5766.15
4789.09
5757.15
7252.29
7001.29
8518.9
9405.72
9498.66
6326.48
9980.35
8489.64
574.635
681.981
3002.32
125.03
1012.69
6409.64
392.037
7166.23
6577.86
8774.18
7691.01
8459.08
9608.73
8890.71
4830.63
822.54
2668.87
437.685
5723.73
1222.27
7551.44
4808.12
7482.96
10698.7
8951.22
8827.47
3256.51
2724.78
677.982
11552.8
11995.5
8885.36
3350.97
7608.03
12465.8
12150.4
4670.09
7169.9
740.319
4090.53
1004.58
12300.8
5189.41
8413.01
5442.51
10649
4324.39
8775.37
10948.9
11608
6286.34
9819.26
9849.76
11412.9
794.463
2914.77
1560.12
2930.47
6494.58
5659.01
7680.94
9098.3
10036.7
10418.8
9648.9
7664.25
10107.3
3353.66
1884.16
2982.74
10220.3
11024.3
11319.1
9173.21
10081.9
11846
3589.82
8205.69
10734
6533.42
692.2
2641.73
4006.29
1334.26
11714.7
6370.32
10837.9
1152.49
7868.57
1867.38
8721.56
10735.1
9627.53
7745.72
939.212
3042.52
4540.14
2705.91
3411.74
1544.79
665.535
461.373
521.601
1065.66
2596.57
713.25
115.196
1919.04
696.92
534.243
2004.11
610.87
513.621
1042.19
1634.55
3627.44
866.287
1071.28
4212.76
2165.85
11120.9
6528.78
4464.06
10068.4
9005.9
221.547
220.911
4165.36
4080.77
10862.5
7213.54
9766.39
2397.57
10411.2
5471.48
9121.46
10752.6
10331.5
9267.11
3861.36
5291.26
7799.11
606.686
1196.45
9798.18
5635.97
7674.59
4215.75
389.248
722.825
1376.04
390.153
358.138
1791.61
3049.26
4640.96
1306.98
29.1823
1309.39
2079.03
2603.46
220.264
1791.67
810.164
464.12
147.887
1965.62
704.39
3093.08
7028.71
4177.03
3852.93
1163.6
4551.89
1044.97
2066.65
3587.65
3209.41
2632.15
1474.27
2605.91
3292.98
4529.4
422.94
543.908
1294.74
5745.93
3739.03
8631.7
209.675
163.083
2381.71
648.819
404.807
2487.1
480.801
432.608
743.716
1272.26
2187.43
640.288
1249.57
2451.22
2391.74
207.469
36.4281
53.5662
141.79
487.998
77.0757
60.1966
15.1512
38.0035
8164.33
2503.45
5014.68
1182.14
5246.73
641.704
1971.13
2196.71
586.014
360.409
22.7039
86.3587
54.3462
30.7307
31.8306
489.449
0
178.413
219.774
24.7456
144.73
1239.21
37.3429
74.1563
451.663
0
745.597
434.058
21.6577
513.187
3381.75
2999.18
123.211
1994.4
566.542
1048.56
97.1914
2651.13
615.123
783.211
564.017
984.509
202.235
680.924
231.54
920.462
1526.61
2658.49
2875.78
4890.45
6058.28
1121.6
826.9
1050.65
4656.59
9822.67
1597.26
506.231
1431.32
506.883
182.146
192.085
1755.15
421.695
450.035
1969.87
454.618
490.921
513.359
919.015
1442.51
412.501
889.891
2369.1
1961.75
55.9874
54.8694
53.5001
44.946
13.2373
74.8308
91.5692
69.8326
52.5958
3908.01
313.197
1367.84
1002.67
3468.62
346.943
1019.46
643.066
585.019
51.0754
93.8149
18.1068
41.5281
43.8184
37.5087
308.642
0
217.218
490.75
0.755655
52.5407
145.537
40.9357
76.3632
112.715
24.5598
497.773
490.742
-3.04465e-14
436.2
1332.15
312.683
98.4115
3358.87
637.599
915.432
246.806
4535.73
745.038
557.354
158.777
876.577
116.181
436.898
223.151
728.434
1315.1
2368.58
3033.91
192.624
785.413
816.27
199.155
675.752
410.118
428.35
103.567
227.533
450.078
452.368
153.573
190.782
2139.26
432.724
504.393
1619.17
353.872
292.8
380.819
674.087
1186.6
308.213
714.506
1829.46
2088.95
53.106
113.879
57.1036
67.8028
23.7939
34.657
72.7685
53.0977
47.9189
2806.12
240.042
1237.14
512.832
2686.64
185.395
1131.94
788.56
1566.16
34.0073
30.9664
30.0148
59.2046
38.5015
58.0704
1333.09
107.74
1520.89
4860.02
644.569
39.1126
82.2263
3.1018
73.0086
95.5227
64.6273
633.681
4041.23
632.137
1030.53
174.395
117.999
605.733
2458.32
1096.1
164.891
756.454
982.03
1193.17
354.694
210.802
702.192
103.63
261.487
120.282
572.39
1235.19
2628.78
3815
190.209
804.94
902.661
184.616
729.224
318.442
534.611
48.4169
241.811
746.313
362.014
175.101
107.601
1395.97
448.363
320.442
1315.74
399.354
295.37
287.627
564.864
1467.63
168.882
620.086
1694.77
1614.62
63.3969
59.9922
72.5646
58.131
42.2576
67.6922
102.531
54.0458
65.8666
2230.38
168.023
855.264
358.587
2070.86
110.542
522.629
2731.34
3479.38
43.6678
0
37.3458
39.1626
0
43.5437
3424.31
7502.14
7132.09
5086.57
7967.68
1778.63
9320.94
13047.9
9932.76
13599.3
10121.9
12165.5
9626.94
10959.1
88.7362
105.714
37.4147
43.6593
141.753
7209.08
2180.97
3465.38
996.396
9139.84
1650.41
8755.63
11946.9
11077.6
12037.3
9959.16
11843.6
11033
12371.9
144.809
332.368
463.892
682.703
807.405
174.553
89.0457
680.212
354.019
181.243
145.094
755.532
43.8709
204.129
125.511
665.908
1376.91
4249.93
4197.27
232.153
986.25
1781.51
340.733
1163.35
288.399
653.41
155.827
253.593
1061.79
287.629
249.675
528.588
1208.16
488.98
233.102
1117.86
418.365
217.237
191.073
595.394
1989.89
228.144
668.782
1883.98
2005.41
30.27
85.8361
71.3455
51.5722
18.0507
85.3561
136.481
73.8868
44.8825
2667.76
114.218
517.884
333.728
2534.43
238.46
602.105
3813.25
4981.06
2551.44
102.165
13340.2
12086.3
1315.85
6292.56
50.7655
92.4396
24.5154
48.2223
25.4182
38.6617
5900.24
702.151
5053.8
2324.78
484.536
824.847
645.003
10288.7
9184.85
9876.46
1915.02
8993.93
1029.04
7279.6
67.0809
77.5359
114.442
59.0498
165.17
3293.5
1190.68
2304.76
615.027
684.682
713.982
363.121
9713.96
8038.34
11374.4
389.762
2597.69
176.894
669.131
283.778
322.64
24.7861
641.094
334.52
124.422
173.137
859.824
447.774
193.277
164.043
643.583
28.2891
139.633
149.987
588.484
789.768
1360.31
69.6881
60757.4
50.8949
183.82
1701.53
701.583
721.542
2647.3
245.264
1181.58
2590.11
427.123
2181.45
1109.77
607.846
3539.73
321.544
447.315
383.518
1019.36
356.602
195.832
1360.19
412.413
227.352
232.642
732.739
2838.25
255.937
1176.67
2819.43
3960.21
69.8383
121.877
163.493
91.976
37.8935
351.379
184.409
107.213
53.916
2982.37
31.7041
737.056
526.493
4197.04
4.84594
1181.3
2466.75
39.7161
3358.54
6.04692
0
31.1498
0
0
75.7314
72.3129
59.5558
61.9
71.3484
65.8884
308.733
1015.34
568.77
3916.18
236.485
1611.67
600.435
78.3625
0
24.5899
0
0
0
0
78.109
176.967
47.8218
87.6065
297.864
584.903
894.805
335.688
1819.48
675.465
1848.52
242.431
0
0
0
0
0
0
0
566.397
824.072
750.078
1446.93
395.559
739.051
300.174
1592.61
125.183
131.533
92.4255
813.265
38.7062
242.704
489.708
1677.69
57.6304
1742.02
3.62052
0
0
0
404.202
184.138
100.131
496.99
16.8162
7.49164
18.8958
884.624
1479.07
86.2217
421.388
188
1881.12
460.077
418.429
2398.9
582.386
278.167
3968.88
567.122
434.92
510.574
1959.42
7215.84
736.863
3013.44
4801.11
9947.55
205.371
308.925
146.064
130.893
70.3206
318.619
135.532
133.527
45.5204
6601.1
4.59607
2547.78
2809.62
9889.96
120.876
4970.8
4378.55
7353.37
105.555
150.979
132.033
171.152
105.547
103.351
331.169
3934.04
972.483
7260.83
387.636
8009.51
1231.18
0
0
0
0
0
0
0
162.09
553.964
268.693
297.425
776.159
933.945
4888.25
315.177
7760.47
1213.76
4453.42
371.111
0
0
0
0
0
0
0
1774.23
1574.69
11.1027
610.089
33.03
102.56
5.74066
237.304
15.3429
1919.77
1109.92
1987.81
157.175
397.81
52.7339
292.33
2970.98
55.349
0
0
8.88251
0
0
0
97.5645
14.6594
-2.1302e-13
7.40141
0
173.113
497.285
801.231
3116.99
853.458
448.798
875.233
776.621
218.095
610.72
2223.52
1258.86
257.215
370.9
8367.74
1944.63
410.49
850.861
158.293
112.374
58.4518
362.145
141.535
143.131
0.740901
18404.8
416.939
7493.92
404.175
7146.09
69.3436
2708.79
10638.3
16314.7
177.876
171.793
134.512
302.706
517.873
154.483
6630.41
2062.72
14694.9
2481.82
7444.35
479.394
588.516
1169.47
323.277
354.143
2004.62
671.861
438.809
6052.62
174.113
356.048
45.8443
0.136804
65.4416
8.1395
10.7514
0
5.79769
0.0642633
12.5996
6.10861
21.5251
7.49009
7.27261
1.43268
0
68.1883
0
0
0
0
0
0
0
4.79931
0
0
0
0
0
919.136
1124.01
798.699
435.448
311.774
195.615
510.533
325.294
324.42
444.451
104.117
92.1253
108.598
601.662
269.142
1889.66
1146.02
98.2354
165.681
95.2133
534.8
172.515
235.207
115.127
1514.69
11.1681
895.114
52.7363
492.156
2.61019
187.942
11246.7
3402.52
648.649
469.581
211.76
653.039
572.86
468.194
489.461
5521.76
603.641
122.071
1376.37
195.85
108.032
237.368
143.685
62.0938
2129.98
102.093
35.5018
444.874
71.9969
28.267
0.376481
0
0
0
0.120798
5.9056
0
0
6.94612
-9.76658e-14
17.8531
0
3.58827
0
0
14.8238
0
0
0
0
0
0
0
0
0
0
0
0
0
862.125
263.931
58.3329
269.128
41.9509
13.5868
35.5768
16.0345
5.85068
22.8357
1.68146
12.8348
22.1851
146.943
73.7268
424.691
188.044
302.534
217.672
117.295
531.895
228.217
127.471
56.0584
246.228
0
50.3955
20.2726
92.6368
0
26.0349
554.581
205.933
284.314
435.321
241.415
114.661
149.967
147.996
62.5114
444.482
87.5659
42.5674
168.441
68.3683
22.8937
34.1555
24.9829
9.23131
123.69
20.3789
19.8942
89.8995
11.7593
0
8.25332
0
0
0
0
0
0
0
0
0
0
0
0
0
0
6.87676
0
0
0
0
0
0
0
0
0
0
0
0
0
28.7747
6.39339
0
6.37837
0.833474
11.9414
0
0
-4.99894e-13
10.6078
7.88761
4.22431
11.2522
51.7909
12.3096
61.9328
12.9873
42.3336
76.4317
26.4598
12.4127
13.2487
19.4126
14.5593
27.7904
2.07055
28.7033
15.9233
6.56425
3.5924
6.90342
62.5351
22.568
38.0496
37.5514
41.8665
4.55591
37.1055
22.6549
10.5786
37.9579
21.1189
11.3808
14.9436
11.9755
0.145329
-1.42521e-13
3.67223
4.77275
34.4966
11.3527
2.81109
16.5819
0
0
0
4.9469
0
0
0
0
0
0
0
0
0
0
0
0
0
0
0
0
0
0
7.21146
0
0
12.5801
0
0
-2.24684e-12
0
0
0
0
0
0
3.88015
0
0
0
0
4.33492
0
0
4.27868
6.57098
0
17.3074
4.93748
0
6.47422
5.89876
4.42261
0
2.86466
0
3.54334
0
8.04449
0
3.4233
9.0512
3.87449
6.5211
3.75338
6.23585
0
2.99141
0.517157
0
2.43392
2.35279
0
5.27917
0
12.2641
3.69654
0
0
3.79603
0
0
3.63108
0
5.99806
3.55719
0
0
0
0
0
0
0
0
0
0.19319
0
0
0
0
0
0
0
0
0
0
0
0
0
0
0
0
0
0
0
0
0
0
0
0
0
0
0
0
0
0
0
0
0
0
0
5.98307
0
0
0
0
0
0
0
0
-9.00322e-13
-7.14711e-13
0.0827014
0
0
0
1.66901
3.07671
0
0
0
3.62124
0
0
0
0
0
2.77334
0
0
0
0
0
0
0
0
0
0
0
0
0
0
0
0
0
0
0
0
0
0
0
0
0
0
0
0
0
0
0
0
0
0
0
0
0
0
0
0
0
0
0
0
0
0
0
0
0
0
0
0
0
0
0
0
0
0
0
0
0
0
0
0
0
0
0
0
0
0
0
0
0
0
0
0
0
0
0
0
0
0
0
0
0
0
0
0
0
0
0
0
0
0
0
0
0
0
0
0
0
0
0
0
0
0
0
0
0
0
0
0
0
0
0
0
0
0
0
0
0
0
0
0
0
0
0
0
0
0
0
0
0
0
0
0
0
0
0
0
0
0
0
0
0
0
0
0
0
0
0
0
0
0
0
0
0
0
0
0
0
0
0
0
0
0
0
0
0
0
0
0
0
0
0
0
0
0
0
0
0
0
0
0
0
0
0
0
0
0
0
0
0
0
0
0
0
0
0
0
0
0
0
0
0
0
0
0
0
0
0
0
0
0
0
0
0
0
0
0
0
0
0
0
0
0
0
0
0
0
0
0
0
0
0
0
0
0
0
0
0
0
0
0
0
0
0
0
0
0
0
0
0
0
0
0
0
0
0
0
0
0
0
0
11.2912
0
0
9.48165
0
0
0
0
0
0
0
0
0
0
0
0
0
0
0
0
0
0
0
0
0
0
0
0
0
0
0
0
0
0
0
0
0
0
0
0
0
0
0
0
0
0
0
0
0
0
0
0
0
0
0
0
0
0
0
0
0
0
0
0
0
0
0
0
0
0
0
0
0
0
0
0
0
0
0
0
0
0
0
0
0
0
0
0
0
0
0
0
0
0
0
0
0
0
0
0
0
0
0
0
0
0
0
0
0
0
0
0
0
0
0
0
0
0
0
0
0
0
0
0
0
0
0
0
0
0
0
0
0
0
0
0
0
0
0
0
0
0
0
0
0
0
0
0
0
0
0
0
0
0
0
0
0
0
0
0
0
0
0
0
0
0
0
0
0
0
0
0
0
0
0
0
0
0
0
0
0
0
0
0
0
0
0
0
0
0
0
0
0
0
0
0
0
0
0
0
0
0
0
0
0
0
0
0
0
0
0
0
0
0
0
0
0
0
0
0
0
0
0
0
0
0
0
0
0
0
0
0
0
0
0
0
0
0
0
0
0
0
0
0
0
0
0
0
0
0
0
0
0
0
0
0
0
0
0
0
0
0
0
0
0
0
0
0
0
0
0
0
0
0
0
0
0
0
0
0
0
0
0
0
0
0
0
0
0
0
0
0
0
0
0
0
0
0
0
0
0
0
0
0
0
0
0
0
0
0
0
0
0
0
0
0
0
0
0
0
0
0
0
0
0
0
0
0
0
0
0
0
0
0
0
0
0
0
0
0
0
0
0
0
0
0
0
0
0
0
0
0
0
0
0
0
0
0
0
0
0
0
0
0
0
0
0
0
0
0
0
0
0
0
0
0
0
0
0
0
0
0
0
0
0
0
0
0
0
0
0
0
0
0
0
0
0
0
0
0
0
0
0
0
0
0
0
0
0
0
0
0
0
0
0
0
0
0
0
0
0
0
0
0
0
0
0
0
0
0
0
0
0
0
0
0
0
0
0
0
0
0
0
0
0
0
0
0
0
0
0
0
0
0
0
0
0
0
0
0
0
0
0
0
0
0
0
0
0
0
0
0
0
0
0
0
0
0
0
0
0
0
0
0
0
0
0
0
0
0
0
0
0
0
0
0
0
0
0
0
0
0
0
0
0
0
0
0
0
0
0
0
0
0
0
0
0
0
0
0
0
0
0
0
0
0
0
0
0
0
0
0
0
0
0
0
0
0
0
0
0
0
0
0
0
0
0
0
0
0
0
0
0
0
0
0
0
0
0
0
0
0
0
0
0
0
0
0
0
0
0
0
0
0
0
0
0
0
0
0
0
0
0
0
0
0
0
0
0
0
0
0
0
0
0
0
0
0
0
0
0
0
0
0
0
0
0
0
0
0
0
0
0
0
0
0
0
0
0
0
0
0
0
0
0
0
0
0
0
0
0
0
0
0
0
0
0
0
0
0
0
0
0
0
0
0
0
0
0
0
0
0
0
0
0
0
0
0
0
0
0
0
0
0
0
0
0
0
0
0
0
0
0
0
0
0
0
0
0
0
0
0
0
0
0
0
0
0
0
0
0
0
0
0
0
0
0
0
0
0
0
0
0
0
0
0
0
0
0
0
0
0
0
0
0
0
0
0
0
0
0
0
0
0
0
0
0
0
0
0
0
0
0
0
0
0
0
0
0
0
0
0
0
0
0
0
0
0
0
0
0
0
0
0
0
0
0
0
0
0
0
0
0
0
0
0
0
0
0
0
0
0
0
0
0
0
0
0
0
0
0
0
0
0
0
0
0
0
0
0
0
0
0
0
0
0
0
0
0
0
0
0
0
0
0
0
0
0
0
0
0
0
0
0
0
0
0
0
0
0
0
0
0
0
0
0
0
0
0
0
0
0
0
0
0
0
0
0
0
0
0
0
0
0
0
0
0
0
0
0
0
0
0
0
0
0
0
0
0
0
0
0
0
0
0
0
0
0
0
0
0
0
0
0
0
0
0
0
0
0
0
0
0
0
0
0
0
0
0
0
0
0
0
0
0
0
0
0
0
0
0
0
0
0
0
0
0
0
0
0
0
0
0
0
0
0
0
0
0
0
0
0
0
0
0
0
0
0
0
0
0
0
0
0
0
0
0
0
0
0
0
0
0
0
0
0
0
0
0
0
0
0
0
0
0
0
0
0
0
0
0
0
0
0
0
0
0
0
0
0
0
0
0
0
0
0
0
0
0
0
0
0
0
0
0
0
0
0
0
0
0
0
0
0
0
0
0
0
0
0
0
0
0
0
0
0
0
0
0
0
0
0
0
0
0
0
0
0
0
0
0
0
0
0
0
0
0
0
0
0
0
0
0
0
0
0
0
0
0
0
0
0
0
0
0
0
0
0
0
0
0
0
0
0
0
0
0
0
0
0
0
0
0
0
0
0
0
0
0
0
0
0
0
0
0
0
0
0
0
0
0
0
0
0
0
0
0
0
0
0
0
0
0
0
0
0
0
0
0
0
0
0
0
0
0
0
0
0
0
0
0
0
0
0
0
0
0
0
0
0
0
0
0
0
0
0
0
0
0
0
0
0
0
0
0
0
0
0
0
0
0
0
0
0
0
0
0
0
0
0
0
0
0
0
0
0
0
0
0
0
0
0
0
0
0
0
0
0
0
0
0
0
0
0
0
0
0
0
0
0
0
0
0
0
0
0
0
0
0
0
0
0
0
0
0
0
0
0
0
0
0
0
0
0
0
0
0
0
0
0
0
0
0
0
0
0
0
0
0
0
0
0
0
0
0
0
0
0
0
0
0
0
0
0
0
0
0
0
0
0
0
0
0
0
0
0
0
0
0
0
0
0
0
0
0
0
0
0
0
0
0
0
0
0
0
0
0
0
0
0
0
0
0
0
0
0
0
0
0
0
0
0
0
0
0
0
0
0
0
0
0
0
0
0
0
0
0
0
0
0
0
0
0
0
0
0
0
0
0
0
0
0
0
0
0
0
0
0
0
0
0
0
0
0
0
0
0
0
0
0
0
0
0
0
0
0
0
0
0
0
0
0
0
0
0
0
0
0
0
0
0
0
0
0
0
0
0
0
0
0
0
0
0
0
0
0
0
0
0
0
0
0
0
0
0
0
0
0
0
0
0
0
0
0
0
0
0
0
0
0
0
0
0
0
0
0
0
0
0
0
0
0
0
0
0
0
0
0
0
0
0
0
0
0
0
0
0
0
0
0
0
0
0
0
0
0
0
0
0
0
0
0
0
0
0
0
0
0
0
0
0
0
0
0
0
0
0
0
0
0
0
0
0
0
0
0
0
0
0
0
0
0
0
0
0
0
0
0
0
0
0
0
0
0
0
0
0
0
0
0
0
0
0
0
0
0
0
0
0
0
0
0
0
0
0
0
0
0
0
0
0
0
0
0
0
0
0
0
0
0
0
0
0
0
0
0
0
0
0
0
0
0
0
0
0
0
0
0
0
0
0
0
0
0
0
0
0
0
0
0
0
0
0
0
0
0
0
0
0
0
0
0
0
0
0
0
0
0
0
0
0
0
0
0
0
0
0
0
0
0
0
0
0
0
0
0
0
0
0
0
0
0
0
0
0
0
0
0
0
0
0
0
0
0
0
0
0
0
0
0
0
0
0
0
0
0
0
0
0
0
0
0
0
0
0
0
0
0
0
0
0
0
0
0
0
0
0
0
0
0
0
0
0
0
0
0
0
0
0
0
0
0
0
0
0
0
0
0
0
0
0
0
0
0
0
0
0
0
0
0
0
0
0
0
0
0
0
0
0
0
0
0
0
0
0
0
0
0
0
0
0
0
0
0
0
0
0
0
0
0
0
0
0
0
0
0
0
0
0
0
0
0
0
0
0
0
0
0
0
0
0
0
0
0
0
0
0
0
0
0
0
0
0
0
0
0
0
0
0
0
0
0
0
0
0
0
0
0
0
0
0
0
0
0
0
0
0
0
0
0
0
0
0
0
0
0
0
0
0
0
0
0
0
0
0
0
0
0
0
0
0
0
0
0
0
0
0
0
0
0
0
0
0
0
0
0
0
0
0
0
0
0
0
0
0
0
0
0
0
0
0
0
0
0
0
0
0
0
0
0
0
0
0
0
0
0
0
0
0
0
0
0
0
0
0
0
0
0
0
0
0
0
0
0
0
0
0
0
0
0
0
0
0
0
0
0
0
0
0
0
0
0
0
0
0
0
0
0
0
0
0
0
0
0
0
0
0
0
0
0
0
0
0
0
0
0
0
0
0
0
0
0
0
0
0
0
0
0
0
0
0
0
0
0
0
0
0
0
0
0
0
0
0
0
0
0
0
0
0
0
0
0
0
0
0
0
0
0
0
0
0
0
0
0
0
0
0
0
0
0
0
0
0
0
0
0
0
0
0
0
0
0
0
0
0
0
0
0
0
0
0
0
0
0
0
0
0
0
0
0
0
0
0
0
0
0
0
0
0
0
0
0
0
0
0
0
0
0
0
0
0
0
0
0
0
0
0
0
0
0
0
0
0
0
0
0
0
0
0
0
0
0
0
0
0
0
0
0
0
0
0
0
0
0
0
0
0
0
0
0
0
0
0
0
0
0
0
0
0
0
0
0
0
0
0
0
0
0
0
0
0
0
0
0
0
0
0
0
0
0
0
0
0
0
0
0
0
0
0
0
0
0
0
0
0
0
0
0
0
0
0
0
0
0
0
0
0
0
0
0
0
0
0
0
0
0
0
0
0
0
0
0
0
0
0
0
0
0
0
0
0
0
0
0
0
0
0
0
0
0
0
0
0
0
0
0
0
0
0
0
0
0
0
0
0
0
0
0
0
0
0
0
0
0
0
0
0
0
0
0
0
0
0
0
0
0
0
0
0
0
0
0
0
0
0
0
0
0
0
0
0
0
0
0
0
0
0
0
0
0
0
0
0
0
0
0
0
0
0
0
0
0
0
0
0
0
0
0
0
0
0
0
0
0
0
0
0
0
0
0
0
0
0
0
0
0
0
0
0
0
0
0
0
0
0
0
0
0
0
0
0
0
0
0
0
0
0
0
0
0
0
0
0
0
0
0
0
0
0
0
0
0
0
0
0
0
0
0
0
0
0
0
0
0
0
0
0
0
0
0
0
0
0
0
0
0
0
0
0
0
0
0
0
0
0
0
0
0
0
0
0
0
0
0
0
0
0
0
0
0
0
0
0
0
0
0
0
0
0
0
0
0
0
0
0
0
0
0
0
0
0
0
0
0
0
0
0
0
0
0
0
0
0
0
0
0
0
0
0
0
0
0
0
0
0
0
0
0
0
0
0
0
0
0
0
0
0
0
0
0
0
0
0
0
0
0
0
0
0
0
0
0
0
0
0
0
0
0
0
0
0
0
0
0
0
0
0
0
0
0
0
0
0
0
0
0
0
0
0
0
0
0
0
0
0
0
0
0
0
0
0
0
0
0
0
0
0
0
0
0
0
0
0
0
0
0
0
0
0
0
0
0
0
0
0
0
0
0
0
0
0
0
0
0
0
0
0
0
0
0
0
0
0
0
0
0
0
0
0
0
0
0
0
0
0
0
0
0
0
0
0
0
0
0
0
0
0
0
0
0
0
0
0
0
0
0
0
0
0
0
0
0
0
0
0
0
0
0
0
0
0
0
0
0
0
0
0
0
0
0
0
0
0
0
0
0
0
0
0
0
0
0
0
0
0
0
0
0
0
0
0
0
0
0
0
0
0
0
0
0
0
0
0
0
0
0
0
0
0
0
0
0
0
0
0
0
0
0
0
0
0
0
0
0
0
0
0
0
0
0
0
0
0
0
0
0
0
0
0
0
0
0
0
0
0
0
0
0
0
0
0
0
0
0
0
0
0
0
0
0
0
0
0
0
0
0
0
0
0
0
0
0
0
0
0
0
0
0
0
0
0
0
0
0
0
0
0
0
0
0
0
0
0
0
0
0
0
0
0
0
0
0
0
0
0
0
0
0
0
0
0
0
0
0
0
0
0
0
0
0
0
0
0
0
0
0
0
0
0
0
0
0
0
0
0
0
0
0
0
0
0
0
0
0
0
0
0
0
0
0
0
0
0
0
0
0
0
0
0
0
0
0
0
0
0
0
0
0
0
0
0
0
0
0
0
0
0
0
0
0
0
0
0
0
0
0
0
0
0
0
0
0
0
0
0
0
0
0
0
0
0
0
0
0
0
0
0
0
0
0
0
0
0
0
0
0
0
0
0
0
0
0
0
0
0
0
0
0
0
0
0
0
0
0
0
0
0
0
0
0
0
0
0
0
0
0
0
0
0
0
0
0
0
0
0
0
0
0
0
0
0
0
0
0
0
0
0
0
0
0
0
0
0
0
0
0
0
0
0
0
0
0
0
0
0
0
0
0
0
0
0
0
0
0
0
0
0
0
0
0
0
0
0
0
0
0
0
0
0
0
0
0
0
0
0
0
0
0
0
0
0
0
0
0
0
0
0
0
0
0
0
0
0
0
0
0
0
0
0
0
0
0
0
0
0
0
0
0
0
0
0
0
0
0
0
0
0
0
0
0
0
0
0
0
0
0
0
0
0
0
0
0
0
0
0
0
0
0
0
0
0
0
0
0
0
0
0
0
0
0
0
0
0
0
0
0
0
0
0
0
0
0
0
0
0
0
0
0
0
0
0
0
0
0
0
0
0
0
0
0
0
0
0
0
0
0
0
0
0
0
0
0
0
0
0
0
0
0
0
0
0
0
0
0
0
0
0
0
0
0
0
0
0
0
0
0
0
0
0
0
0
0
0
0
0
0
0
0
0
0
0
0
0
0
0
0
0
0
0
0
0
0
0
0
0
0
0
0
0
0
0
0
0
0
0
0
0
0
0
0
0
0
0
0
0
0
0
0
0
0
0
0
0
0
0
0
0
0
0
0
0
0
0
0
0
0
0
0
0
0
0
0
0
0
0
0
0
0
0
0
0
0
0
0
0
0
0
0
0
0
0
0
0
0
0
0
0
0
0
0
0
0
0
0
0
0
0
0
0
0
0
0
0
0
0
0
0
0
0
0
0
0
0
0
0
0
0
0
0
0
0
0
0
0
0
0
0
0
0
0
0
0
0
0
0
0
0
0
0
0
0
0
0
0
0
0
0
0
0
0
0
0
0
0
0
0
0
0
0
0
0
0
0
0
0
0
0
0
0
0
0
0
0
0
0
0
0
0
0
0
0
0
0
0
0
0
0
0
0
0
0
0
0
0
0
0
0
0
0
0
0
0
0
0
0
0
0
0
0
0
0
0
0
0
0
0
0
0
0
0
0
0
0
0
0
0
0
0
0
0
0
0
0
0
0
0
0
0
0
0
0
0
0
0
0
0
0
0
0
0
0
0
0
0
0
0
0
0
0
0
0
0
0
0
0
0
0
0
0
0
0
0
0
0
0
0
0
0
0
0
0
0
0
0
0
0
0
0
0
0
0
0
0
0
0
0
0
0
0
0
0
0
0
0
0
0
0
0
0
0
0
0
0
0
0
0
0
0
0
0
0
0
0
0
0
0
0
0
0
0
0
0
0
0
0
0
0
0
0
0
0
0
0
0
0
0
0
0
0
0
0
0
0
0
0
0
0
0
0
0
0
0
0
0
0
0
0
0
0
0
0
0
0
0
0
0
0
0
0
0
0
0
0
0
0
0
0
0
0
0
0
0
0
0
0
0
0
0
0
0
0
0
0
0
0
0
0
0
0
0
0
0
0
0
0
0
0
0
0
0
0
0
0
0
0
0
0
0
0
0
0
0
0
0
0
0
0
0
0
0
0
0
0
0
0
0
0
0
0
0
0
0
0
0
0
0
0
0
0
0
0
0
0
0
0
0
0
0
0
0
0
0
0
0
0
0
0
0
0
0
0
0
0
0
0
0
0
0
0
0
0
0
0
0
0
0
0
0
0
0
0
0
0
0
0
0
0
0
0
0
0
0
0
0
0
0
0
0
0
0
0
0
0
0
0
0
0
0
0
0
0
0
0
0
0
0
0
0
0
0
0
0
0
0
0
0
0
0
0
0
0
0
0
0
0
0
0
0
0
0
0
0
0
0
0
0
0
0
0
0
0
0
0
0
0
0
0
0
0
0
0
0
0
0
0
0
0
0
0
0
0
0
0
0
0
0
0
0
0
0
0
0
0
0
0
0
0
0
0
0
0
0
0
0
0
0
0
0
0
0
0
0
0
0
0
0
0
0
0
0
0
0
0
0
0
0
0
0
0
0
0
0
0
0
0
0
0
0
0
0
0
0
0
0
0
0
0
0
0
0
0
0
0
0
0
0
0
0
0
0
0
0
0
0
0
0
0
0
0
0
0
0
0
0
0
0
0
0
0
0
0
0
0
0
0
0
0
0
0
0
0
0
0
0
0
0
0
0
0
0
0
0
0
0
0
0
0
0
0
0
0
0
0
0
0
0
0
0
0
0
0
0
0
0
0
0
0
0
0
0
0
0
0
0
0
0
0
0
0
0
0
0
0
0
0
0
0
0
0
0
0
0
0
0
0
0
0
0
0
0
0
0
0
0
0
0
0
0
0
0
0
0
0
0
0
0
0
0
0
0
0
0
0
0
0
0
0
0
0
0
0
0
0
0
0
0
0
0
0
0
0
0
0
0
0
0
0
0
0
0
0
0
0
0
0
0
0
0
0
0
0
0
0
0
0
0
0
0
0
0
0
0
0
0
0
0
0
0
0
0
0
0
0
0
0
0
0
0
0
0
0
0
0
0
0
0
0
0
0
0
0
0
0
0
0
0
0
0
0
0
0
0
0
0
0
0
0
0
0
0
0
0
0
0
0
0
0
0
0
0
0
0
0
0
0
0
0
0
0
0
0
0
0
0
0
0
0
0
0
0
0
0
0
0
0
0
0
0
0
0
0
0
0
0
0
0
0
0
0
0
0
0
0
0
0
0
0
0
0
0
0
0
0
0
0
0
0
0
0
0
0
0
0
0
0
0
0
0
0
0
0
0
0
0
0
0
0
0
0
0
0
0
0
0
0
0
0
0
0
0
0
0
0
0
0
0
0
0
0
0
0
0
0
0
0
0
0
0
0
0
0
0
0
0
0
0
0
0
0
0
0
0
0
0
0
0
0
0
0
0
0
0
0
0
0
0
0
0
0
0
0
0
0
0
0
0
0
0
0
0
0
0
0
0
0
0
0
0
0
0
0
0
0
0
0
0
0
0
0
0
0
0
0
0
0
0
0
0
0
0
0
0
0
0
0
0
0
0
0
0
0
0
0
0
0
0
0
0
0
0
0
0
0
0
0
0
0
0
0
0
0
0
0
0
0
0
0
0
0
0
0
0
0
0
0
0
0
0
0
0
0
0
0
0
0
0
0
0
0
0
0
0
0
0
0
0
0
0
0
0
0
0
0
0
0
0
0
0
0
0
0
0
0
0
0
0
0
0
0
0
0
0
0
0
0
0
0
0
0
0
0
0
0
0
0
0
0
0
0
0
0
0
0
0
0
0
0
0
0
0
0
0
0
0
0
0
0
0
0
0
0
0
0
0
0
0
0
0
0
0
0
0
0
0
0
0
0
0
0
0
0
0
0
0
0
0
0
0
0
0
0
0
0
0
0
0
0
0
0
0
0
0
0
0
0
0
0
0
0
0
0
0
0
0
0
0
0
0
0
0
0
0
0
0
0
0
0
0
0
0
0
0
0
0
0
0
0
0
0
0
0
0
0
0
0
0
0
0
0
0
0
0
0
0
0
0
0
0
0
0
0
0
0
0
0
0
0
0
0
0
0
0
0
0
0
0
0
0
0
0
0
0
0
0
0
0
0
0
0
0
0
0
0
0
0
0
0
0
0
0
0
0
0
0
0
0
0
0
0
0
0
0
0
0
0
0
0
0
0
0
0
0
0
0
0
0
0
0
0
0
0
0
0
0
0
0
0
0
0
0
0
0
0
0
0
0
0
0
0
0
0
0
0
0
0
0
0
0
0
0
0
0
0
0
0
0
0
0
0
0
0
0
0
0
0
0
0
0
0
0
0
0
0
0
0
0
0
0
0
0
0
0
0
0
0
0
0
0
0
0
0
0
0
0
0
0
0
0
0
0
0
0
0
0
0
0
0
0
0
0
0
0
0
0
0
0
0
0
0
0
0
0
0
0
0
0
0
0
0
0
0
0
0
0
0
0
0
0
0
0
0
0
0
0
0
0
0
0
0
0
0
0
0
0
0
0
0
0
0
0
0
0
0
0
0
0
0
0
0
0
0
0
0
0
0
0
0
0
0
0
0
0
0
0
0
0
0
0
0
0
0
0
0
0
0
0
0
0
0
0
0
0
0
0
0
0
0
0
0
0
0
0
0
0
0
0
0
0
0
0
0
0
0
0
0
0
0
0
0
0
0
0
0
0
0
0
0
0
0
0
0
0
0
0
0
0
0
0
0
0
0
0
0
0
0
0
0
0
0
0
0
0
0
0
0
0
0
0
0
0
0
0
0
0
0
0
0
0
0
0
0
0
0
0
0
0
0
0
0
0
0
0
0
0
0
0
0
0
0
0
0
0
0
0
0
0
0
0
0
0
0
0
0
0
0
0
0
0
0
0
0
0
0
0
0
0
0
0
0
0
0
0
0
0
0
0
0
0
0
0
0
0
0
0
0
0
0
0
0
0
0
0
0
0
0
0
0
0
0
0
0
0
0
0
0
0
0
0
0
0
0
0
0
0
0
0
0
0
0
0
0
0
0
0
0
0
0
0
0
0
0
0
0
0
0
0
0
0
0
0
0
0
0
0
0
0
0
0
0
0
0
0
0
0
0
0
0
0
0
0
0
0
0
0
0
0
0
0
0
0
0
0
0
0
0
0
0
0
0
0
0
0
0
0
0
0
0
0
0
0
0
0
0
0
0
0
0
0
0
0
0
0
0
0
0
0
0
0
0
0
0
0
0
0
0
0
0
0
0
0
0
0
0
0
0
0
0
0
0
0
0
0
0
0
0
0
0
0
0
0
0
0
0
0
0
0
0
0
0
0
0
0
0
0
0
0
0
0
0
0
0
0
0
0
0
0
0
0
0
0
0
0
0
0
0
0
9067.83
1289.36
4075.83
4091.23
1792.12
558.318
2231.47
11613
5500.55
3928.67
850.754
3726.56
3565.8
1948.12
1056.15
414.733
83.7937
1232.46
2880.39
1870.43
400.895
3924.73
173.172
350.86
2982
2945.43
419.897
1312.67
259.919
924.192
1261.82
2166.55
471.127
3662.89
2860.22
3327.42
648.186
1684.22
3740.11
8735.85
2919.06
5570.88
1317.06
8424.17
5692.29
3918.03
4349.86
749.885
4130.3
524.319
3392.65
4227.09
1842.38
1420.43
4121.81
5104.36
1408.32
2726.89
1877.67
2789.7
5347.37
3668.78
1251.78
5947.46
6154.26
9491.35
6054.19
6215.19
4537.25
5198.57
5445.02
3538.29
1149.27
5733.95
5088.5
4849.46
1935.26
3856.71
510.181
4087.98
2715.87
944.897
915.156
661.77
1393.57
1549.55
682.579
512.371
1682.98
5158.84
804.946
633.303
2692.29
4125.61
500.549
384.718
2637.27
1571.09
4064.46
4188.56
2020.15
7308.05
5884.19
1908.71
3632.09
4264.42
93.8539
234.386
729.625
1247.75
75.9224
98.7646
224.568
1516.82
3876.44
33.5311
37.6576
49.6643
518.25
249.813
2482.87
967.165
108.198
174.8
722.789
695.188
3636.58
397.236
1490.69
39.7596
43.5844
97.7184
274.591
367.268
301.482
194.317
443.369
277.355
782.143
138.849
29.2148
14.6794
18.0898
52.7788
23.9672
21.5778
30.2505
126.643
95.4732
420.587
162.87
267.378
746.865
569.573
21.2769
92.1674
186.538
50.2054
32.1562
70.0097
301.001
320.319
769.896
165.952
155.833
362.507
539.675
362.939
0.188128
13.7253
41.6914
43.7892
10.7892
22.6912
18.2099
228.866
370.99
241.124
27.9132
173.308
33.6037
72.3623
51.3574
123.957
361.721
69.3733
126.616
122.336
241.881
180.46
126.653
456.719
114.166
187.884
71.5123
358.401
48.1009
40.5235
52.1001
59.3306
22.457
41.6888
26.2047
99.3533
20.4075
61.1352
48.7909
167.396
20.3591
70.5153
128.81
120.671
255.246
58.8277
116.124
74.7137
253.197
202.931
84.1462
199.994
130.961
138.976
82.851
77.041
33.9477
37.2972
13.7023
77.158
44.619
22.1699
25.3361
52.8539
15.3883
107.888
88.1344
101.297
13.1727
135.933
30.5921
126.287
149.944
76.8485
61.3996
49.6053
156.019
152.42
116.164
48.6004
185.867
208.921
140.414
207.771
38.8742
35.7093
19.3034
53.8255
53.5983
9.71384
18.2105
58.815
16.8203
144.28
71.2125
30.1115
87.3559
86.0849
24.4044
48.2846
30.1354
62.9641
29.8614
87.8449
45.7139
483.552
238.328
971.369
297.043
236.555
657.488
271.637
45.5724
52.8427
36.98
57.4991
57.0686
20.02
21.349
30.3792
47.4519
8.53525
73.9021
88.5709
45.9254
18.2994
42.5846
63.5612
26.6989
5.26111
30.9423
65.2909
18.3546
59.4629
433.22
9.75688
118.059
21.0146
100.394
0
29.0956
42.9253
22.144
55.1056
133.478
78.897
627.399
87.5784
20.0383
0.111666
113.182
119.544
588.141
299.046
15.5575
77.5537
30.0406
27.5789
55.9147
46.4589
43.398
23.349
55.374
4.94844
24.1585
24.6126
17.6922
9.25222
564.957
250.567
365.469
271.598
137.661
191.961
17.1586
694.474
567.538
497.832
62.0326
34.7056
28.7274
32.8231
289.276
138.15
255.408
386.441
341.492
637.43
348.868
103.866
26.6839
4.56208
154.475
40.3349
20.8852
5.66961
36.815
58.5057
0
56.8216
6.8931
40.7422
0
0
1.93167
3.57252
0
0
0
0
52.9004
129.839
34.6519
46.5768
31.5753
24.3454
0
3.84615
12.5694
5.45799
22.0661
12.6795
3.33747
0.175175
0
0
2.11286
0.235482
6.74895
6.38569
4.02888
0
0
0
0
0.198361
0
0
6.08452
24.8618
5.47286
5.41538
11.9867
10.243
5.76496
16.7943
1.75914
0
5.45097
0
7.94293
0
0
8.17997
0
0
0
0
0
-2.73445e-13
0
0
0
0
0
0
0
0
0
-5.87083e-13
0
3.34338
0
0
0
5.39424
0
0
0
0
0
0.152082
0
0
0
6.30845
0
0
0
0
0
0
0
0
0
6.38272
0
0
0
0
0
0
0
0
0
0
0
0
0
0
0
0
0
0
0
0
0
0
0
0
0
0
0
0
0
0
0
0
0
0
0
0
0
0
0
0
0
0
0
0
0
0
0
0
0
0
0
0
0
0
0
0
0
0
0
0
0
0
0
0
0
0
0
0
0
0
0
0
0
0
0
0
0
0