/*--------------------------------*- C++ -*----------------------------------*\
| =========                 |                                                 |
| \\      /  F ield         | OpenFOAM: The Open Source CFD Toolbox           |
|  \\    /   O peration     | Version:  5.x                                   |
|   \\  /    A nd           | Web:      www.OpenFOAM.org                      |
|    \\/     M anipulation  |                                                 |
\*---------------------------------------------------------------------------*/
FoamFile
{
    version     2.0;
    format      ascii;
    class       volScalarField;
    location    "2.45";
    object      p;
}
// * * * * * * * * * * * * * * * * * * * * * * * * * * * * * * * * * * * * * //

dimensions      [0 2 -2 0 0 0 0];

internalField   nonuniform List<scalar> 
10571
(
47.8109
106.318
146.505
52.5422
45.0654
67.5278
85.8861
52.0698
47.1346
47.1509
56.6183
67.0663
80.0898
63.7561
56.156
49.0294
134.224
181.658
128.405
92.3463
61.1995
207.974
204.954
159.355
46.0549
61.3714
57.4148
45.8607
45.8806
60.7563
57.3244
50.2881
45.8747
47.655
59.9344
61.0281
62.339
68.0897
50.4294
47.3541
61.2181
66.1984
83.3951
74.5306
51.2207
117.082
126.519
96.4627
42.0194
9.29805
16.1419
40.4977
42.4775
21.5937
28.2756
36.8912
40.1966
42.8751
44.8651
26.567
12.0144
29.4333
38.3258
40.7848
8.00117
7.71578
18.8629
41.2039
40.5417
12.6093
42.0083
44.3584
24.3274
8.34637
7.33403
34.3885
39.3664
7.95435
7.27129
21.1032
34.9969
40.1327
7.77694
7.74559
6.57133
7.51255
26.0577
36.1783
7.7212
7.08479
7.28198
16.2544
29.2554
7.67864
7.30492
7.94684
8.57596
7.87577
7.04836
10.5711
36.7569
7.776
7.17476
7.27754
19.5572
37.8279
7.75937
7.67443
7.75637
7.09397
7.94495
30.2508
7.39352
7.36461
7.26391
7.24619
7.9756
7.40955
7.35712
7.3369
6.45441
7.76131
7.03082
6.86058
20.1715
7.61127
7.29804
7.03214
6.7864
8.03675
7.25528
7.62068
7.57802
7.41504
7.33788
7.15188
5.12968
6.99012
7.38157
7.29658
7.26129
7.23378
7.13128
7.33532
7.30537
7.31742
7.10105
7.55191
7.15881
7.21929
7.07426
7.53638
7.25069
7.2707
7.10921
7.10085
7.14586
7.53903
7.53393
7.37242
7.23293
7.53102
7.11984
7.07311
7.37299
7.24324
7.21441
7.25954
7.18422
7.10764
7.32351
7.2768
7.29453
7.0834
7.28286
7.25087
7.1236
7.22028
7.35608
7.15554
7.08039
7.29722
6.9685
7.06364
7.3975
7.41981
7.30611
7.09361
7.31301
6.94952
7.08299
7.28145
7.14716
7.13117
7.23229
7.30297
7.13254
7.29093
7.21435
7.253
7.00524
7.11376
7.11444
7.01266
7.13541
7.16338
7.00502
6.90091
7.14432
7.10747
7.0851
7.22436
7.21589
7.18724
6.97039
7.15114
7.05163
7.10961
7.11454
7.06788
7.01616
7.15253
7.13791
7.22091
7.12564
7.17132
6.93731
7.05696
7.02717
6.939
7.07894
7.0672
6.89102
6.81329
7.05733
7.11591
7.11415
7.07757
7.08347
6.94447
7.13948
7.06433
6.99147
6.9778
6.9516
7.05869
6.97132
7.11126
7.06547
7.10169
6.94317
7.03956
6.96725
6.90312
7.06842
7.04967
6.86071
6.85674
7.07288
7.18647
7.09516
7.03386
7.04387
7.0306
7.14185
7.16307
6.98527
6.9696
7.01284
7.05587
7.162
7.03637
7.07386
7.10305
6.88837
7.02719
6.92789
6.89517
7.08966
7.07151
6.88743
6.98073
7.0412
7.16071
7.12887
7.06153
7.05629
7.12417
7.13765
7.24919
7.03729
7.06518
7.10616
7.16106
7.31182
7.08001
7.12148
7.15835
6.96435
7.07478
6.96829
6.98187
7.14664
7.1368
6.95004
7.08487
7.03492
6.97756
7.18267
7.12323
7.08821
7.18185
7.12893
7.16894
7.104
7.14908
7.16626
7.18946
7.27628
7.15988
7.17043
7.19295
7.09623
7.18552
7.08456
7.10296
7.17858
7.22997
7.05381
7.16127
7.13284
6.98876
7.23099
7.18297
7.12537
7.18497
7.12594
7.12134
7.15724
7.18387
7.18753
7.15887
7.15396
7.22054
7.19722
7.20728
7.21676
7.2837
7.20512
7.20881
7.20984
7.30339
7.17393
7.23951
7.23778
7.11882
7.26334
7.22031
7.16058
7.17691
7.14246
7.14603
7.19314
7.1933
7.20818
7.16676
7.16006
7.25099
7.21703
7.21368
7.31756
7.32953
7.2985
7.28204
7.30788
7.3321
7.26976
7.29044
7.27917
7.18603
7.28475
7.24473
7.1855
7.19098
7.17258
7.18444
7.22679
7.19431
7.2193
7.19396
7.18663
7.27102
7.23238
7.22369
7.3088
7.34937
7.33491
7.32619
7.33141
7.34142
7.30909
7.30369
7.2517
7.22506
7.30207
7.26356
7.20405
7.22842
7.19822
7.21291
7.26006
7.19928
7.23354
7.19666
7.20623
7.28911
7.25523
7.23405
7.44994
7.36037
7.35383
7.3515
7.31838
7.34749
7.31841
7.30756
7.22973
7.22839
7.32037
7.28193
7.2271
7.27726
7.24366
7.23593
7.29562
7.2305
7.26674
7.2
7.23346
7.314
7.28647
7.25476
7.46096
7.36493
7.34638
7.35406
7.29761
7.35364
7.32002
7.32815
7.25896
7.22381
7.33898
7.303
7.25128
7.29977
7.30518
7.27654
7.3217
7.28097
7.2974
7.2547
7.28887
7.34072
7.31676
7.29501
7.37445
7.37423
7.33922
7.34621
7.30116
7.36091
7.31933
7.33372
7.31524
7.29721
7.35872
7.32421
7.27356
7.31549
7.34267
7.3392
7.34416
7.32524
7.32217
7.31276
7.34044
7.3674
7.344
7.33935
7.35863
7.3823
7.35149
7.34469
7.34047
7.36896
7.33399
7.35619
7.38566
7.3699
7.37914
7.34483
7.30577
7.33772
7.38927
7.37904
7.36691
7.36205
7.34819
7.35951
7.3738
7.39304
7.37106
7.37414
7.3619
7.38693
7.36611
7.35112
7.37803
7.37695
7.358
7.38161
7.44902
7.40572
7.39809
7.36511
7.34308
7.35814
7.42832
7.3912
7.39032
7.39258
7.3694
7.39904
7.38321
7.41317
7.40012
7.41781
7.36937
7.39195
7.3774
7.36394
7.39495
7.38333
7.38051
7.3861
7.45542
7.41784
7.41267
7.38363
7.37555
7.37093
7.42096
7.39704
7.41175
7.40366
7.38368
7.39994
7.39119
7.41876
7.42676
7.43096
7.37985
7.39576
7.38384
7.37634
7.39915
7.38837
7.38641
7.38404
7.43731
7.41397
7.42321
7.3961
7.37775
7.38621
7.39882
7.39438
7.42396
7.40315
7.39123
7.39348
7.39013
7.41999
7.42433
7.40622
7.38916
7.3978
7.38475
7.38489
7.39853
7.38983
7.38284
7.38768
7.41542
7.40658
7.42616
7.40066
7.37763
7.38506
7.38489
7.3928
7.42225
7.39959
7.39165
7.38311
7.38677
7.41345
7.41293
7.39478
7.39207
7.39702
7.38498
7.39094
7.39579
7.38868
7.38436
7.39025
7.40482
7.40166
7.42027
7.39987
7.37783
7.38454
7.38384
7.39631
7.41285
7.39449
7.39534
7.38742
7.39167
7.40265
7.39946
7.39435
7.39169
7.39469
7.38669
7.39199
7.39109
7.38735
7.38319
7.38923
7.39923
7.4001
7.41106
7.39645
7.37511
7.38727
7.38773
7.40212
7.40283
7.39361
7.39272
7.39063
7.39496
7.39671
7.40589
7.39934
7.39103
7.39427
7.38904
7.39004
7.38444
7.38577
7.38255
7.38452
7.39379
7.39872
7.40286
7.39228
7.37657
7.38585
7.38778
7.40471
7.39446
7.39262
7.3876
7.38213
7.39239
7.39345
7.40648
7.39235
7.38973
7.39401
7.38955
7.38696
7.37935
7.38489
7.38423
7.37942
7.3854
7.3923
7.39498
7.38721
7.37703
7.37888
7.38118
7.39775
7.38771
7.38772
7.37837
7.37455
7.38697
7.38837
7.39489
7.37692
7.38798
7.39428
7.38811
7.38401
7.37729
7.38882
7.38349
7.37707
7.37669
7.38362
7.3869
7.38208
7.36987
7.37151
7.3763
7.39008
7.38333
7.38195
7.37196
7.37368
7.38268
7.38398
7.38659
7.37207
7.38603
7.39403
7.38731
7.38225
7.37681
7.39344
7.38455
7.37643
7.37007
7.37624
7.3809
7.37778
7.3656
7.36604
7.37247
7.38337
7.38168
7.38015
7.36838
7.37159
7.37996
7.38155
7.38148
7.37271
7.38442
7.39193
7.38483
7.38104
7.37684
7.39131
7.38301
7.37635
7.36658
7.37069
7.37901
7.37532
7.38001
7.36646
7.36765
7.37515
7.38068
7.37793
7.36485
7.36928
7.37643
7.37933
7.37399
7.37105
7.38326
7.38635
7.38297
7.38019
7.3768
7.38494
7.37767
7.37489
7.36443
7.36877
7.38331
7.37721
7.38739
7.37092
7.36415
7.36977
7.37898
7.36998
7.36019
7.36893
7.3726
7.37561
7.36347
7.36465
7.38216
7.38466
7.3829
7.37934
7.37624
7.38395
7.37536
7.37295
7.36196
7.36737
7.38735
7.38485
7.37366
7.37089
7.36165
7.36615
7.38073
7.35701
7.3505
7.36636
7.3685
7.36788
7.35006
7.3486
7.38029
7.38476
7.38413
7.37756
7.37482
7.38585
7.37139
7.37093
7.36028
7.36577
7.39813
7.39496
7.36871
7.37064
7.35884
7.36405
7.3849
7.34853
7.33739
7.36354
7.36675
7.35832
7.33993
7.34174
7.37794
7.38356
7.38015
7.37571
7.37295
7.38455
7.3671
7.36747
7.3604
7.3647
7.39206
7.39318
7.36236
7.36846
7.35618
7.36351
7.38558
7.33803
7.32878
7.36316
7.36924
7.3507
7.33373
7.34352
7.37485
7.38062
7.37392
7.37168
7.36996
7.38532
7.36237
7.36331
7.3602
7.36435
7.37806
7.37734
7.35042
7.36709
7.3594
7.36449
7.37122
7.32554
7.33015
7.36885
7.37475
7.34512
7.33603
7.35322
7.37086
7.3773
7.36942
7.3672
7.36668
7.37436
7.3563
7.36068
7.36091
7.36414
7.36608
7.36069
7.33574
7.36718
7.36368
7.36526
7.34842
7.32242
7.33405
7.37578
7.37988
7.34165
7.35192
7.37696
7.36752
7.3767
7.36904
7.36343
7.36395
7.36652
7.35314
7.36169
7.35971
7.36234
7.35861
7.34722
7.33421
7.36615
7.36389
7.36317
7.33044
7.33521
7.3609
7.37975
7.38058
7.34589
7.39141
7.42736
7.36592
7.37861
7.37051
7.36144
7.36181
7.3667
7.35584
7.35861
7.35404
7.35752
7.35631
7.34333
7.34603
7.36571
7.36158
7.35894
7.33121
7.35301
7.3821
7.37446
7.37498
7.36573
7.41989
7.40789
7.36065
7.37703
7.37171
7.35747
7.35675
7.37166
7.35867
7.3512
7.35104
7.35104
7.36437
7.35264
7.35693
7.36047
7.35719
7.35665
7.34182
7.37841
7.37737
7.36952
7.36541
7.37783
7.41255
7.38863
7.34245
7.36934
7.36313
7.33907
7.34995
7.36879
7.35736
7.34476
7.3489
7.3455
7.37462
7.36464
7.35946
7.35296
7.35531
7.35471
7.34927
7.39121
7.36754
7.36295
7.36055
7.37496
7.38262
7.37025
7.31168
7.34652
7.33316
7.29818
7.3334
7.35675
7.33987
7.32945
7.33708
7.34263
7.36412
7.35875
7.34658
7.33579
7.3485
7.3492
7.3408
7.3775
7.35165
7.35107
7.35125
7.36142
7.35892
7.35018
7.28842
7.31816
7.28672
7.25675
7.31634
7.33394
7.30861
7.31246
7.32551
7.33494
7.34552
7.33943
7.31065
7.30847
7.32771
7.33655
7.32101
7.34035
7.31557
7.33135
7.33533
7.35041
7.33112
7.31786
7.31492
7.28861
7.24638
7.28099
7.31572
7.30421
7.2832
7.30102
7.31887
7.32905
7.31631
7.30665
7.26101
7.27907
7.3105
7.32354
7.29312
7.2881
7.26801
7.30019
7.31726
7.31658
7.29199
7.28144
7.32425
7.26827
7.25084
7.30424
7.31884
7.27867
7.27001
7.2926
7.31561
7.32719
7.28383
7.26138
7.2182
7.25936
7.3003
7.31603
7.26196
7.22975
7.21763
7.26462
7.29897
7.27473
7.25249
7.25159
7.32133
7.26616
7.26679
7.30211
7.31792
7.26661
7.26549
7.29044
7.31876
7.33063
7.26576
7.242
7.20455
7.2601
7.30127
7.31892
7.24606
7.19115
7.18443
7.24304
7.29373
7.24631
7.2306
7.2411
7.34159
7.26921
7.34365
7.3286
7.31611
7.26092
7.27356
7.30035
7.32501
7.33772
7.26606
7.25691
7.21158
7.27553
7.31044
7.3289
7.25589
7.18736
7.19686
7.25166
7.30868
7.25093
7.23827
7.25143
7.34881
7.28183
7.36775
7.33359
7.31284
7.27182
7.27269
7.31368
7.33264
7.34669
7.27784
7.26664
7.22909
7.29367
7.32535
7.34074
7.27806
7.27401
7.23851
7.28564
7.33712
7.28555
7.25521
7.2792
7.35404
7.29227
7.3256
7.33011
7.3076
7.29225
7.26767
7.32381
7.34019
7.35425
7.29864
7.27394
7.27658
7.31623
7.33893
7.3498
7.32277
7.36796
7.28409
7.32105
7.36261
7.33355
7.28731
7.32847
7.3641
7.28852
7.27846
7.32825
7.30184
7.30998
7.29323
7.32611
7.34298
7.35839
7.32542
7.30735
7.31863
7.33092
7.34587
7.35102
7.38758
7.42206
7.31895
7.34564
7.36314
7.42629
7.33423
7.36675
7.3742
7.30205
7.29241
7.32411
7.2946
7.32585
7.31964
7.31966
7.34013
7.35824
7.34651
7.32813
7.33115
7.33029
7.34097
7.3464
7.38833
7.39916
7.32975
7.3436
7.3497
7.42701
7.34468
7.35225
7.37743
7.3514
7.32848
7.31385
7.2852
7.35802
7.32633
7.30808
7.33345
7.35464
7.34658
7.3295
7.32965
7.3242
7.33202
7.34021
7.28913
7.36139
7.32406
7.33471
7.33952
7.38179
7.31922
7.33038
7.3702
7.38356
7.33629
7.29475
7.27513
7.35469
7.32691
7.2979
7.32621
7.34935
7.35229
7.33357
7.33944
7.31912
7.32589
7.33444
7.27548
7.34904
7.31992
7.33051
7.33332
7.35893
7.3236
7.32974
7.35587
7.37531
7.33199
7.27042
7.2707
7.32846
7.32472
7.29172
7.32029
7.34214
7.38141
7.3721
7.34939
7.31783
7.32177
7.32835
7.33712
7.3544
7.32406
7.32932
7.32959
7.35883
7.33723
7.33399
7.34096
7.36276
7.32319
7.24974
7.27197
7.32972
7.32359
7.28981
7.31246
7.33151
7.45095
7.40243
7.35051
7.31802
7.31541
7.32069
7.40946
7.36301
7.33162
7.32756
7.32625
7.36787
7.34824
7.33854
7.32492
7.37316
7.31
7.24142
7.27171
7.37392
7.32022
7.29015
7.30033
7.31565
7.41112
7.39887
7.34871
7.32147
7.30647
7.30963
7.41884
7.36957
7.34232
7.3266
7.32191
7.37936
7.36057
7.34514
7.31055
7.36575
7.29371
7.23614
7.2618
7.38101
7.31524
7.29273
7.27671
7.28747
7.39634
7.38584
7.34937
7.32515
7.29395
7.28964
7.40893
7.37806
7.35534
7.32645
7.31454
7.3921
7.38491
7.35363
7.29055
7.34806
7.28097
7.2366
7.25032
7.36487
7.31113
7.2919
7.23276
7.23611
7.37459
7.36944
7.35178
7.32595
7.27326
7.24892
7.40566
7.39188
7.36605
7.32656
7.29531
7.40899
7.40789
7.36841
7.27862
7.32966
7.27582
7.25674
7.24067
7.34362
7.30772
7.26893
7.16414
7.14436
7.35606
7.34694
7.34836
7.31137
7.24619
7.15292
7.40135
7.41136
7.37278
7.32882
7.25444
7.43004
7.42196
7.38699
7.28013
7.32298
7.28929
7.2739
7.21439
7.32076
7.28916
7.22001
7.06836
6.94759
7.33664
7.32191
7.34237
7.2797
7.19751
6.92587
7.40344
7.43461
7.387
7.33056
7.18469
7.45751
7.43923
7.4269
7.28718
7.32122
7.30115
7.27042
7.18317
7.29988
7.26767
7.16833
6.93876
6.49128
7.31875
7.31313
7.31254
7.23644
7.10398
6.44513
7.3956
7.44673
7.39153
7.31729
7.03385
7.48532
7.45057
7.42907
7.30501
7.32896
7.31279
7.27044
7.1631
7.29561
7.22901
7.11829
6.79976
5.38927
7.27734
7.25634
7.24909
7.17296
6.9901
5.67532
-5.16274
7.26402
7.3948
7.35998
7.26731
6.6397
7.49074
7.4497
7.41969
7.35437
7.36033
7.33399
7.30055
7.18705
7.33924
7.20138
7.11131
6.74792
4.85137
-0.0644354
7.28086
7.20228
7.14426
7.13713
6.90902
5.53527
0.483978
7.17363
7.3148
7.3134
7.19945
6.0712
7.46462
7.42743
7.41072
7.44676
7.41403
7.38246
7.37476
7.29408
7.44217
7.23707
7.14967
6.92368
5.66397
1.3735
7.46201
7.32164
7.19533
7.1401
6.90114
5.44834
1.46742
7.29512
7.33556
7.33045
7.20874
6.29507
1.9262
7.46516
7.41056
7.42148
7.58271
7.37744
7.45219
7.48312
7.44846
7.49776
7.29518
7.26394
7.20024
6.10948
1.6279
7.63789
7.51026
7.26695
7.16879
7.01558
5.75729
1.2592
7.449
7.36758
7.36867
7.27197
6.50268
7.49891
7.43612
7.444
7.6217
7.2135
7.51652
7.54643
7.53647
7.29331
7.28571
7.39263
7.3878
6.72292
7.59679
7.46873
7.25563
7.24841
7.18898
6.5282
-2.10438
7.50767
7.40862
7.42466
7.38133
7.33237
7.54752
7.49126
7.51153
7.59598
7.49369
7.61445
7.56506
7.53094
7.32666
7.41102
7.48764
7.46656
7.30865
7.57675
7.46611
7.35375
7.37427
7.31119
7.10716
7.52248
7.41552
7.39827
7.34164
7.36947
7.53601
7.48244
7.49036
7.58365
7.59584
7.61577
7.52929
7.51142
7.43513
7.46486
7.46974
7.45788
7.42993
7.55698
7.44683
7.37077
7.38338
7.32753
7.32504
7.48008
7.359
7.34657
7.30249
7.37116
7.46765
7.42729
7.43279
7.57822
7.57857
7.54779
7.51936
7.513
7.44837
7.4099
7.44784
7.44271
7.46934
7.5126
7.40343
7.36489
7.37668
7.3677
7.40622
7.39929
7.34511
7.34813
7.35186
7.40341
7.42355
7.39959
7.4115
7.56837
7.54479
7.5121
7.5067
7.51742
7.41285
7.38719
7.44121
7.45188
7.49162
7.46211
7.36312
7.35858
7.39231
7.39305
7.43993
7.32674
7.36902
7.38591
7.39156
7.4372
7.43058
7.41736
7.42999
7.56165
7.51171
7.48873
7.5027
7.52453
7.37446
7.39043
7.45818
7.47264
7.51672
7.4222
7.35627
7.37979
7.42722
7.43548
7.47717
7.32192
7.41518
7.43986
7.43545
7.48025
7.46505
7.46064
7.46986
7.55595
7.47169
7.48286
7.50737
7.53531
7.34419
7.42059
7.46625
7.49404
7.53772
7.39974
7.37233
7.42761
7.46534
7.48087
7.51606
7.39534
7.46451
7.48128
7.48982
7.52144
7.50875
7.51039
7.52293
7.55543
7.48131
7.47798
7.51199
7.54054
7.37626
7.43528
7.47855
7.50239
7.54231
7.41394
7.40842
7.43366
7.46134
7.49097
7.53654
7.45329
7.47872
7.49206
7.52235
7.5487
7.55224
7.54855
7.56097
7.56678
7.50997
7.49482
7.51649
7.55071
7.41547
7.45249
7.4867
7.51082
7.54468
7.44068
7.4304
7.45287
7.47378
7.49989
7.53902
7.47645
7.49343
7.4991
7.52729
7.54915
7.59179
7.56822
7.57925
203.249
159.574
219.574
188.923
107.728
106.87
66.6017
58.1205
112.905
169.578
204.308
150.51
179.176
220.555
194.265
198.657
173.843
115.78
61.007
92.0257
56.2003
53.0228
54.4255
53.7499
52.8888
52.8728
87.1174
65.8178
72.7382
126.661
151.099
121.816
142.759
172.417
138.503
155.445
128.302
73.998
61.3817
78.8086
67.1324
55.728
52.5017
68.0382
58.383
54.2311
52.5438
53.0442
74.5384
95.9231
130.833
136.666
155.831
167.526
193.635
172.645
146.312
207.208
195.291
96.7951
78.6921
144.815
108.86
76.1763
58.9461
94.6406
68.7293
53.3394
55.8348
64.8834
160.421
203.691
228.78
218.473
246.577
234.642
223.157
247.844
236.024
199.441
145.591
231.287
214.12
117.011
102.184
183.994
141.761
97.0756
239.511
238.849
229.616
220.878
231.432
227.267
222.378
203.175
146.83
89.7251
73.4379
142.462
96.698
49.4418
81.2244
54.0072
50.3522
44.7401
45.7066
45.9499
47.3402
45.1211
47.4908
64.5364
60.7756
136.213
77.252
94.1564
68.1448
79.5011
61.721
64.5807
45.3333
46.2581
45.9033
47.6974
48.0707
48.124
48.3462
46.1578
48.8763
60.0205
57.2323
59.0723
60.2038
60.8826
60.9138
48.2792
47.3511
49.8016
50.2817
50.4977
60.7087
62.6631
60.1665
60.1951
58.1906
49.4408
51.6978
49.8449
51.4013
50.6163
90.1028
62.2362
167.18
169.214
194.44
74.1974
100.397
112.646
136.979
72.9774
120.016
91.2673
85.7691
69.871
103.429
81.2483
57.4407
202.312
153.207
210.04
206.778
170.784
182.242
186.389
189.82
203.486
172.107
152.12
179.805
125.789
60.7877
38.1938
45.8842
55.3711
46.167
42.396
38.2483
40.8568
46.1031
45.6572
44.6744
44.5451
43.0122
45.8969
44.1004
61.763
53.9749
61.5612
61.8859
61.5247
44.8449
42.1191
51.0263
52.2824
46.0672
45.4588
46.0964
44.1258
44.4007
43.063
43.8123
46.6133
44.3162
60.6374
60.2059
60.5645
56.6007
57.7317
57.0806
47.9153
47.9769
45.1064
45.583
45.2683
60.3653
60.4337
58.5313
57.8836
56.6216
48.37
47.4275
44.0952
44.5659
44.6402
60.1974
50.85
69.2276
74.1565
89.5236
44.078
45.024
41.2645
48.0642
61.5634
83.2735
69.9599
57.2847
50.8991
62.7427
55.693
46.5465
101.818
53.9708
129.332
137.946
63.3741
73.8289
81.0505
112.772
133.977
81.8534
77.5488
84.2367
69.3908
9.26012
7.77361
35.0163
12.6908
31.1386
16.8344
7.73665
14.5213
41.2138
40.7584
35.0452
36.3406
39.0865
42.2872
40.4071
15.3177
6.52393
9.2602
11.8422
15.6022
7.17769
7.46219
6.65748
6.87343
42.8532
41.3076
42.2309
40.8828
41.5534
39.9899
41.2661
42.7003
41.7715
26.8347
40.6324
30.7074
6.76646
7.22062
6.74407
43.5751
43.0049
41.1515
41.0589
40.822
35.2002
25.4887
7.17756
6.28177
5.58901
41.2485
40.598
38.4202
38.7882
37.6043
11.4763
5.96985
7.94942
8.19298
8.49672
6.43302
6.44719
6.66002
6.63762
40.9666
42.0517
40.3915
27.4026
31.2431
24.4467
26.3554
35.0371
9.72622
6.65341
22.5939
28.0428
6.62477
7.16927
7.31108
46.1028
41.0717
10.9341
20.1945
8.67915
22.9519
8.35624
8.32059
8.64827
7.91257
7.8833
6.45223
8.19425
6.03772
31.0193
38.1375
13.0174
23.9926
37.1926
38.6706
37.3261
8.3465
7.85166
8.40724
8.37645
8.06131
7.76954
7.96428
7.83804
7.91741
40.414
38.8892
40.558
38.0242
38.9876
38.0124
39.6695
41.1443
40.4009
7.9863
7.84841
7.82194
7.99541
8.0984
8.06523
38.7669
38.7229
39.502
37.5577
37.0654
7.69439
7.89689
8.02909
8.02263
7.87487
36.7292
34.1467
35.3123
36.4383
31.1348
7.88395
7.19138
7.65113
7.69691
7.75111
6.97675
6.97483
7.10162
7.18654
22.0206
9.85974
13.0119
8.14952
9.80899
7.2914
7.37035
20.5018
7.74976
7.20434
7.35287
7.3257
7.2185
7.35765
7.36997
7.64609
7.2258
7.3515
7.2933
7.39297
7.35199
8.59131
8.35963
6.37598
8.41635
6.05287
6.63838
7.95387
6.39893
16.5557
35.6586
6.64475
7.50194
29.167
36.0375
35.2891
7.76551
7.732
7.81806
7.76096
7.69284
7.86369
7.77112
7.73753
7.69487
36.9395
37.2645
38.3455
37.0539
32.3473
36.5479
35.3556
38.9437
32.7197
7.77632
7.80091
7.77249
7.71845
7.70444
7.71882
35.319
35.4386
29.9428
23.0237
17.344
7.71209
7.64637
7.69152
7.67993
7.61843
32.6794
15.1558
10.1433
10.9737
6.30264
7.41328
7.45171
7.36678
7.44038
7.42709
7.35082
7.27089
7.36125
7.33754
7.10746
7.28639
7.19348
7.20684
7.09592
7.32167
7.28312
6.87018
7.4382
7.36029
7.36584
7.39381
7.32226
7.34021
7.38839
7.37957
7.39797
7.32386
7.34918
7.36008
7.33888
7.95441
7.77756
6.93515
7.4671
6.81231
7.07231
7.29509
7.01841
5.89651
8.32564
6.9244
6.73223
5.09484
17.0583
5.89378
7.65264
7.58422
7.73755
7.64814
7.63442
7.65928
7.71448
7.56472
7.51966
13.27
17.7006
16.6833
5.83241
6.33261
5.41879
6.29363
10.5669
6.57342
7.66303
7.6444
7.66194
7.5904
7.58868
7.5839
7.32262
6.65726
9.7128
6.64546
7.16344
6.37892
6.99299
7.177
7.27674
7.20568
6.97254
7.15873
7.00347
7.18948
7.66489
7.60754
7.59243
7.60513
7.55516
7.87124
6.95458
6.98007
6.67353
7.04411
7.27512
7.01664
7.14432
7.04501
7.14115
7.02605
7.16051
7.1322
7.14284
7.48259
7.4783
7.29868
7.40385
7.34583
7.38764
7.34513
7.41171
7.35974
7.1969
7.2931
7.25912
7.25582
7.21756
7.27349
7.23438
7.1071
7.38648
7.42836
7.34352
7.38492
7.32748
7.34978
7.39521
7.33141
7.33545
7.29351
7.32883
7.32914
7.30624
7.71842
7.57393
7.09861
7.30131
7.06456
7.14143
7.34481
7.1382
7.01109
7.02803
7.11334
7.00741
7.19495
7.13498
7.48757
7.51488
7.4328
7.66677
7.49638
7.41251
7.4114
7.51464
7.39385
7.36238
7.06367
7.06048
6.9781
7.45616
7.22849
7.38474
7.13206
7.14845
7.26453
7.04719
7.23092
7.1267
7.16814
7.09365
7.13719
7.5281
7.53418
7.52436
7.46783
7.48633
7.48819
7.26426
7.14912
7.58508
6.93851
7.16124
7.03126
7.39788
7.18486
7.14267
7.20382
7.07002
7.14693
7.07926
7.17568
7.53325
7.49557
7.47663
7.47179
7.41884
7.28212
7.26437
7.11181
7.01138
7.18525
7.1663
7.11992
7.17067
7.11974
7.15299
7.08298
7.15716
7.11027
7.15321
7.43272
7.37344
7.35044
7.40104
7.35112
7.34648
7.33249
7.3759
7.33103
7.23727
7.26713
7.24447
7.2492
7.24343
7.26004
7.2511
7.08216
7.25711
7.22454
7.13877
7.10166
7.14632
7.41602
7.38598
7.34391
7.38647
7.31439
7.3236
7.37421
7.31903
7.31096
7.25164
7.29919
7.29401
7.28083
7.39458
7.24255
7.13419
7.30609
7.15862
7.0697
7.22078
7.11635
7.01138
7.09374
7.04041
7.02586
7.08799
7.22175
7.10203
7.31158
7.20298
7.35318
7.24822
7.29446
7.18303
7.22289
7.13339
7.18291
7.19345
7.16784
7.123
7.13565
7.20628
7.07066
7.16217
7.10611
7.2304
7.13535
7.23691
7.0848
7.12709
7.08199
7.13619
7.38538
7.41663
7.421
7.29066
7.32964
7.32829
7.18152
6.98005
7.24508
7.01874
7.18453
6.99746
7.20604
7.13476
7.07074
7.16396
7.06377
7.15297
7.06633
7.15714
7.38705
7.32904
7.30533
7.29277
7.23817
7.16482
7.13603
7.14574
6.98794
7.17968
7.09077
7.1975
7.15835
7.11037
7.16967
7.09112
7.16316
7.13281
7.18778
7.29532
7.21175
7.27724
7.30231
7.27779
7.20257
7.20739
7.22344
7.21624
7.22246
7.23064
7.22975
7.20377
7.17288
7.19507
7.1874
7.3381
7.23333
7.39339
7.17115
7.15794
7.18777
7.32644
7.26586
7.28521
7.33024
7.25576
7.23639
7.28655
7.26377
7.25188
7.17391
7.2219
7.20852
7.21493
7.13818
7.07425
7.01346
7.14559
7.07866
6.99449
7.07873
7.06029
7.02261
7.09311
6.96836
6.97948
7.05338
7.10841
7.09422
7.13275
7.09445
7.11481
7.07113
7.0904
7.07274
7.05292
7.05084
7.03176
7.20025
7.06302
7.16837
7.11443
7.15185
7.0551
7.12905
7.13832
7.09011
7.2098
7.25168
7.24883
7.14971
7.18727
7.18283
7.29068
7.07125
7.22545
7.11807
7.29295
7.10925
7.19998
7.16905
7.09626
7.18127
7.10457
7.16673
7.12215
7.17791
7.21316
7.16603
7.15732
7.14646
7.10515
7.21335
7.10739
7.33407
7.06017
7.21462
7.07424
7.29862
7.17924
7.149
7.19916
7.11599
7.16849
7.14779
7.18315
7.13921
7.07425
7.13775
7.14777
7.13985
7.04045
7.04992
7.06994
7.06636
7.09359
7.15256
7.12771
7.10202
7.01852
7.11328
7.06973
6.98631
7.19558
7.11296
7.176
7.22325
7.16824
7.1116
7.16346
7.17333
7.155
7.08867
7.13018
7.10804
7.13025
7.05721
7.04281
6.96301
7.04503
7.04057
7.09137
7.03314
7.01978
6.91114
7.02113
6.92212
6.91301
7.00601
7.06162
7.03067
7.07906
7.07425
7.03851
7.04697
7.00519
7.04911
7.02752
7.04925
6.98536
7.09685
7.03726
7.0927
7.05992
7.07241
7.02967
7.08589
7.07749
7.1015
7.1143
7.14542
7.1419
7.09832
7.12465
7.12268
7.11019
7.19602
7.14407
7.10057
7.0568
7.10578
7.06316
7.09466
7.08845
7.04759
7.18741
7.06981
7.06479
7.06313
7.13179
7.03447
7.02186
7.00986
7.02602
7.02945
6.97628
6.98238
7.00503
7.01022
6.98487
7.08321
7.02473
7.03225
7.00792
7.07779
7.02893
7.05471
7.06594
7.04383
7.0464
7.0924
7.06729
7.00151
7.03267
7.09431
7.07652
7.0587
7.08023
7.06269
7.09074
7.02369
7.00456
7.1159
7.02156
7.01894
7.02156
6.99305
6.97085
6.94417
6.9975
6.92337
6.94498
7.0073
7.04666
7.05795
7.07198
7.07239
7.01553
7.0475
6.97693
7.02881
7.00365
7.03658
6.96786
7.07717
7.02585
7.08822
7.08387
7.08944
7.02681
7.08267
7.13479
7.13828
7.09615
7.12113
7.11929
7.10102
7.12999
7.12684
7.16767
7.14635
7.21025
7.2146
7.186
7.09047
7.05075
7.1079
7.10653
7.07514
7.14949
7.2098
7.26029
7.20872
7.24804
7.03791
7.06371
6.98358
7.01277
7.00608
7.00221
6.99939
7.03247
7.0135
7.06832
7.09744
7.07575
7.11002
7.13626
7.13604
7.12879
7.25675
7.0355
7.04619
6.98789
7.00892
7.05199
7.01706
7.03645
7.08676
7.07782
7.09179
7.10267
7.08607
7.12874
6.99094
6.98871
6.94395
6.96879
6.91876
6.9241
6.96212
6.90142
6.91439
7.01979
6.9062
6.92178
7.02754
7.05992
7.08405
7.08318
7.10461
6.99501
7.0371
6.96543
7.04029
6.99943
7.05116
6.97466
7.09164
7.03298
7.08085
7.11252
7.10108
7.0464
7.07511
7.11681
7.07303
7.11746
7.14779
7.14352
7.14287
7.17238
7.16925
7.1772
7.16861
7.05862
7.11928
7.12569
7.12826
7.10648
7.15477
7.15736
7.14074
7.21565
7.21918
7.19841
7.18479
7.2744
7.10422
7.14201
7.02599
7.06514
7.0412
7.06924
7.05898
7.09732
7.08051
7.19294
7.17473
7.15716
7.19916
7.2244
7.20472
7.1739
7.34414
7.0803
7.12061
7.06747
7.09003
7.12027
7.1205
7.13742
7.12529
7.11426
7.14886
7.15068
7.14323
7.18366
7.01135
7.05346
6.9232
6.97382
6.90658
6.95157
7.00924
6.94401
6.97363
7.055
7.02924
7.03361
7.10108
7.13054
7.16346
7.1381
7.18185
7.02897
7.08434
7.00604
7.12766
7.07587
7.13448
7.06027
7.14305
7.07708
7.08733
7.17448
7.1928
7.11992
7.13308
7.03237
7.03537
7.17434
7.20122
7.19737
7.21074
7.22965
7.22807
7.05278
7.07565
6.95403
7.04312
7.04117
7.18487
7.17661
7.20666
7.21221
7.20322
7.16134
7.27092
7.12756
7.13304
7.19727
7.17659
7.20345
7.09885
7.13251
7.11759
7.13236
7.1264
7.16178
7.14622
7.19288
7.21483
7.18354
7.16829
7.16871
7.2123
7.18588
7.18616
7.16005
7.19194
7.16179
7.17504
7.1938
7.19111
7.19934
7.17597
7.17206
7.18528
7.19364
7.19229
7.20063
7.10872
7.16545
7.01589
7.06523
7.01297
7.08595
7.1291
7.08256
7.09519
7.13104
7.15764
7.15992
7.1948
7.16531
7.18431
7.22726
7.26686
7.13395
7.19405
7.12742
7.23844
7.19224
7.2484
7.19642
7.23875
7.17337
7.23872
7.17601
7.24418
7.19291
7.29289
7.12135
7.2307
7.24547
7.25565
7.25399
7.27528
7.27583
7.27632
7.071
7.08878
7.06435
7.12503
7.13643
7.23595
7.22714
7.24785
7.25441
7.24334
7.12572
7.14655
7.128
7.13335
7.13092
7.22216
7.23656
7.15088
7.18409
7.1678
7.17561
7.16915
7.20103
7.1852
7.1602
7.20912
7.19095
7.15583
7.15571
7.20968
7.19871
7.15256
7.21518
7.23105
7.20995
7.2154
7.23678
7.22255
7.22758
7.2065
7.20643
7.20826
7.21837
7.21858
7.21109
7.22442
7.28108
7.14642
7.19366
7.13537
7.19768
7.25734
7.18926
7.21612
7.26756
7.27253
7.26966
7.32366
7.23081
7.27703
7.29665
7.31617
7.24689
7.29044
7.25901
7.31281
7.29154
7.31498
7.30563
7.2304
7.21715
7.27275
7.25542
7.24284
7.26333
7.26117
7.24555
7.24835
7.29996
7.29398
7.29445
7.31729
7.30534
7.30646
7.16628
7.17948
7.15784
7.19159
7.20786
7.26998
7.25721
7.27519
7.28195
7.26825
7.15407
7.14381
7.1638
7.17418
7.16197
7.24995
7.26232
7.18293
7.21688
7.19935
7.20995
7.19724
7.23189
7.21503
7.15222
7.21389
7.20067
7.1832
7.15424
7.21385
7.19641
7.17154
7.24408
7.25568
7.23598
7.23967
7.26113
7.24578
7.24978
7.22873
7.23075
7.22456
7.23776
7.24094
7.2182
7.3227
7.34845
7.24793
7.31039
7.24535
7.30545
7.35964
7.29959
7.34051
7.38799
7.33604
7.38741
7.42104
7.34965
7.39883
7.32963
7.33883
7.32074
7.32994
7.32915
7.34081
7.33871
7.33927
7.34091
7.27177
7.29698
7.27336
7.33641
7.29853
7.31284
7.29578
7.26602
7.28299
7.32987
7.31449
7.3158
7.33812
7.32135
7.32253
7.21451
7.22778
7.2107
7.22591
7.23769
7.29156
7.27853
7.29395
7.3002
7.2888
7.19475
7.18673
7.20066
7.21005
7.20593
7.27412
7.28595
7.21183
7.24808
7.2281
7.24332
7.2292
7.26475
7.24387
7.15738
7.21534
7.19404
7.1973
7.15733
7.21743
7.196
7.19681
7.26533
7.27517
7.25524
7.25889
7.27836
7.26169
7.26737
7.24573
7.25089
7.24229
7.25701
7.26278
7.22844
7.35994
7.36389
7.32556
7.38145
7.347
7.35559
7.37842
7.37422
7.36336
7.40597
7.30415
7.31181
7.38037
7.3761
7.35223
7.34556
7.35092
7.34926
7.34544
7.34958
7.3559
7.35549
7.34962
7.35469
7.32179
7.29714
7.3049
7.32989
7.32082
7.28027
7.29297
7.29457
7.28948
7.34397
7.32699
7.32802
7.34853
7.33252
7.33301
7.22626
7.23821
7.22698
7.22781
7.24046
7.30728
7.29912
7.31123
7.31372
7.30803
7.22074
7.21958
7.22437
7.22993
7.23215
7.30007
7.31067
7.24787
7.28112
7.25818
7.2766
7.26651
7.29398
7.27252
7.15847
7.22066
7.20077
7.19737
7.16657
7.22365
7.20872
7.21549
7.28498
7.29635
7.26818
7.27712
7.30177
7.27577
7.28717
7.2719
7.27797
7.26951
7.28708
7.29364
7.24154
7.36842
7.37094
7.49336
7.37874
7.41229
7.54275
7.38118
7.44105
7.33997
7.3663
7.52268
7.40118
7.36023
7.33843
7.32762
7.35565
7.36083
7.35959
7.35257
7.35634
7.36272
7.35945
7.35646
7.3572
7.30887
7.26055
7.28825
7.30548
7.30172
7.2451
7.28853
7.27427
7.26006
7.35271
7.3384
7.33831
7.35705
7.34496
7.34411
7.23045
7.24503
7.22203
7.23396
7.25177
7.32024
7.31597
7.32996
7.32734
7.32431
7.24173
7.24719
7.25252
7.25809
7.26617
7.32008
7.3287
7.28089
7.30477
7.28738
7.31006
7.29173
7.31552
7.30299
7.1911
7.2278
7.22608
7.22036
7.22586
7.24115
7.24938
7.25736
7.31026
7.32428
7.28639
7.29973
7.32742
7.29946
7.31512
7.30629
7.31002
7.3015
7.31953
7.32356
7.2732
7.36836
7.36486
7.46604
7.37261
7.41795
7.40675
7.36059
7.39069
7.39823
7.35346
7.40234
7.3801
7.3485
7.31994
7.3171
7.36766
7.37626
7.35755
7.36298
7.36097
7.36869
7.35656
7.37238
7.36897
7.29951
7.2349
7.28346
7.29445
7.29965
7.23425
7.2754
7.25701
7.26905
7.36207
7.3519
7.3505
7.36766
7.3592
7.35727
7.24968
7.26806
7.24675
7.28737
7.30232
7.33549
7.33286
7.34862
7.34425
7.34234
7.2801
7.29285
7.30598
7.30872
7.317
7.3376
7.34701
7.30128
7.32738
7.31625
7.33262
7.31063
7.33768
7.32495
7.26552
7.26719
7.27883
7.28556
7.29479
7.29695
7.30436
7.3171
7.33568
7.34492
7.31144
7.32894
7.35525
7.32543
7.34247
7.33164
7.33448
7.33017
7.34293
7.34616
7.31837
7.36493
7.36791
7.37688
7.35396
7.37147
7.36217
7.35224
7.36074
7.3666
7.34729
7.36244
7.36008
7.35034
7.3216
7.33235
7.38443
7.38987
7.36048
7.38245
7.37698
7.37897
7.36516
7.3896
7.38385
7.30753
7.24753
7.28024
7.31749
7.32083
7.29006
7.30128
7.29212
7.32244
7.37342
7.36678
7.36433
7.37916
7.3746
7.37146
7.34234
7.34233
7.34152
7.37488
7.36591
7.35361
7.35282
7.3691
7.36323
7.36349
7.33785
7.34509
7.36495
7.36665
7.36662
7.35766
7.36949
7.32212
7.3493
7.33619
7.35535
7.33435
7.3603
7.34797
7.31417
7.32206
7.32669
7.33863
7.33086
7.33998
7.34713
7.35904
7.3557
7.36697
7.33806
7.35559
7.38057
7.35097
7.36896
7.35465
7.36023
7.35827
7.36802
7.37441
7.35711
7.37194
7.37567