/*--------------------------------*- C++ -*----------------------------------*\
| =========                 |                                                 |
| \\      /  F ield         | OpenFOAM: The Open Source CFD Toolbox           |
|  \\    /   O peration     | Version:  5.x                                   |
|   \\  /    A nd           | Web:      www.OpenFOAM.org                      |
|    \\/     M anipulation  |                                                 |
\*---------------------------------------------------------------------------*/
FoamFile
{
    version     2.0;
    format      ascii;
    class       volScalarField;
    location    "0.75";
    object      Ksl;
}
// * * * * * * * * * * * * * * * * * * * * * * * * * * * * * * * * * * * * * //

dimensions      [1 -3 -1 0 0 0 0];

internalField   nonuniform List<scalar> 
10571
(
239.67
9.27204
173.849
1493.94
3069.42
111.004
393.2
921.811
1423.18
2099.68
0
41.6124
660.305
1971.36
7872.44
9919.05
75.921
759.202
6299.7
9811.44
7099.67
1071.12
9550.41
9681.07
323.841
0
52.256
14.1921
147.545
30.6916
278.397
417.287
436.564
312.69
0
16.376
185.156
175.065
2550.02
11524.9
58.6591
71.8985
429.171
5302.51
10529.6
59.8032
302.18
11496.3
109.32
0
50.1809
24.2386
49.7566
3.27845
41.7857
59.1114
46.1636
52.0565
0
26.1957
51.6333
50.1928
352.475
9115.36
30.0302
64.0967
172.771
597.507
6238.19
88.9736
162.997
11209.6
117.334
37.952
110.19
51.573
23.7264
16.8738
31.2678
42.2939
38.4958
20.9855
0
15.4534
29.5697
24.7992
146.358
14513.3
20.5533
51.0018
193.598
527.51
5325.45
19.3109
154.381
12867.8
30.7417
47.5011
129.323
77.9366
16.5243
59.7155
39.886
37.9945
47.3473
39.7153
0
19.6423
22.6059
12.032
94.389
3941.1
39.9805
49.5416
224.68
486.933
9364.36
21.6583
142.453
18316.4
134.606
3362.35
228.804
120.091
10.0853
49.6219
40.7878
50.7744
41.0065
34.5304
1022.11
23.8193
91.5346
29.2402
9.40292
49.482
364.849
8443.24
13.1065
49.2489
231.853
563.044
15929.9
29.1682
130.359
17864.6
17.6413
422.898
3086.18
105.653
0
1418.2
670.287
178.806
57.573
2.54503
9.94044
116.927
163.288
46.952
14.7971
216.766
70.3538
3167.33
18.8442
50.1341
288.209
878.218
9475.71
8926.88
0
111.677
13661.2
160.871
97.0171
424.958
549.762
14.8901
884.599
936.221
1599.19
620.444
22.6689
7.00298
25.5183
124.221
254.711
764.414
4174.49
1921.64
12472.7
33.3568
85.6102
347.416
3024.49
7274.96
12382.6
5.92472
57.1584
13841.8
2352.27
33.6866
58.614
1834.12
108.945
202.636
217.008
563.218
435.632
75.3678
3.93031
79.616
24.9196
615.839
1007.71
1685.86
2990.03
11935.7
19.0016
68.3436
536.307
10177.5
9711.25
16.556
35.3366
13801
196.069
24.6187
39.9683
712.356
2123.46
41.2444
128.898
305.074
747.939
291.893
-4.46322e-15
5.52227
332.308
621.517
2136.82
4798.32
38.1618
8.27339
356.929
9898.04
14569.8
18.6997
22.6231
14199.6
66.33
33.3634
28.4691
69.3833
435.904
46.9885
100.318
124.42
830.674
2443.04
420.427
231.173
193.976
284.218
1557.23
6531.16
14.4549
5.23701
108.748
7201
12745.1
0
13.3943
15417.2
39.1049
68.5098
8.99486
6.73026
36.9644
15.8267
36.0447
48.9281
113.513
3785.88
82.1452
425.361
60.6058
106.454
559.832
1132.46
0
8.78968
61.94
1374.39
9275.02
0
46.6677
7152.26
13.3679
21.3387
7.81866
11.6306
28.18
20.7149
25.0541
33.5987
35.1413
83.5388
19.4965
19.0038
22.8945
95.7345
179.375
70.0461
7.56918
8.29023
51.9004
442.542
9219.55
0
113.423
6264.87
3.92888
37.2805
9.86417
6.02729
6.11854
9.94482
27.3227
22.9956
14.4271
3.16657
26.9028
12.2671
27.4978
76.0461
32.7083
29.0787
13.6725
19.6314
48.3537
49.3994
1692.96
34.8783
155.547
6520.3
24.1491
13.5956
13.4881
6.23749
4.05662
2.8667
29.7358
26.9435
13.53
6.0539
14.7972
54.3277
41.7799
50.1921
15.1527
9.64697
43.2101
22.4032
39.7134
48.7456
62.208
22.7285
323.507
1326.84
-9.34864e-15
20.4628
5.64205
10.2521
15.6631
-3.08661e-15
19.8196
8.90715
5.37245
25.1672
27.9122
115.859
64.8536
30.8998
6.74878
0
48.0861
48.212
35.2418
13.1709
31.9491
91.7284
244.096
268.553
63.4509
11.1493
4.64357
-3.04668e-15
21.0427
14.1431
13.1791
9.35862
4.41877
6.61228
15.7293
39.883
45.8724
17.5058
9.29459
3.94418
41.8188
102.01
40.6337
27.587
0.715122
194.434
182.326
30.3362
23.3926
0
0
9.40248
9.14007
5.85436
9.59692
8.24312
2.24719
4.72405
31.2222
11.7145
33.7467
23.214
7.03609
-4.68762e-16
77.8999
96.0475
31.702
31.767
75.4487
73.6469
75.6136
2.67259
3.50888
19.2958
0
0
3.55889
7.3277
14.2487
8.95935
3.54496
-1.47843e-16
0
8.34418
15.9865
11.308
2.29769
-1.37511e-15
69.3912
45.0995
14.1209
5.76335
0
46.4763
1.56637
0
0
3.59373
0
11.6391
6.92484
11.7558
12.2124
4.66767
4.71976
0
22.2732
0
14.0237
6.68208
1.30119
0
5.9148
10.5242
2.62761
0
0
21.9782
4.90904
-8.91331e-15
13.5657
-4.74911e-15
10.4363
20.1095
0
0.236659
16.883
3.81818
2.16042
-4.41375e-15
24.6924
0
6.02627
4.81013
0.635318
0
0
3.35433
3.24347
0
0
-7.03444e-15
0
0
-2.08865e-15
7.7518
8.6527
13.1665
4.49122
20.9886
10.8227
4.10219
1.95985
0
13.4402
15.0928
8.1414
8.02145
1.31499
0
13.8897
6.61909
3.19759
0
0
0
0
0
0
41.3402
16.4604
5.70428
8.92223
25.339
3.3941
4.50795
1.13631
0
0
0
7.82624
1.67238
1.18359
0
0
4.24067
2.36064
0
0
6.10593
0
0
0
12.5535
-4.96321e-15
1.21012
0.390849
6.00917
3.08283
1.50121
0.719147
0
24.22
0.146829
6.63631
3.39331
0.71702
0
0
6.04445
1.56794
3.77521
0
0
0
0
0
31.2737
0
11.5874
10.3794
0
5.41244
0.697158
0
0
20.0892
0
1.598
0.236468
0
0
7.62143
2.53994
0.769678
0
0
0
0
0
0
13.8215
3.53087
5.77686
0
14.3064
0.958016
0.727
0
0
0
0
3.92093
0.47112
0.670266
0
0
0.137102
0
0
0
0
0
0
0
7.3209
0
0
0
-3.02667e-15
1.49809
0
1.43558
0
0
0
2.38461
0
0.575311
0
12.2217
0
0.744848
0
0
6.08137
5.13369
0
0
15.3601
10.162
0
0
0
2.19299
0
-6.77556e-16
33.2948
0
5.43532
2.30386
0.942581
0
0
0.903122
1.49614
0.4631
0
0
0
2.02101
0
0
12.8936
0
0
0
4.78084
1.39293
0.730445
0
0
0
0
0
0.459577
0
0
0
0
0
0
0
0
0
0
0
0
0.831226
-1.15618e-15
0
6.92092
0.76703
0
0
0
14.4125
10.7624
0.749448
0
0
0
0
0
0
0
0
0
0
0
0
0
0
0
0
5.39699
0
0
0
0
11.7768
0
0
0
0
0
1.3413
0
0
0
0
0
0
0
0
7.57973
0
0
0
0
1.50745
0
0
0
0
0
0
0
0
0
0
0
0.683679
0
0
0
0
0
0
0
0
0
0
0
0
0
0
0
0
-1.22757e-15
0
1.21859
0
0
0
0.793468
-4.73901e-16
0
0
0
0
0
0
0
0
0
0
0
0
0
0
0
0
0
0
-1.87189e-16
0
0
-1.88304e-16
0
0
0
0
0
0
0
0
1.42947
0
0
0
5.97609
0
0
0
0
0
6.61936
0
0
0
0
0
0.790122
0
0
0
0
0
0
0
0
0
0
0
0.479908
0
0
0
0
0
0
0
0
0
0
0
0
0
0
0
0
0
0
0
0
0
0
0
0
0
0
0
0
0
0
0
0
0
0
0
0.7773
0
0
0
0
0
0
0
0
6.80578
0
0
0
0
0
0.643463
0
11.8482
0
0
0
0
0
0
0
0
0
0
0
0
0
0
0
1.24484
0
0
0
0
0
0
0
0
0
0
0
0
0
0
0
0
0
0
0
0
0
0
0
0
0
0
0
0
0
0
0
0
0
0
0
0
0
0
0
0
0
0
0
0
0
0
0
0
6.73327
0
0
0.6325
0
0
0
0
0
0
0
0
0
0
0
0
0
0
0
0
0
0
0
0
0
0
0
0.662929
0
0
0
0
0
0
0
0
0
0
0
0
0
0
0
0
0
0
0
0
0
0
0
0
0
0
0
0
0
0
0
0
0
0
0
0
0
0
0
0
0
0
0
0
0
0
0
0
0
0
0
0
0
0
0
0
0
0
0
0
0
0
0
0
0
0
0
0
0
0
0
0
0
0
0
0
0
0
0
0
0
0
0
0
0
0
0
0
0
0
0
0
0
0
0
0
0
0
0
0
0
0
0
0
0
0
0
0
0
0
0
0
0
0
0
0
0
0
0
0
0
0
0
0
0
0
0
0
0
0
0
0
0
0
0
0
0
0
0
0
0
0
0
0
0
0
0
0
0
0
0
0
0
0
0
0
0
0
0
0
0
0
0
0
0
0
0
0
0
0
0
0
0
0
0
0
0
0
0
0
0
0
0
0
0
0
0
0
0
0
0
0
0
0
0
0
0
0
0
0
0
0
0
0
0
0
0
0
0
0
0
0
0
0
0
0
0
0
0
0
0
0
0
0
0
0
0
0
0
0
0
0
0
0
0
0
0
0
0
0
0
0
0
0
0
0
0
0
0
0
0
0
0
0
0
0
0
0
0
0
0
0
0
0
0
0
0
0
0
0
0
0
0
0
0
0
0
0
0
0
0
0
0
0
0
0
0
0
0
0
0
0
0
0
0
0
0
0
0
0
0
0
0
0
0
0
0
0
0
0
0
0
0
0
0
0
0
0
0
0
0
0
0
0
0
0
0
0
0
0
0
0
0
0
0
0
0
0
0
0
0
0
0
0
0
0
0
0
0
0
0
0
0
0
0
0
0
0
0
0
0
0
0
0
0
0
0
0
0
0
0
0
0
0
0
0
0
0
0
0
0
0
0
0
0
0
0
0
0
0
0
0
0
0
0
0
0
0
0
0
0
0
0
0
0
0
0
0
0.697849
0
0
0
0
0
0
0
0
0
0
0
0
0
0
0
0
0
0
0
0
0
0
0
0
0
0
0
0
0
0
0
0
0
0
0
0
0
0
0
0
0
0
0
0
0
0
0
0
0
0
0
0
0
0
0
0
0
0
0
0
0
0
0
0
0
0
0
0
0
0
0
0
0
0
0
0
0
0
0
0
0
0
0
0
0
0
0
0
0
0
0
0
0
0
0
0
0
0
0
0
0
0
0
0
0
0
0
0
0
0
0
0
0
0
0
0
0
0
0
0
0
0
0
0
0
0
0
0
0
0
0
0
0
0
0
0
0
0
0
0
0
0
0
0
0
0
0
0
0
0
0
0
0
0
0
0
0
0
0
0
0
0
0
0
0
0
0
0
0
0
0
0
0
0
0
0
0
0
0
0
0
0
0
0
0
0
0
0
0
0
0
0
0
0
0
0
0
0
0
0
0
0
0
0
0
0
0
0
0
0
0
0
0
0
0
0
0
0
0
0
0
0
0
0
0
0
0
0
0
0
0
0
0
0
0
0
0
0
0
0
0
0
0
0
0
0
0
0
0
0
0
0
0
0
0
0
0
0
0
0
0
0
0
0
0
0
0
0
0
0
0
0
0
0
0
0
0
0
0
0
0
0
0
0
0
0
0
0
0
0
0
0
0
0
0
0
0
0
0
0
0
0
0
0
0
0
0
0
0
0
0
0
0
0
0
0
0
0
0
0
0
0
0
0
0
0
0
0
0
0
0
0
0
0
0
0
0
0
0
0
0
0
0
0
0
0
0
0
0
0
0
0
0
0
0
0
0
0
0
0
0
0
0
0
0
0
0
0
0
0
0
0
0
0
0
0
0
0
0
0
0
0
0
0
0
0
0
0
0
0
0
0
0
0
0
0
0
0
0
0
0
0
0
0
0
0
0
0
0
1512.6
1394.81
1648.84
1103.55
1376.95
1685.47
2902.42
4969.7
849.772
1100.19
819.391
744.327
509.363
676.257
1101.87
1059.89
961.903
2214.39
2790.9
456.665
912.729
4747.28
6662.73
2468.94
3873.49
3013.47
488.327
429.045
229.702
264.229
563.44
181.865
524.659
1318.16
924.087
717.398
1065.99
1072.09
1302.31
1280.56
1303.74
2626.4
4308.94
1602.52
4827.8
3945.26
6685.53
3347.34
495.627
356.999
550.015
138.818
370.666
306.098
1187.71
756.527
1554.27
3382.18
1111.67
596.454
1145.37
994.471
1616.63
3831.26
4869.12
4041.15
5515.51
6600
1319.06
4466.73
722.771
625.096
3451.67
856.089
3003.29
1487.94
1686.9
3737.56
1767.54
3842.37
4043.35
4813.17
6100.5
4305.91
5421.38
5896.7
5658.87
4569.89
4864.25
5212.38
5331.2
4344.51
6890.8
5973.69
6888.87
5805.86
31.9879
7.58114
1.94882
77.4724
197.73
74.6187
76.3969
85.4136
1101.3
1484.57
229.459
201.352
212.992
1146.52
302.684
13.6717
0.52038
23.8032
50.3504
429.252
4.13316
17.1528
36.411
213.578
4445.55
720.716
2043.69
437.68
588.027
1335.28
1045.16
3808
1375.44
0.317569
0
2.95984
0
0
1.1179
9648.2
6201.92
3850.26
9741.43
7492.93
4.3448
12.2801
0
13.2573
21.7587
6543.69
7396.34
11311.6
8225.15
9825.4
0
0
1554.52
7.60244
787.703
59.031
430.141
0
158.835
9697.23
10405
8486.09
11934.5
12181
12280.5
11654.8
10380.9
147.726
11.5463
2972.89
1089.01
99.3983
61.285
216.513
10224.6
7385.47
1841.65
11460.8
2177.69
12251.9
28.1201
55.5841
30.0961
35.7423
26.4815
109.49
48.0349
12.8063
46.383
143.924
213.852
67.3877
109.51
165.313
70.3053
2.64233
4.98061
24.4903
37.7824
100.117
4.52985
8.77759
23.1907
40.6892
164.174
257.041
144.002
116.294
71.5962
113.268
84.2599
175.924
72.1942
0
0
0
0
0
0.208939
4174.8
5456.9
129.438
1014.17
3955.84
5.18363
19.6197
0
-1.49603e-16
21.7529
6537.22
9926.06
10811.1
5313.96
9358.18
0
40.5182
101.251
0
22.4601
29.0405
109.021
9.61474
15.5747
12639.6
12263.3
11735.7
1300.32
11325.3
11291.7
11213.7
9783.9
7.92427
16.8768
54.0637
113.736
138.267
34.3242
111.059
8352.19
848.509
195.507
6277.72
413.56
10329.2
56.7974
103.503
88.0076
78.7103
39.3469
68.5179
106.459
67.0012
81.6096
76.4714
111.983
55.5705
42.8026
12.2873
62.0207
23.1279
46.7129
42.8004
47.9882
37.2721
15.3622
51.2118
37.3842
49.2535
9.25396
76.2793
94.9464
30.838
0.558124
52.3642
97.6837
57.933
62.3382
0
0
5.29826
0
0
0
387.742
2445.68
36.2566
311.818
2223.22
0
5.55574
0
5.83138
17.0153
4334.83
8404.89
9333.77
3481.54
7912.74
70.1991
32.7256
54.7365
0
16.3898
10.9427
60.023
0
18.1385
8825.6
9406.92
8148.25
534.153
8280.03
8676.12
6803.41
4236.78
13.3422
0
207.608
179.879
74.584
169.454
188.137
4855.59
254.917
148.299
5605.27
335.662
8473.81
69.4384
130.715
101.986
106.557
96.9611
136.916
98.6128
92.2545
52.4563
17.1703
88.5497
56.4478
18.6655
1.00873
0
98.8639
88.108
50.4553
63.2681
53.6221
88.0519
115.965
104.096
77.6323
9.73415
68.1859
92.3592
21.0229
17.5758
69.2972
70.0942
40.7053
111.785
23.7486
0
5.83094
40.6166
21.6931
0.177946
290.436
1822.46
27.803
261.519
8835.74
11.7952
12.0956
0
0
16.5861
3993.79
9658.82
4586.22
4220.99
13808.8
48.0393
21.1118
40.4382
0
20.2328
26.4674
38.7366
0
5.69289
9982.63
10600.9
8933.8
507.552
24449.5
29075.2
10255
8087.54
0
0
94.2247
188.19
22.9225
48.3351
157.494
5609.22
374.572
144.236
6861.13
222.367
14408.4
106.85
311.731
217.365
108.634
94.808
158.076
141.277
110.32
76.5356
16.1934
96.3658
68.9162
30.6564
9.36346
0
50.3276
285.82
64.5831
73.4337
98.0551
1038.63
221.993
191.164
38.3187
12.3448
28.2657
39.7516
9.95045
9.12253
38.0697
29.9939
54.5226
16.9068
23.1665
0
36.0296
39.5468
22.6404
51.0213
213.743
2670.61
13.9467
133.624
604.654
8.15775
15.1994
0
15.0999
16.2744
12952.7
16765.7
1270.51
1742.89
6525.2
87.9209
26.3635
66.5067
0
12.21
12.4668
63.6757
11.5135
8.28139
45427.3
27224.8
9897.58
529.113
12623.4
20851.9
11528.7
9507.64
0
-2.60839e-15
66.0192
236.332
29.6923
56.2016
130.251
7585.65
213.04
148.783
6255.09
326.174
19625.7
1534.97
2479.26
158.954
186.477
94.3935
279.176
613.685
117.708
39.7439
14.2669
133.579
81.4725
2.15001
10.9303
2.2074
2017.85
1601.6
2253.96
1220.18
298.624
1184.76
2728.11
1799.38
2254.02
27.3896
36.1764
14.7209
0
1.0425
44.9647
18.5237
40.7881
62.6108
59.7659
46.926
73.3123
604.147
55.3423
70.6073
33.6817
70.3507
761.762
14.2643
15.3266
44.4246
107.84
13438.6
3940.96
20470.6
12.0911
75.4854
38.0109
258.294
49.3417
26.9537
37.0233
71.3755
37.6005
4688.65
3451.18
2852.4
68.2546
1417.27
2330.19
5006.19
13209.8
4854.55
7077.9
1697.95
524.419
1911.05
1348.2
41.2707
14.0072
55.7547
10.1859
22.473
18.7515
51.693
0
25.291
7781.62
25370.2
12530.2
646.888
9133.34
14134.7
12645.3
17400.2
0.758645
0
21.0029
43.3296
7.35235
29.5598
46.1339
7247.95
198.092
136.947
7715.66
151.467
15207
2499.41
789.705
283.696
2000.06
259.925
857.825
2868.2
1616.5
98.6991
14.0303
140.067
71.0387
19.066
0
0
754.861
285.421
906.855
777.353
1502.11
188.738
259.078
232.05
327.75
0
32.5854
22.7279
0.981106
0
24.7226
21.6401
22.2597
0
28.9126
6.35978
0
23.4257
6.63451
11.6733
1791.91
84.7872
122.58
677.586
146.234
243.242
2.65341
24.1223
51.1514
5.0621
4.13189
24.6956
41.2956
24.6897
26.9706
123.215
0.983728
107.16
20.3623
353.932
121.074
17.0232
43.7367
118.12
15.7104
565.718
4181.89
21641.1
230.197
966.216
22353.6
23041.2
572.425
14138.2
4790.73
20165.5
3904.9
17460.5
8473.39
0.513647
30.3598
81.3707
15.1741
51.2995
6.77969
78.6914
26.2813
28.3888
11000.9
12762.7
12321.7
1499.28
10660.6
12921.7
10627.7
6103.55
8451.91
9759.42
7338.05
13098.8
10632.7
15.3497
0
24.235
65.9417
23.7137
20.1092
31.2315
6430.04
90.3545
66.3792
5436.04
143.998
13691.5
223.224
67.5227
690.679
509.55
2421.79
1205.22
139.371
985.885
161.645
4.53398
650.553
512.807
0.363962
1.41703
2.97988
77.3219
33.6114
117.946
125.617
93.4587
13.3937
60.0046
55.3658
55.0118
8.7216
23.7852
15.2428
-1.55076e-16
43.1502
31.4173
12.2166
38.3134
5.89414
137.392
0.829176
6.17819
0.158473
9.19117
4.8274
408.099
132.574
433.846
216.486
27.6622
314.635
8.39414
26.7654
26.5175
48.9948
36.8277
128.052
18.847
163.137
47.8141
1536.33
3.11539
193.422
332.787
4087.48
34.0679
14.3418
0
6.64303
24.0738
2131.33
12875.2
12396.5
5466.35
4252.94
11155.8
10620.7
8753.89
15260.7
11702.8
11930
11231.3
13358.4
14740.9
-9.04858e-15
16.2169
55.619
12.9584
27.1888
11.2381
72.2513
13.8463
30.9703
10717.4
12517
12521.7
6811.28
10592.8
12499.4
11711.8
8972.23
7667.76
7220.21
9436.85
16893.2
13282.6
0
0
22.9943
41.2211
17.5409
39.5319
21.103
4359.62
54.8035
27.1749
3777.78
39.1984
13187.9
48.6703
22.1623
566.303
122.694
314.586
128.377
66.1834
105.176
1852.18
491.68
693.095
2529.84
2730.17
820.093
2141.4
84.1328
31.1131
53.9676
15.6342
93.8666
45.6427
32.7784
56.5592
54.588
581.289
5.87867
96.599
601.326
1464.78
6.21092
168.42
493.833
655.406
144.223
258.569
274.753
78.6538
187.95
230.104
109.339
69.3202
209.978
182.668
161.08
73.0416
743.068
254.65
1315.66
6354.92
8.19186
153.681
1265.92
3445.92
7.08946
24.7607
104.217
34.0312
37.4678
5047.81
9716.81
8271.84
3484.37
6853.93
10455
2328.79
9741.02
10030.6
8813.53
6228.35
6265.41
5503.33
7469.73
49.4965
47.5693
41.5116
1.64143
27.9495
25.079
40.4658
13.8123
7.34379
10877.6
13432.5
11305.1
9866.74
11564.9
13444.6
11377.3
13274.9
0
-9.29168e-16
26.3745
0
23.4173
12.7184
0
2580.51
29.1534
37.0672
1473.33
54.6908
14810.3
10.5408
23.8605
87.845
31.5455
88.6093
76.5597
21.0921
42.1885
549.558
1312.82
78.0081
68.8613
199.444
1372.09
563.626
12.6111
27.8367
61.0622
65.9116
56.9839
31.93
23.5886
42.2073
36.0891
2559.55
24.3842
281.302
2287.25
4638.39
1268.99
727.901
1065.22
2265.41
88.1065
319.686
159.488
79.5705
753.338
268.795
177.361
580.361
523.723
536.951
2975.21
23.676
17.6879
1316.11
99.178
9.62025
2404.03
10698.6
7114.84
9473.32
11280.3
43.465
-1.51451e-14
20.913
13.6694
0
1.71562
0.214861
15.6419
4.77427
12247.3
13677.4
10712.3
8945.74
11967.3
19184.7
11264.4
12658.9
0
0
4.13284
-4.05675e-16
9.99342
7.17483
9.18964
849.41
77.0917
27.9007
491.8
36.6336
13918.5
20.69
13.9165
16.9492
11.6704
52.7816
15.6202
14.04
27.2983
78.9564
87.1617
11.7195
27.2473
31.4744
165.743
100.067
32.6558
43.0245
20.6604
35.4968
29.6524
67.1858
33.3679
35.2663
38.1769
2750.51
3036.67
5699.58
88.9101
602.269
305.789
2105.61
7043.19
7499.77
63.675
203.996
300.587
43.8368
38.0942
263.494
2195.9
7411.71
7323.2
5457.88
7466.14
646.437
101.398
84.0126
629.231
139.591
8416
11368.2
5921.64
10347.1
8405.68
34.604
0
7.30742
0
0
7.20251
0
0
0
12225.9
14134.5
16352.1
3726.22
14682.8
9511.6
23680
10202.1
0
0
23.2015
42.0993
0
8.02242
0
332.082
-1.71337e-15
33.101
223.83
22.0705
10709.3
33.5459
27.8464
-1.86911e-15
14.2721
7.10234
0
15.6231
9.43021
16.3626
26.6102
39.4551
10.3517
12.7767
65.3373
62.0952
48.7813
16.2837
0.333332
25.8013
10.9192
17.25
22.6561
6.15158
0
64.1357
78.1739
379.344
17.6415
25.7607
39.9125
28.2146
1798.58
252.264
42.7432
21.0868
90.8207
36.0857
24.1279
15.8345
3119.24
6955.69
232.058
328.535
297.106
152.137
40.6839
10.8969
44.7461
68.6731
2664.94
4080.11
252.127
257.469
3766.38
6.08229
12.5155
11.7806
0
2.86387
-1.69086e-16
8.513
0
13.6355
28275.3
6356.05
20852.4
487.088
23469.7
3084.49
15255.3
12106.1
0
0.637963
8.24068
0
0
0
0
249.6
15.315
74.8264
287.452
117.734
7238.89
36.2249
33.4896
0
-4.81435e-15
11.3787
32.8926
30.219
0.19303
16.2599
11.7033
26.0985
10.4901
40.5438
5.77955
69.9286
13.2238
38.9333
10.9356
15.9384
6.40063
21.9341
21.2908
6.65312
15.9636
21.1095
25.1706
74.6309
31.0088
25.6236
20.532
24.0315
22.1172
17.5602
15.6995
12.6382
34.9991
6.72124
0
26.929
40.1769
50.231
4.66948
39.2844
5.74345
36.6589
11.9925
16.9063
12.6914
37.1592
65.0304
1362.62
45.769
5.3493
654.307
15.1307
17.124
9.17397
3.07102
6.57274
20.9504
-4.68841e-15
0
0
15653.8
2028.93
10609.7
78.8818
9204.35
1138.73
18034.1
5052.93
0
0
15.9744
0
-5.79706e-15
0
0
350.648
182.58
152.353
407.638
255.004
6712.87
11.5591
13.7434
60.343
15.2712
0.114672
18.8136
2.80767
0
10.1663
-1.69462e-14
38.5022
18.7776
13.9585
8.28357
4.25329
12.3722
11.6853
11.4036
3.65495
6.57504
35.3815
0.203393
27.1667
8.43071
5.34757
3.58395
7.02123
12.6478
8.49782
0
11.8217
9.00782
9.36501
8.40277
20.7199
11.0409
1.90653
38.6716
16.1322
16.5274
34.6753
6.8202
8.95322
0
15.0259
29.5074
20.3523
31.8068
53.3899
21.5709
137.468
0.473427
0
15.519
61.4729
54.8355
24.3008
31.7929
7.99922
35.387
7.37794
26.446
11.5011
776.191
750.057
2347.97
34.4039
164.845
416.42
1496.27
190.965
0
0
15.1035
0.941971
33.6893
22.5323
110.971
730.297
450.663
293.819
1036.15
618.582
4022.41
0
0
19.6644
5.02715
17.2651
0
7.54681
0.790335
17.5866
10.5976
31.8189
18.1829
7.11632
21.6814
9.06651
23.1731
7.14159
0
1.78215
9.70719
20.1484
3.79146
28.0592
0
5.13227
3.8059
12.4167
4.36158
9.12003
13.5732
60.7949
14.0819
20.3887
6.27614
0
22.1537
18.1288
0
12.1933
10.6919
0
14.6375
8.28733
13.7353
75.6134
132.57
29.2941
54.5716
103.624
0
36.6576
2.84036
28.7788
0.0495719
50.0312
21.6503
30.5292
55.7866
47.642
22.7546
10.5218
28.6481
50.6502
53.793
178.705
308.802
27.9522
22.9503
89.8741
114.617
17.043
20.6992
36.6721
30.8597
227.995
46.7684
146.182
394.295
638.768
773.937
317.629
173.883
558.939
277.157
14.072
13.4594
19.6863
30.7088
11.28
32.2795
30.6435
5.68395
4.96675
11.1194
33.2293
11.7723
18.5717
20.9234
23.3161
47.2048
32.6389
11.2784
2.85365
6.31354
17.1396
13.4406
5.59233
3.57045
37.5128
4.59645
12.2728
18.2739
32.5861
4.52191
13.443
9.26497
14.3892
29.3321
7.49108
36.4883
6.57397
0.249593
19.0548
15.6108
0
4.32371
5.24905
0
53.6038
33.5026
4.87666
44.2002
27.4159
0
0
2.64681
9.15379
19.0129
31.1917
35.6153
42.3528
11.6068
75.3791
57.6729
58.0746
71.7888
70.2756
14.1983
75.2002
48.6264
34.127
23.3928
53.1007
19.583
0
146.99
95.5825
216.96
660.804
172.079
299.342
555.548
113.25
732.359
220.891
40.3465
530.353
110.848
2.84015
51.5843
33.2612
20.9004
16.1601
32.8152
9.75501
19.3923
33.5543
22.3665
37.3967
11.2248
7.30243
18.7611
39.3292
30.855
-9.62292e-15
5.41813
26.866
7.99354
18.3981
11.3474
12.9392
6.24332
16.8159
8.91424
16.4944
16.7924
0
5.88234
11.8544
7.27051
7.92066
25.7779
5.49455
14.8271
12.7538
39.0617
3.46708
9.62798
0
8.54923
0
12.8292
19.4036
20.9426
47.0552
19.0153
15.0154
-1.06883e-14
5.3146
0.121445
120.321
-4.51779e-15
0
68.3185
84.6195
52.6112
105.786
39.5053
53.8113
93.3783
92.8056
8.06658
62.4593
19.2798
26.7016
8.00723
7.03185
12.3145
0
292.303
93.7749
190.325
227.385
114.146
248.355
216.592
24.2272
210.682
98.6507
72.0357
232.631
138.604
0.493461
13.2953
41.0654
30.0421
23.7043
15.4808
36.0447
24.1471
25.5263
0.379889
21.7592
22.5172
35.6746
11.1279
11.3235
0
0
16.2965
19.9715
7.59803
3.99449
13.6197
14.0103
10.8309
0
11.2533
13.0494
14.9789
0
10.2936
4.07373
8.97812
0
6.6623
-1.13126e-14
10.0527
18.5052
27.2264
13.4206
22.461
12.4085
1.13806
3.90231
-5.7609e-14
6.56634
21.1733
6.11489
5.0542
41.1158
-1.17955e-14
0
1.35324
0
7.78141
66.6471
24.9914
153.493
42.1135
61.0455
24.2247
213.136
13.638
56.931
14.3996
7.91559
16.6387
4.32462
7.91596
5.66715
-2.49052e-15
-7.49103e-15
136.541
23.5173
115.99
78.2379
71.2268
68.0447
13.7601
6.63545
126.604
30.7492
0.285528
75.0137
0
19.8754
20.1547
82.4901
34.2209
20.014
43.7219
29.1379
20.1124
10.0319
21.7515
21.7575
10.3313
3.41326
10.9493
-6.295e-15
0
0
11.8855
7.22303
5.18335
8.49032
15.3888
0
7.98627
0
-1.62042e-15
4.23491
0.386988
21.4438
22.3454
4.32382
0
-3.79392e-16
0
-1.73204e-14
23.1578
12.9474
0
18.985
-3.38488e-15
0
0
4.22573
0
16.7284
27.9672
0
5.24192
0
0
-1.56656e-15
8.24081
0
4.80774
1.75537
0
70.8571
52.2346
34.5882
45.8395
40.9064
18.3157
16.9874
15.2343
9.5056
0
0
0.756935
4.67519
7.39207
0
11.7804
5.18805
31.3964
0
21.978
2.82224
0
1.76541
0
11.4611
10.63
0
19.4675
21.9913
19.5924
15.7282
54.918
19.2645
52.8766
54.2266
21.0388
8.26517
8.00404
13.5464
5.01364
1.16604
0.520832
0
30.3636
9.67601
-3.04417e-16
3.13387
11.6567
16.6711
23.819
15.9777
8.02515
-7.00078e-15
19.2697
8.05442
-4.01895e-15
7.68731
5.10127
5.49711
0
0
5.71113
0
14.3733
11.3209
86.8509
8.57044
-1.17244e-15
0
18.7524
0
0
0
6.36339
16.741
1.42601
14.743
0
-1.4908e-15
0
0
0
14.2455
11.0872
17.7666
18.751
16.0246
0
2.33875
0
0
0
-4.0539e-15
-4.06615e-15
0
0
0
0
0
0
0
6.05262
0
8.64218
0
0
-2.35477e-15
0
0
0
0
0
60.9559
28.5688
-1.26586e-14
15.9308
35.4952
0
21.1756
1.58485
4.36518
5.7752
13.876
4.37623
12.404
0
9.07935
14.2056
19.8675
24.8078
2.37845
13.5743
16.7347
11.8109
9.82494
23.1696
23.0446
0
4.12963
15.0961
0.264534
0
-3.89347e-15
0
0
17.1124
35.7229
13.034
12.9135
43.4579
13.7935
9.9096
0
0
-4.37835e-15
0
14.1683
9.36414
20.5038
13.4699
15.3864
0
0
0
0
0
0
2.21008
7.85265
0
8.03713
0
15.4483
15.7377
0
0
0
0
0
17.2959
0
0
0
0
16.1577
0
0
0
0
0
0
18.1852
-1.62373e-16
10.5288
0
0
36.8785
59.6097
0
11.7673
2.99297
0
8.6203
-4.00467e-15
0
-5.35304e-15
0
8.92624
0
9.96282
0
37.3365
10.7416
35.8931
19.5267
0
34.3453
11.216
12.4779
0
0
8.38538
0
-3.20266e-15
0
-4.76216e-15
0
0
0
22.2249
21.6443
9.04454
8.83398
0.556117
0
0
0
0
0
0
6.96116
0
0
-3.56947e-15
0
0
0
0
0
0
1.09276
0
-6.95181e-15
43.784
23.0797
0
0
0
15.731
-3.58627e-15
0
0
0
0
0
37.8544
0
1.58711
-5.70519e-15
4.94415
0
6.62583
0
18.8249
5.69541
0
4.8654
5.24088
0
0
-6.30596e-15
5.93871
0
5.93466
12.3952
14.8771
11.4214
4.31817
4.38023
5.52975
0
1.99998
3.40463
0
0
14.2753
27.9813
27.0035
28.8849
11.3766
5.18695
14.6646
6.85246
12.9665
0
0
11.8982
-4.06725e-15
0
8.10672
-4.601e-15
0
0
32.4899
0
13.8357
42.3776
0
11.4864
0
0
0
0
0
1.53364
0
0
4.35696
15.4987
0
0
0
0
0
0
0
0
0
0
0
0
0
0
0
-9.42812e-17
-6.33176e-15
11.334
0
0
0
0
0
0
0
0
0
0
0
0
0
0
0
0
0
29.2982
-1.54447e-14
0
1.00094
4.57947
0
-2.85427e-16
0
-1.18049e-15
-2.64073e-16
0
4.41245
3.81654
0
0
5.86502
13.8098
3.14902
17.7379
10.4719
15.0913
4.61548
14.7337
4.68801
0
0
4.70871
9.63487
0.357096
0
0
0
0
22.6624
0
13.157
14.3275
0.678372
15.0877
3.18849
0
0
4.09321
0
18.5906
-1.44683e-15
16.8505
-4.43208e-15
8.48123
0
1.42783
0
0
-2.46709e-16
17.2909
0
0
14.5109
0
7.37682
0
0
0
0
1.01021
0
0
0
0
0
0
0
0
0
0
0
0
0
0
0
0
0
0
0
9.07729
9.61772
0
0
0
0
0
0
-1.31551e-15
-4.33668e-15
0
8.24903
0
0
10.5665
16.6557
17.2757
14.0165
0
-1.5569e-15
6.92923
20.3591
8.19299
0
0
0
0
-4.60597e-15
0
0
11.5207
0
0
10.0093
39.4681
15.3839
19.7075
16.241
8.06132
0
0
0
0
0
5.10793
7.83618
0
5.54958
0
0
0
0
0
0
-2.89002e-15
0
0
0
11.6519
1.29212
5.97947
0
9.41948
0
0
0
0
0
0
0
0
0
0
0
0
6.11725
4.10641
0
0
0
0
0
0
0
0
0
0
0
4.508
0
0.319226
5.63175
4.43691
0
0
0
0
0
0
0
19.1546
2.82502
3.93539
0
21.3129
8.07098
18.1613
10.7289
0
0
-4.93578e-15
0
0
5.54602
0
0
0
0
0
9.28817
11.543
0
7.53345
0
0
0
4.35839
0
-5.16534e-15
0
30.1776
5.13186
5.72072
0
0
0
0
0
0
0
0
13.3852
0
8.40274
0
0
3.70015
0
0
0
0
0
0
0
0
0
0
1.64537
0
0
4.80547
0
0
0
0
0
0
0
1.29781
10.4156
0
0
0
0
0
0
0
0
0
0
0
0
0
10.3963
14.1311
24.6348
19.2075
1.48237
6.8718
13.741
15.2104
5.58912
0
0
0
5.03338
0
0
11.4966
0
0
16.6758
0
0
-7.17174e-15
18.779
9.92083
0
0
0
0
0
1.87211
21.566
20.6031
6.39111
-2.77466e-15
0
0
0
0
0
0
0
0
0
0
0.879215
0
0
4.78253
0
0
0
0
0
0
0
0
0
0
-1.45358e-15
0
0
0
0
0
0
0
0
0
0
0
10.5713
0
0
0
0
0
6.85557
0
0
0
0
0
0
0
0
12.8757
16.4807
9.4605
5.16688
11.5448
-1.88281e-15
1.7461
0
0
0
-4.79984e-15
0
0
0
0
0
0
5.75433
-3.45049e-15
14.7191
5.74859
0
4.65282
0
0
-1.17085e-14
0
0
0
16.4582
0
6.61864
2.17564
0
0
0
0
0
0
0
0
0
0
0
0
0
0
0
0
0
0
0
0
0
0
0
0
0
0
0
0
0
0
0
0
0
0
0
0
0
0
-3.23872e-15
0.161325
0
0
0
0
0
0
0
0.347886
0
0
12.7124
19.5688
5.74921
12.7253
0
-2.43653e-15
0
9.1082
0
0
0
0
0
0
0
0
0
0
0
0
0
5.81687
0
9.97239
0
0
0
0
0
0
17.507
21.3784
0
8.85788
0
0
0
0
0
0
0
0
0
0
0
0
0
0
0
0
0
0
0
0
0
0
0
0
0
0
0
0
0
0
0
0
0
0
0
0
0
0
0
0
0
0
0
0
6.55964
0
0
0
0
0
8.59577
0
0
4.0429
5.51373
0
0
4.45846
14.7389
0
0
0
0
0
0
0
0
0
15.9346
17.3631
0
11.4006
0
0
0
0
0
0
0
1.24736
1.84563
0
12.3985
11.4364
0
0
0
0
0
0
16.4586
0
10.5193
0
0
0
0
0
0
0
8.19505
0
0
0
0
0
0
0
0
0
0
0
0
0
0
0
0
0
0
10.0088
0
0
0
0
0
0
0
0
0
0
0
0
0
0
3.84787
10.9634
0
10.7277
-1.05916e-14
7.76878
0
0.561643
0
0
0
0
0
0
0
0
0
0
0
0
0
0
0
4.88683
0
0
0
0
0
3.63993
11.1258
0
0
0
0
0
0
0
0
-5.08379e-15
0
0
0
0
0
0
0
0
0
0
0
0
0
0
0
0
0
0
0
0
6.76774
0
0
0
0
0
0
0
0
0
0
0
0
0
0
0
0
0
0
0
0
0
0
0
18.6915
-5.70364e-15
0
9.15702
0
0
0
-1.36194e-15
0
0
0
0
0
0
0
0
0
0
0
0
0
0
0
4.7818
0
0
0
0
0
6.42669
8.12442
0
0
0
0
0
0
0
0
0
0
0
0
0
0.59252
0
9.19915
0
0
0
0
0
0
0
0
0
0
0
0
0
0
0
0
0
0
0
0
0
0
0
0
0
0
0
0
0
0
0
0
0
0
0
0
0
0
0
0
0
0
0
5.35516
0
0
0
0
0
0
0
0
0
0
0
6.12933
0
4.95338
0
0
0
0
0
0
0
0
5.66559
0
0
-3.25189e-15
0
0
0
0
0
0
0
5.60359
0
0
0
6.14933
0
0
0
0
0
0
0
0
0
0
0
0
0
0
0
0
0
0
0
0
0
0
0
0
0
0
0
0
0
0
0
0
0
0
0
0
0
0
0
0
0
0
0
0
2.74549
2.84908
0
0
0
0
0
0
0
0
0
0
0
0
0
4.90264
0
0
-2.88706e-15
0
0
0
0
0
0
0
0
0
0
0
0
0
0
0
10.3945
0
0
0
0
0
0
0
0
0
0
0
0
0
0
0
0
0
0
0
0
0
0
0
0
0
0
0
0
0
0
0
0
0
0
0
0
0
0
0
0
0
0
0
0
0
0
1.04545
0
0
0
0
0
0
0
0
0
0
0
0
0
0
0
6.38543
0
0
0
0
0
0
0
0
0
0
0
0
0
0
0
0
0
0
0
0
0
0
0
0
0
0
6.34262
0
0
0
0
0
0
0
0
0
0
0
0
0
0
0
0
0
0
0
0
0
0
0
0
0
0
0
0
0
0
0
0
0
0
0
0
0
0
0
0
0
0
0
0
0
0
0
0
0
0
0
0
0
0
0
0
0
0
0
0
0
5.3028
0
0
0
0
0
0
0
0
0
0
0
0
0
0
0
0
0
0
0
0
0
0
0
0
0
0
0
0
0
0
0
0
0
0
0
0
0
0
0
0
0
0
0
0
0
0
0
0
0
0
0
0
0
0
0
0
0
0
0
0
0
0
0
0
0
0
0
0
0
0
0
0
0
0
0
0
0
0
0
0
0
0
0
0
0
0
0
0
0
0
0
0
0
0
0
0
0
0
0
0
0
0
0
5.54527
0
0
0
-3.93277e-15
0
0
0
0
0
0
0
0
0
4.67197
0
0
4.66608
0
0
0
0
0
0
0
0
0
0
0
0
0
0
0
0
0
0
0
0
0
0
0
0
0
0
0
5.88179
0
0
0
0
0
0
0
0
0
0
0
0
0
0
0
0
0
0
0
0
0
0
0
0
0
0
6.27073
0
0
0
0
0
0
0
0
0
0
0
0
0
0
0
0
0
0
0
0
0
0
0
0
0
0
0
0
0
0
0
0
0
0
0
0
0
0
0
0
0
0
0
0
0
0
0
0
0
0
0
0
0
0
0
0
0
0
0
0
0
0
0
0
0
0
0
0
0
0
0
0
0
0
0
0
0
0
0
0
0
5.56309
0
0
0
0
0
0
0
0
0
0
0
0
0
5.60447
0
0
0
-3.29665e-15
0
0
0
0
0
0
0
0
0
0
0
0
0
0
0
0
0
0
0
0
0
0
0
0
0
0
0
0
0
0
0
0
0
0
0
0
11.3753
0
0
0
0
0
0
0
0
0
0
0
0
0
0
0
0
0
0
0
0
0
0
0
0
0
0
0
0
0
0
0
0
0
0
0
0
0
0
0
0
0
0
0
0
0
0
0
0
0
0
0
0
0
0
0
0
0
0
0
0
0
0
0
0
0
0
0
0
0
0
0
0
0
0
0
0
0
0
0
0
0
0
0
0
0
0
0
0
0
0
0
0
0
0
0
0
0
0
0
0
0
0
0
0
0
0
0
0
0
0
0
0
0
0
0
0
0
0
0
0
0
0
0
0
0
0
0
0
0
0
0
0
0
0
0
0
0
0
0
0
0
0
0
0
0
0
0
0
0
0
0
0
0
0
0
0
0
0
0
0
0
0
0
0
0
0
0
0
0
5.45498
0
0
0
0
0
0
0
0
0
0
0
0
0
0
0
0
0
0
0
0
0
0
0
0
0
0
0
0
0
0
0
0
0
0
0
0
0
0
0
0
0
0
0
0
0
0
0
0
0
0
0
0
0
0
0
0
0
0
0
0
0
0
0
0
0
0
0
0
0
0
0
0
0
0
6.00621
0
0
0
0
0
0
0
0
0
0
0
0
0
0
0
0
0
0
0
0
0
0
0
0
0
0
0
0
0
0
0
0
0
0
0
0
0
0
0
0
0
0
0
0
0
0
0
0
0
0
0
0
0
0
0
0
0
0
0
0
0
0
0
0
0
0
0
0
0
0
0
0
0
0
0
0
0
0
0
0
0
0
0
0
0
0
0
0
0
0
0
0
0
0
0
0
0
0
0
0
0
0
0
0
0
0
0
0
0
0
0
0
0
0
0
0
0
0
0
0
0
0
0
0
0
0
0
0
0
0
0
0
0
0
0
0
0
0
0
0
0
0
0
0
0
0
0
0
0
0
0
0
0
0
0
0
0
0
0
0
0
0
0
0
0
0
0
0
0
0
0
0
0
0
11.8981
0
0
0
0
0
0
0
0
0
0
0
0
0
0
0
0
0
0
0
0
0
0
0
0
0
0
0
0
0
0
0
0
0
0
0
0
0
0
0
0
0
0
0
0
0
0
0
0
0
0
0
0
0
0
0
0
0
0
0
0
0
0
0
0
0
0
0
0
0
0
0
0
0
0
0
0
0
0
0
0
0
0
0
0
0
0
0
0
0
0
0
0
0
0
0
0
0
0
0
0
0
0
0
0
0
0
0
0
0
0
0
0
0
0
0
0
0
0
0
0
0
0
0
0
0
0
0
0
0
0
0
0
0
0
0
0
0
0
0
0
0
0
0
0
0
0
0
0
0
0
0
0
0
0
0
0
0
0
0
0
4.55971
-1.52948e-16
0
0
0
0
0
0
0
0
0
0
0
0
0
0
0
0
0
0
0
0
0
0
0
0
0
0
0
0
0
0
0
0
0
0
0
0
0
0
0
0
0
0
0
0
0
0
0
0
0
0
0
0
0
0
0
0
0
0
0
0
0
0
0
0
0
0
0
0
0
0
0
0
0
0
0
0
0
0
0
0
0
0
0
0
0
0
0
0
0
0
0
0
0
0
0
0
0
0
0
0
0
0
0
0
0
0
0
0
0
0
0
0
0
0
0
0
0
0
0
0
0
0
0
0
0
0
0
0
0
0
0
0
0
0
0
0
0
0
0
0
0
0
0
0
0
0
0
0
0
0
0
0
0
0
0
0
0
0
0
0
0
0
0
0
0
0
0
0
0
0
0
0
0
0
0
0
0
0
0
0
0
0
0
0
0
0
0
0
0
0
0
0
0
0
0
0
0
0
0
0
0
0
0
0
0
0
0
0
0
0
0
0
0
0
0
0
0
0
0
0
0
0
0
0
0
0
0
0
0
0
0
0
0
0
0
0
0
0
0
0
0
0
0
0
0
0
0
0
0
4.53263
0
0
0
0
0
0
0
0
0
0
0
0
0
0
0
0
0
0
0
0
0
0
0
0
0
0
0
0
0
0
0
0
0
0
0
0
0
0
0
0
0
0
0
0
0
0
0
0
0
0
0
0
0
0
0
0
0
0
0
0
0
0
0
0
0
0
0
0
0
0
0
0
0
0
0
0
0
0
0
0
1.47026
0
0
0
0
0
0
0
0
0
0
0
0
0
0
0
0
0
0
0
0
0
0
0
0
0
0
0
0
0
0
0
0
0
0
0
0
0
0
0
0
0
0
0
0
0
0
0
0
0
0
0
0
0
0
0
0
0
0
0
0
0
0
0
0
0
0
0
0
0
0
0
0
0
0
0
0
0
0
0
0
0
0
0
0
0
0
0
0
0
0
0
0
0
0
0
0
0
0
0
0
0
0
0
0
0
0
0
0
0
0
0
0
0
0
0
0
0
0
0
0
0
0
0
0
0
0
0
0
0
0
0
0
0
0
0
0
0
0
0
0
0
0
0
0
0
0
0
0
0
0
0
0
0
0
0
0
0
0
0
0
0
0
0
0
0
0
0
0
0
0
0
0
0
0
0
0
0
0
0
0
0
0
0
0
0
0
0
0
0
0
0
0
0
0
0
0
0
0
0
0
0
0
0
0
0
0
0
0
0
0
0
0
0
0
0
0
0
0
0
0
0
0
0
0
0
0
0
0
0
0
0
0
0
0
0
0
0
0
0
0
0
0
0
0