/*--------------------------------*- C++ -*----------------------------------*\
| =========                 |                                                 |
| \\      /  F ield         | OpenFOAM: The Open Source CFD Toolbox           |
|  \\    /   O peration     | Version:  5.x                                   |
|   \\  /    A nd           | Web:      www.OpenFOAM.org                      |
|    \\/     M anipulation  |                                                 |
\*---------------------------------------------------------------------------*/
FoamFile
{
    version     2.0;
    format      ascii;
    class       volScalarField;
    location    "0.75";
    object      voidfraction;
}
// * * * * * * * * * * * * * * * * * * * * * * * * * * * * * * * * * * * * * //

dimensions      [0 0 0 0 0 0 0];

internalField   nonuniform List<scalar> 
10571
(
0.965183
0.99854
0.974157
0.819438
0.750235
0.981949
0.944527
0.887247
0.855802
0.822629
1
0.993242
0.914051
0.806881
0.56224
0.492122
0.987511
0.907535
0.605741
0.513964
0.569992
0.876622
0.510977
0.492502
0.949404
1
0.992136
0.99735
0.975875
0.995181
0.957344
0.939457
0.93636
0.956688
1
0.997568
0.971805
0.975649
0.772451
0.435114
0.990285
0.988559
0.936176
0.61882
0.460241
0.990072
0.946608
0.430249
0.978776
1
0.9922
0.995475
0.991148
0.99947
0.992576
0.989712
0.990917
0.98951
1
0.9962
0.991494
0.991863
0.922147
0.46636
0.995112
0.989645
0.960212
0.859865
0.531087
0.98552
0.956636
0.42798
0.976265
0.993398
0.981896
0.990852
0.995711
0.99741
0.99451
0.992244
0.991912
0.995305
1
0.997713
0.995169
0.995751
0.953078
0.55179
0.99682
0.99179
0.953734
0.852202
0.545015
0.996828
0.958389
0.46386
0.993734
0.991208
0.975865
0.986381
0.99717
0.990548
0.992826
0.993022
0.990057
0.990751
1
0.997162
0.996425
0.997955
0.969951
0.652667
0.994048
0.992127
0.948393
0.86209
0.498238
0.996554
0.963618
0.447584
0.974493
0.651174
0.953234
0.978804
0.998248
0.991858
0.993104
0.990382
0.991131
0.992581
0.756899
0.996701
0.986912
0.995527
0.998303
0.986064
0.882797
0.429562
0.998136
0.992387
0.949532
0.855945
0.471997
0.995586
0.968107
0.443706
0.996702
0.918109
0.664502
0.980154
1
0.807436
0.893893
0.966287
0.987821
0.999388
0.996987
0.984825
0.977132
0.993275
0.997531
0.943153
0.972774
0.623799
0.997414
0.992671
0.94705
0.809233
0.512454
0.444721
1
0.975719
0.44065
0.97164
0.980731
0.915078
0.904153
0.997476
0.845211
0.847285
0.77394
0.877323
0.994854
0.997654
0.996811
0.982746
0.964593
0.873299
0.602489
0.705579
0.496704
0.995639
0.988296
0.937335
0.647979
0.502566
0.439733
0.999148
0.989069
0.425518
0.746605
0.994511
0.986669
0.780518
0.982337
0.948835
0.958843
0.904522
0.924288
0.984142
0.998626
0.990433
0.995873
0.905302
0.827491
0.744051
0.646235
0.438412
0.997624
0.990748
0.900988
0.461646
0.475648
0.997909
0.99396
0.435448
0.960422
0.996023
0.992072
0.871938
0.761287
0.990472
0.97361
0.94683
0.882563
0.942482
1
0.999154
0.939563
0.878552
0.706635
0.567674
0.995339
0.998912
0.926288
0.463736
0.413409
0.997754
0.996678
0.443256
0.989336
0.995128
0.994301
0.983099
0.913346
0.991048
0.979045
0.976325
0.862782
0.699927
0.939193
0.965307
0.959052
0.934977
0.745812
0.515902
0.998256
0.999333
0.974563
0.524217
0.450405
1
0.998007
0.473169
0.993623
0.989808
0.998314
0.99848
0.992461
0.996825
0.992907
0.990228
0.977122
0.60323
0.986365
0.921973
0.986391
0.972836
0.862564
0.770536
1
0.998897
0.986343
0.751399
0.497559
1
0.993659
0.546376
0.997911
0.996752
0.998719
0.997601
0.995193
0.997096
0.99507
0.993184
0.993402
0.988372
0.996811
0.995673
0.994533
0.976147
0.945627
0.977086
0.999128
0.998918
0.989101
0.938643
0.49894
1
0.98466
0.569636
0.99934
0.994344
0.998584
0.998987
0.998077
0.997906
0.994632
0.994834
0.996688
0.998876
0.995382
0.996958
0.993734
0.98071
0.990876
0.990084
0.998647
0.997444
0.990229
0.984876
0.661345
0.996245
0.976085
0.563115
0.995932
0.997312
0.998045
0.99902
0.998468
0.999223
0.994311
0.99427
0.997294
0.998604
0.996811
0.986986
0.990215
0.988241
0.99574
0.996674
0.995129
0.997004
0.991773
0.98738
0.979487
0.997406
0.944953
0.780793
1
0.996696
0.999056
0.998345
0.997116
1
0.996128
0.998308
0.998821
0.994379
0.993183
0.973804
0.985895
0.993565
0.998744
1
0.994257
0.993701
0.992662
0.996728
0.989288
0.989315
0.952713
0.960093
0.987244
0.99804
0.99936
1
0.996004
0.997771
0.997516
0.998235
0.999132
0.998488
0.995712
0.991619
0.991042
0.995965
0.998496
0.999123
0.994769
0.986252
0.991737
0.995293
0.99993
0.976035
0.961617
0.989847
0.995273
1
1
0.99848
0.998227
0.999021
0.998436
0.998576
0.999649
0.998876
0.995492
0.99733
0.994127
0.995152
0.998699
1
0.99005
0.986098
0.994094
0.992589
0.99797
0.990362
0.982308
0.99797
0.99934
0.996304
1
1
0.999309
0.998818
0.997604
0.998503
0.999301
1
1
0.998074
0.997034
0.997708
0.999583
1
0.99053
0.993136
0.997194
0.999032
1
0.993419
0.998943
1
1
0.99944
1
0.998041
0.998829
0.998042
0.998085
0.999225
0.999099
1
0.996812
1
0.997985
0.998877
0.999765
1
0.999008
0.998696
0.999531
1
1
0.997755
0.999124
1
0.996812
1
0.998011
0.996622
1
0.999932
0.997451
0.999371
0.999604
1
0.995822
1
0.999146
0.999233
0.999882
1
1
0.999572
0.999531
1
1
1
1
1
1
0.998376
0.998382
0.997703
0.999129
0.996961
0.998382
0.999332
0.999649
1
0.996812
0.997736
0.998908
0.998749
0.999757
1
0.998317
0.999152
0.999539
1
1
1
1
1
1
0.991489
0.997067
0.99902
0.999129
0.995712
0.999515
0.999267
0.999883
1
1
1
0.998942
0.999737
0.999765
1
1
0.999439
0.999644
1
1
0.998877
1
1
1
0.998376
1
0.999865
0.99997
0.998683
0.999557
0.999777
0.999883
1
0.995822
0.999966
0.999088
0.999477
0.999887
1
1
0.99918
0.999761
0.999232
1
1
1
1
1
0.993505
1
0.998108
0.999129
1
0.999226
0.999889
1
1
0.995713
1
0.999777
0.999961
1
1
0.999068
0.999649
0.999887
1
1
1
1
1
1
0.996809
0.99936
0.99902
1
0.997265
0.999851
0.999889
1
1
1
1
0.999442
0.999926
0.999882
1
1
0.999968
1
1
1
1
1
1
1
0.998208
1
1
1
1
0.999775
1
0.999883
1
1
1
0.999665
1
0.999882
1
0.998437
1
0.999883
1
1
0.998877
0.999124
1
1
0.996753
0.998382
1
1
1
0.999672
1
1
0.997752
1
0.999223
0.999665
0.999849
1
1
0.99988
0.999766
0.999923
1
1
1
0.999698
1
1
0.997424
1
1
1
0.999055
0.999783
0.999889
1
1
1
1
1
0.999926
1
1
1
1
1
1
1
1
1
1
1
1
0.999899
1
1
0.998649
0.999886
1
1
1
0.997691
0.998378
0.999888
1
1
1
1
1
1
1
1
1
1
1
1
1
1
1
1
0.999021
1
1
1
1
0.998681
1
1
1
1
1
0.99982
1
1
1
1
1
1
1
1
0.998432
1
1
1
1
0.999779
1
1
1
1
1
1
1
1
1
1
1
0.999883
1
1
1
1
1
1
1
1
1
1
1
1
1
1
1
1
1
1
0.999775
1
1
1
0.999883
1
1
1
1
1
1
1
1
1
1
1
1
1
1
1
1
1
1
1
1
1
1
1
1
1
1
1
1
1
1
1
0.999776
1
1
1
0.999054
1
1
1
1
1
0.99902
1
1
1
1
1
0.999883
1
1
1
1
1
1
1
1
1
1
1
0.999932
1
1
1
1
1
1
1
1
1
1
1
1
1
1
1
1
1
1
1
1
1
1
1
1
1
1
1
1
1
1
1
1
1
1
1
0.999883
1
1
1
1
1
1
1
1
0.999022
1
1
1
1
1
0.999883
1
0.997911
1
1
1
1
1
1
1
1
1
1
1
1
1
1
1
0.999798
1
1
1
1
1
1
1
1
1
1
1
1
1
1
1
1
1
1
1
1
1
1
1
1
1
1
1
1
1
1
1
1
1
1
1
1
1
1
1
1
1
1
1
1
1
1
1
1
0.99902
1
1
0.999889
1
1
1
1
1
1
1
1
1
1
1
1
1
1
1
1
1
1
1
1
1
1
1
0.999889
1
1
1
1
1
1
1
1
1
1
1
1
1
1
1
1
1
1
1
1
1
1
1
1
1
1
1
1
1
1
1
1
1
1
1
1
1
1
1
1
1
1
1
1
1
1
1
1
1
1
1
1
1
1
1
1
1
1
1
1
1
1
1
1
1
1
1
1
1
1
1
1
1
1
1
1
1
1
1
1
1
1
1
1
1
1
1
1
1
1
1
1
1
1
1
1
1
1
1
1
1
1
1
1
1
1
1
1
1
1
1
1
1
1
1
1
1
1
1
1
1
1
1
1
1
1
1
1
1
1
1
1
1
1
1
1
1
1
1
1
1
1
1
1
1
1
1
1
1
1
1
1
1
1
1
1
1
1
1
1
1
1
1
1
1
1
1
1
1
1
1
1
1
1
1
1
1
1
1
1
1
1
1
1
1
1
1
1
1
1
1
1
1
1
1
1
1
1
1
1
1
1
1
1
1
1
1
1
1
1
1
1
1
1
1
1
1
1
1
1
1
1
1
1
1
1
1
1
1
1
1
1
1
1
1
1
1
1
1
1
1
1
1
1
1
1
1
1
1
1
1
1
1
1
1
1
1
1
1
1
1
1
1
1
1
1
1
1
1
1
1
1
1
1
1
1
1
1
1
1
1
1
1
1
1
1
1
1
1
1
1
1
1
1
1
1
1
1
1
1
1
1
1
1
1
1
1
1
1
1
1
1
1
1
1
1
1
1
1
1
1
1
1
1
1
1
1
1
1
1
1
1
1
1
1
1
1
1
1
1
1
1
1
1
1
1
1
1
1
1
1
1
1
1
1
1
1
1
1
1
1
1
1
1
1
1
1
1
1
1
1
1
1
1
1
1
1
1
1
1
1
1
1
1
1
1
1
1
1
1
1
1
1
1
1
1
1
1
1
1
1
1
1
1
1
1
1
1
0.999889
1
1
1
1
1
1
1
1
1
1
1
1
1
1
1
1
1
1
1
1
1
1
1
1
1
1
1
1
1
1
1
1
1
1
1
1
1
1
1
1
1
1
1
1
1
1
1
1
1
1
1
1
1
1
1
1
1
1
1
1
1
1
1
1
1
1
1
1
1
1
1
1
1
1
1
1
1
1
1
1
1
1
1
1
1
1
1
1
1
1
1
1
1
1
1
1
1
1
1
1
1
1
1
1
1
1
1
1
1
1
1
1
1
1
1
1
1
1
1
1
1
1
1
1
1
1
1
1
1
1
1
1
1
1
1
1
1
1
1
1
1
1
1
1
1
1
1
1
1
1
1
1
1
1
1
1
1
1
1
1
1
1
1
1
1
1
1
1
1
1
1
1
1
1
1
1
1
1
1
1
1
1
1
1
1
1
1
1
1
1
1
1
1
1
1
1
1
1
1
1
1
1
1
1
1
1
1
1
1
1
1
1
1
1
1
1
1
1
1
1
1
1
1
1
1
1
1
1
1
1
1
1
1
1
1
1
1
1
1
1
1
1
1
1
1
1
1
1
1
1
1
1
1
1
1
1
1
1
1
1
1
1
1
1
1
1
1
1
1
1
1
1
1
1
1
1
1
1
1
1
1
1
1
1
1
1
1
1
1
1
1
1
1
1
1
1
1
1
1
1
1
1
1
1
1
1
1
1
1
1
1
1
1
1
1
1
1
1
1
1
1
1
1
1
1
1
1
1
1
1
1
1
1
1
1
1
1
1
1
1
1
1
1
1
1
1
1
1
1
1
1
1
1
1
1
1
1
1
1
1
1
1
1
1
1
1
1
1
1
1
1
1
1
1
1
1
1
1
1
1
1
1
1
1
1
1
1
1
1
1
1
1
1
1
1
1
1
1
1
1
1
1
1
1
1
1
1
1
1
0.789606
0.801862
0.795589
0.838948
0.80803
0.788717
0.715718
0.592798
0.850075
0.814273
0.865544
0.874718
0.918307
0.898411
0.856622
0.858909
0.871622
0.782902
0.740672
0.932771
0.873115
0.626526
0.549866
0.782872
0.683202
0.747892
0.912311
0.922795
0.958186
0.953861
0.909451
0.968215
0.916019
0.818369
0.866037
0.890898
0.851396
0.852544
0.837365
0.843174
0.861828
0.786851
0.694235
0.851346
0.709508
0.73493
0.605082
0.781032
0.912758
0.935957
0.903358
0.97552
0.939452
0.949115
0.839198
0.890157
0.812812
0.690548
0.865895
0.931936
0.88879
0.901089
0.862708
0.785187
0.712278
0.778581
0.653438
0.581694
0.862512
0.675011
0.8715
0.898536
0.677739
0.859296
0.700073
0.814412
0.82035
0.684464
0.81338
0.795419
0.779576
0.726735
0.648884
0.753018
0.621616
0.613723
0.5958
0.638322
0.589209
0.598973
0.629773
0.690978
0.611152
0.631991
0.577962
0.599828
0.994466
0.998617
0.999574
0.987946
0.969707
0.988651
0.988042
0.987201
0.854314
0.819408
0.965741
0.969312
0.966686
0.859895
0.954499
0.996963
0.999937
0.996186
0.991762
0.936105
0.999501
0.99723
0.994035
0.966833
0.652212
0.916537
0.800761
0.936904
0.918022
0.849962
0.87695
0.719796
0.844419
0.999968
1
0.9995
1
1
0.999809
0.505877
0.657941
0.720625
0.480173
0.563455
0.99925
0.997848
1
0.997812
0.996282
0.621939
0.571232
0.451063
0.541406
0.493405
1
1
0.812423
0.998798
0.892811
0.990427
0.927821
1
0.97176
0.492341
0.482372
0.522355
0.448101
0.438007
0.43621
0.444136
0.47551
0.977436
0.998052
0.789067
0.887791
0.985175
0.991422
0.967878
0.497022
0.558555
0.8111
0.446905
0.779703
0.433462
0.995302
0.990403
0.995391
0.994293
0.996028
0.982514
0.992327
0.998109
0.992631
0.976246
0.961987
0.989448
0.981698
0.973324
0.988219
0.999603
0.999116
0.996172
0.993811
0.984021
0.999345
0.99861
0.99614
0.993548
0.973014
0.964432
0.978625
0.979895
0.987843
0.982659
0.986638
0.974169
0.987908
1
1
1
1
1
0.99997
0.652339
0.604536
0.977846
0.82621
0.622757
0.999165
0.996795
1
1
0.996483
0.57187
0.476025
0.435383
0.574264
0.466966
1
0.993392
0.980623
1
0.995757
0.995233
0.9796
0.998411
0.997192
0.418725
0.42041
0.429975
0.80977
0.427832
0.431468
0.426916
0.456815
0.998741
0.997334
0.99146
0.974933
0.977469
0.9944
0.973626
0.493522
0.908514
0.952331
0.552586
0.896348
0.433763
0.990058
0.98145
0.98523
0.987358
0.99413
0.988365
0.982807
0.989933
0.987178
0.987046
0.978927
0.991136
0.99275
0.997997
0.99006
0.995998
0.991945
0.993211
0.992104
0.994086
0.997377
0.991573
0.993721
0.992175
0.998387
0.987769
0.984099
0.994473
0.999888
0.991416
0.983624
0.989949
0.989191
1
1
0.999191
1
1
1
0.890963
0.679266
0.992461
0.899272
0.68058
1
0.999118
1
0.999125
0.997377
0.590399
0.471492
0.516736
0.611716
0.491219
0.988598
0.994715
0.990532
1
0.997195
0.998266
0.989582
1
0.997109
0.465089
0.464475
0.47374
0.860124
0.493662
0.493684
0.5057
0.585369
0.997989
1
0.966531
0.962635
0.987874
0.97132
0.961093
0.576287
0.931392
0.958403
0.582307
0.914956
0.479053
0.9867
0.974915
0.982637
0.981528
0.985341
0.976584
0.981549
0.985414
0.991594
0.9971
0.981863
0.990888
0.996826
0.999791
1
0.98295
0.984192
0.991392
0.98909
0.991351
0.984268
0.979437
0.981632
0.987331
0.998371
0.988841
0.984134
0.996213
0.997131
0.988128
0.987751
0.992594
0.979584
0.996289
1
0.999123
0.993578
0.996812
0.99997
0.891643
0.699945
0.99367
0.908606
0.673544
0.998246
0.998144
1
1
0.997523
0.609642
0.505075
0.59354
0.610159
0.504547
0.992403
0.996722
0.993172
1
0.996797
0.996004
0.99371
1
0.999123
0.481913
0.477108
0.473996
0.8522
0.483587
0.475517
0.490125
0.505725
1
1
0.983534
0.960068
0.996284
0.991574
0.966857
0.582924
0.906651
0.961806
0.564312
0.941513
0.457221
0.976792
0.935386
0.962288
0.978718
0.984317
0.970972
0.971515
0.980951
0.987338
0.997367
0.98131
0.988394
0.995079
0.998535
1
0.990388
0.948453
0.987211
0.986477
0.983444
0.830414
0.956229
0.965556
0.993165
0.997973
0.995034
0.992906
0.998251
0.998481
0.993309
0.994549
0.989605
0.99629
0.996246
1
0.994732
0.993575
0.996811
0.992671
0.926564
0.695103
0.996639
0.955651
0.837899
0.998819
0.997754
1
0.99794
0.997677
0.597519
0.494688
0.747007
0.715177
0.551489
0.986747
0.996024
0.989387
1
0.998154
0.998166
0.990036
0.998369
0.998819
0.485888
0.469975
0.477609
0.853436
0.491874
0.475304
0.461298
0.469994
1
1
0.988706
0.951381
0.995315
0.990452
0.97311
0.558096
0.9459
0.963148
0.582108
0.921643
0.443013
0.769135
0.69593
0.970311
0.960094
0.98322
0.946782
0.885652
0.977979
0.99318
0.997713
0.974384
0.985814
0.999535
0.998324
0.999651
0.742533
0.784321
0.714979
0.81637
0.947118
0.809726
0.68837
0.769379
0.732983
0.995362
0.993514
0.997312
1
0.99978
0.991669
0.996604
0.991986
0.987707
0.989317
0.993512
0.989429
0.909305
0.992632
0.989943
0.989752
0.976998
0.790825
0.996264
0.994917
0.986301
0.959216
0.479683
0.568927
0.385106
0.996212
0.9687
0.985851
0.908147
0.993243
0.996282
0.995052
0.990424
0.994927
0.519428
0.601556
0.614829
0.975392
0.741639
0.663728
0.501026
0.386512
0.533219
0.502594
0.702944
0.858482
0.677937
0.736051
0.993931
0.997977
0.991521
0.998594
0.996791
0.997383
0.992309
1
0.996488
0.492285
0.466497
0.446461
0.842723
0.483773
0.464488
0.435783
0.506321
0.99986
1
0.996466
0.991549
0.998916
0.995407
0.991549
0.552504
0.952371
0.968854
0.558096
0.96543
0.438832
0.697667
0.85075
0.947885
0.747956
0.952357
0.863226
0.677461
0.79432
0.982725
0.997792
0.973838
0.987242
0.99698
1
1
0.870284
0.945242
0.841255
0.869365
0.803637
0.963871
0.945095
0.954397
0.93934
1
0.994069
0.995741
0.99979
1
0.995451
0.995912
0.995367
1
0.994059
0.998625
1
0.993156
0.998036
0.996767
0.784427
0.989003
0.981915
0.886424
0.981635
0.966587
0.999442
0.99266
0.978326
0.998448
0.998413
0.994053
0.985286
0.992979
0.991019
0.963005
0.999688
0.966505
0.991098
0.887061
0.984091
0.997754
0.994392
0.984697
0.997986
0.83184
0.571036
0.445956
0.920502
0.77287
0.464901
0.446753
0.846829
0.454172
0.523012
0.554776
0.582355
0.430773
0.455919
0.99993
0.995954
0.988153
0.997975
0.992976
0.999098
0.988745
0.996625
0.996185
0.467846
0.452878
0.433822
0.749055
0.457284
0.449946
0.442377
0.487003
0.512389
0.451598
0.428316
0.434885
0.430411
0.997971
1
0.996314
0.988476
0.996786
0.997039
0.994732
0.568855
0.981344
0.985867
0.569584
0.971799
0.434513
0.9519
0.984873
0.892693
0.899624
0.715159
0.832878
0.970581
0.843238
0.971366
0.999264
0.904802
0.919063
0.999923
0.999722
0.999304
0.984325
0.993173
0.976204
0.974993
0.98104
0.997871
0.987413
0.988495
0.989022
0.998438
0.995722
0.997081
1
0.991632
0.994614
0.997699
0.992058
0.998424
0.971618
0.999926
0.997919
0.999944
0.997227
0.998527
0.923548
0.983285
0.937717
0.956451
0.996811
0.953167
0.997495
0.993453
0.990698
0.98927
0.990955
0.970304
0.994834
0.947263
0.978066
0.71465
0.998912
0.937138
0.890302
0.575853
0.995636
0.998102
1
0.999152
0.997018
0.682466
0.452404
0.445105
0.566111
0.588944
0.445389
0.453035
0.475477
0.433788
0.441914
0.456059
0.453533
0.431788
0.434054
1
0.997977
0.992145
0.998369
0.996458
0.998556
0.990132
0.998369
0.996003
0.449294
0.446722
0.419017
0.517092
0.440239
0.449042
0.421312
0.467603
0.496644
0.504135
0.432617
0.419338
0.408681
1
1
0.996767
0.993635
0.997754
0.994713
0.996817
0.601413
0.990124
0.994987
0.626031
0.993197
0.434245
0.992611
0.994633
0.908082
0.974994
0.943514
0.9757
0.987343
0.979193
0.795596
0.924622
0.882805
0.710476
0.715747
0.879366
0.749407
0.98551
0.993382
0.989601
0.996811
0.982378
0.992383
0.994276
0.990106
0.989611
0.898883
0.999025
0.982069
0.909544
0.789038
0.998866
0.969986
0.903371
0.866622
0.969187
0.96756
0.955954
0.982581
0.974708
0.960227
0.972514
0.985011
0.94514
0.963589
0.96221
0.984172
0.838358
0.919334
0.753337
0.525003
0.997198
0.952137
0.748494
0.606388
0.999091
0.996979
0.986584
0.995697
0.995391
0.56506
0.461594
0.486799
0.623237
0.544703
0.442482
0.665039
0.451902
0.456031
0.462781
0.531443
0.5133
0.548892
0.493039
0.994
0.994349
0.994356
0.999775
0.996427
0.996902
0.994588
0.998369
0.999092
0.441173
0.441017
0.42582
0.460464
0.433079
0.447407
0.428628
0.426404
1
1
0.996525
1
0.997057
0.998369
1
0.675841
0.99561
0.993688
0.754492
0.99155
0.428452
0.997909
0.995957
0.985706
0.993691
0.980981
0.982407
0.996556
0.99034
0.891343
0.81154
0.983399
0.985973
0.963063
0.809991
0.903977
0.997701
0.995333
0.989932
0.988527
0.990427
0.995184
0.995416
0.992938
0.99401
0.690541
0.995284
0.944075
0.736973
0.591516
0.828822
0.870712
0.798568
0.703096
0.983123
0.956234
0.973042
0.98386
0.887179
0.954839
0.964799
0.864636
0.900804
0.901503
0.657504
0.997
0.997831
0.845175
0.98685
0.998916
0.68113
0.439028
0.505172
0.475026
0.437138
0.994768
1
0.997228
0.998425
1
0.99982
0.999967
0.998144
0.999425
0.431751
0.448117
0.441435
0.482103
0.435415
0.449114
0.449331
0.432165
1
1
0.999426
1
0.998877
0.999124
0.998902
0.819231
0.989026
0.995923
0.879894
0.994842
0.464878
0.997909
0.997561
0.997471
0.997755
0.989765
0.996811
0.997407
0.995791
0.984249
0.983161
0.997801
0.994094
0.99311
0.967304
0.984386
0.994079
0.993174
0.996435
0.993624
0.995248
0.990088
0.995297
0.993981
0.993784
0.676089
0.676044
0.557619
0.978435
0.867798
0.936552
0.718446
0.51075
0.503229
0.988001
0.964043
0.947693
0.991446
0.992853
0.948634
0.725352
0.503543
0.503973
0.555353
0.481115
0.920255
0.988344
0.986255
0.908442
0.983581
0.473381
0.442574
0.532598
0.45329
0.507262
0.995954
1
0.999043
1
1
0.999128
1
1
1
0.443745
0.458134
0.454896
0.625525
0.451797
0.496944
0.463193
0.489534
1
1
0.997372
0.994732
1
0.999124
1
0.914189
1
0.995501
0.940039
0.996927
0.510617
0.994006
0.996655
1
0.997369
0.998365
1
0.997794
0.998183
0.996426
0.995007
0.992523
0.998243
0.997755
0.983549
0.989892
0.991711
0.997144
0.99994
0.99571
0.998113
0.99748
0.996525
0.999017
1
0.979273
0.98106
0.927139
0.993542
0.993932
0.992094
0.985241
0.714815
0.955461
0.992956
0.996701
0.980648
0.993382
0.995931
0.996729
0.639241
0.49807
0.915954
0.920196
0.893722
0.973551
0.995121
0.997911
0.991366
0.991442
0.653083
0.624155
0.932088
0.943508
0.595473
0.999302
0.998605
0.998549
1
0.999697
1
0.998912
1
0.998547
0.446928
0.546621
0.46613
0.876072
0.45538
0.633074
0.478826
0.482824
1
0.99993
0.999124
1
1
1
1
0.934389
0.997915
0.989733
0.928464
0.984416
0.550003
0.993937
0.995609
1
1
0.998274
0.996811
0.995744
0.99997
0.99685
0.997329
0.997471
0.998243
0.994387
0.998675
0.993935
0.99791
0.99394
0.998263
0.997468
0.999024
0.996528
0.996825
0.999017
0.997527
0.993706
0.994333
0.992467
0.993751
0.994661
0.996046
0.994736
0.990208
0.995943
0.996633
0.997911
0.992368
0.998878
1
0.994428
0.989016
0.983606
0.998488
0.995007
0.99824
0.992244
0.99849
0.996811
0.997395
0.995508
0.981315
0.714283
0.989691
0.996373
0.808514
0.997977
0.997977
0.998714
0.999663
0.999304
0.997685
1
1
1
0.491421
0.700163
0.501335
0.97643
0.53975
0.765769
0.511138
0.492344
1
1
0.998248
1
1
1
1
0.914362
0.974648
0.978923
0.903633
0.95665
0.562628
0.998327
0.997979
0.990434
0.997678
0.99997
0.996811
0.999613
1
0.998243
1
0.993403
0.99682
0.997445
0.998675
0.999303
0.99798
0.99798
0.998353
0.999434
0.999056
0.994568
0.99997
0.99568
0.998145
0.998932
0.999308
0.997943
0.998948
0.99837
1
0.997428
0.997971
0.997831
0.998297
0.995712
0.997365
0.999536
0.991533
0.996245
0.993585
0.988448
0.997751
0.998245
1
0.997031
0.996205
0.995602
0.992275
0.993224
0.995604
0.952766
0.999758
1
0.994192
0.992676
0.993373
0.997065
0.996738
0.999122
0.995761
0.999044
0.997357
0.998819
0.761569
0.813711
0.544417
0.988949
0.938529
0.878807
0.729453
0.935097
1
1
0.998248
0.99989
0.996283
0.997372
0.987269
0.847742
0.925042
0.954162
0.811412
0.897934
0.644129
1
1
0.996811
0.999265
0.997669
1
0.998878
0.999697
0.997032
0.998142
0.993623
0.996789
0.998877
0.995956
0.997978
0.99596
0.999164
1
0.999702
0.998113
0.996752
0.999431
0.995978
1
0.998932
0.999242
0.997943
0.999129
0.99837
0.997463
0.993737
0.996712
0.993984
0.998878
1
0.995033
0.997097
1
0.997184
0.997367
1
0.997752
0.998245
0.99681
0.982944
0.981684
0.993623
0.987852
0.98455
1
0.993186
0.999093
0.993626
0.999961
0.99421
0.997349
0.996142
0.993701
0.994794
0.997114
0.998714
0.996794
0.99437
0.978372
0.937458
0.908671
0.99162
0.991062
0.970052
0.969199
0.994539
0.997901
0.995942
0.996346
0.972013
0.994696
0.982996
0.949843
0.857852
0.870936
0.943533
0.954218
0.898703
0.918296
0.998397
0.997979
0.996811
0.995434
0.998304
0.996371
0.995512
0.999122
0.999122
0.997755
0.993733
0.99791
0.996632
0.995956
0.995538
0.99199
0.99394
0.998293
0.999106
0.999056
0.997088
0.998263
0.999076
0.999447
0.992919
0.999044
0.996611
0.996635
0.994043
0.999242
0.997761
0.997971
0.997272
0.994427
0.996921
0.994034
0.998839
0.99989
0.996487
0.99649
1
0.998876
0.998911
1
0.986943
0.994966
0.998021
0.990063
0.995624
1
1
0.999123
0.993626
0.997019
0.996024
0.995675
0.994724
0.998706
0.991676
0.993355
0.993108
0.991507
0.99219
0.995699
0.983612
0.985136
0.99379
0.995394
0.988842
0.989601
1
0.983559
0.989436
0.973815
0.900234
0.980178
0.963154
0.898039
0.97312
0.862596
0.956548
0.987025
0.890142
0.972555
0.999582
0.992264
0.994061
0.996634
0.997487
0.994723
0.998607
0.997033
0.994154
0.995742
0.992854
0.997819
0.998878
0.996165
0.995957
0.994358
1
0.999132
0.995472
0.999057
0.996752
0.998262
0.997974
0.999056
0.99674
0.999242
0.996823
0.996816
1
0.998847
0.99761
0.998391
0.998251
0.99555
0.997911
0.996487
0.997755
0.993623
0.999122
0.997942
1
0.99814
1
0.99692
0.995456
0.996709
0.989774
0.996425
0.997715
1
0.998877
0.99997
0.996813
1
1
0.9917
0.988922
0.993813
0.988075
0.99546
0.992942
0.989089
0.988951
0.997376
0.986013
0.992313
0.992754
0.997346
0.996504
0.995084
1
0.965227
0.988247
0.97457
0.954664
0.985443
0.963818
0.951497
0.993995
0.937653
0.977506
0.988847
0.939759
0.98579
0.99993
0.997979
0.992414
0.995087
0.996064
0.996921
0.993924
0.996336
0.995215
0.999961
0.995491
0.995547
0.993535
0.997978
0.997839
1
1
0.997364
0.996545
0.998731
0.999384
0.997723
0.997557
0.998308
1
0.997924
0.997368
0.997266
1
0.998155
0.999244
0.997971
1
0.998839
1
0.998274
0.996633
0.996811
0.99794
0.999122
0.996809
0.999961
0.999153
1
0.998728
0.996902
0.996811
0.999121
0.99334
1
1
0.999637
1
0.998219
0.991979
0.996582
0.979427
0.995501
0.992978
0.996933
0.969889
0.998369
0.992674
0.999115
0.99851
0.996723
0.998698
0.998566
0.998206
1
1
0.982161
0.997201
0.982667
0.979809
0.990862
0.987857
0.996158
0.996515
0.965106
0.993446
0.999845
0.977059
1
0.996655
0.996306
0.991425
0.993771
0.996458
0.990432
0.994659
0.996517
0.998032
0.995782
0.994722
0.99797
0.999264
0.997979
1
1
1
0.997964
0.998689
0.999187
0.998376
0.997214
1
0.998731
1
1
0.999123
0.99997
0.99837
0.99621
0.999122
1
1
1
1
0.995912
0.997755
1
0.996486
1
1
1
0.999092
1
0.996608
0.994734
1
0.999121
1
1
1
0.998246
1
0.998877
0.999791
1
0.989812
0.994094
0.996247
0.993776
0.993635
0.997469
0.997669
0.998932
0.999118
1
1
0.999298
0.999118
0.998361
1
0.997971
0.99916
0.994685
1
0.996786
0.999124
1
0.999613
1
0.99855
0.997986
1
0.997969
0.995958
0.996445
0.996702
0.989786
0.996488
0.988344
0.989397
0.995912
0.998122
0.998452
0.996921
0.99894
0.999845
0.99993
1
0.993801
0.99798
1
0.999434
0.998113
0.996752
0.995656
0.997408
0.998731
1
0.996541
0.999334
1
0.99837
0.999044
0.998941
1
1
0.998955
1
0.997366
0.997755
0.984274
0.998243
1
1
0.998876
1
1
1
0.999226
0.996701
0.999879
0.998257
1
1
1
1
1
0.998326
0.998675
0.997956
0.997807
0.99767
1
0.999373
1
1
1
1
1
1
1
1
1
1
1
1
0.999124
1
0.998877
1
1
1
1
1
1
1
1
0.988085
0.994493
1
0.996441
0.993431
1
0.995549
0.999697
0.999122
0.998877
0.996811
0.999122
0.998877
1
0.999303
0.997284
0.99596
0.995298
0.999434
0.997755
0.996752
0.997693
0.998272
0.996225
0.998427
1
0.999123
0.998558
0.999944
1
1
1
1
0.996711
0.993514
0.997396
0.997755
0.991532
0.997335
0.998245
1
1
1
1
0.997334
0.998606
0.996811
0.997394
0.997676
1
1
1
1
1
1
0.999442
0.999044
1
0.999122
1
0.998087
0.998425
1
1
1
1
1
0.999115
1
1
1
1
0.997971
1
1
1
1
1
1
0.996817
1
0.997753
1
1
0.992055
0.987873
1
0.99764
0.999425
1
0.998452
1
1
1
1
0.998243
1
0.997978
1
0.992339
0.99791
0.993321
0.996396
1
0.993504
0.997813
0.997616
1
1
0.999045
1
1
1
1
1
1
1
0.995898
0.995822
0.998486
0.998142
0.99989
1
1
1
1
1
1
0.998516
1
1
1
1
1
1
1
1
1
0.999861
1
1
0.995051
0.997427
1
1
1
0.998244
1
1
1
1
1
1
0.998361
1
0.99986
1
0.999124
1
0.998916
1
0.996817
0.998877
1
0.999124
0.998877
1
1
1
0.998676
1
0.998723
0.997487
0.996811
0.997756
0.999122
0.999122
0.998877
1
0.999637
0.999342
1
1
0.997283
0.993801
0.995089
0.994519
0.998113
0.998712
0.996794
0.998689
0.99782
1
1
0.999123
1
1
0.998682
1
1
1
0.99315
1
0.997184
0.991253
1
0.997516
1
1
1
1
1
0.999818
1
1
0.999273
0.997792
1
1
1
1
1
1
1
1
1
1
1
1
1
1
1
1
1
0.999032
1
1
1
1
1
1
1
1
1
1
1
1
1
1
1
1
1
0.994355
1
1
0.999768
0.999122
1
1
1
1
1
1
0.999122
0.999265
1
1
0.998119
0.996726
0.999371
0.996455
0.998178
0.996752
0.999131
0.99708
0.999089
1
1
0.999123
0.998287
0.999944
1
1
1
1
0.994853
1
0.997365
0.996633
0.99989
0.99679
0.999818
1
1
0.999304
1
0.996789
1
0.996811
1
0.998838
1
0.999961
1
1
1
0.997978
1
1
0.998369
1
0.999128
1
1
1
1
0.999818
1
1
1
1
1
1
1
1
1
1
1
1
1
1
1
1
1
1
1
0.997979
0.997979
1
1
1
1
1
1
1
1
1
0.999091
1
1
0.997978
0.995961
0.995959
0.997395
1
1
0.998376
0.996255
0.998272
1
1
1
1
1
1
1
0.999122
1
1
0.997717
0.991644
0.997063
0.99551
0.996811
0.998425
1
1
1
1
1
0.999122
0.998916
1
0.999121
1
1
1
1
1
1
1
1
1
1
0.998547
0.99982
0.999241
1
0.998819
1
1
1
1
1
1
1
1
1
1
1
1
0.998877
0.999426
1
1
1
1
1
1
1
1
1
1
1
0.999425
1
0.999961
0.998819
0.999152
1
1
1
1
1
1
1
0.99603
0.999401
0.999136
1
0.995015
0.998502
0.996276
0.998113
1
1
1
1
1
0.999044
1
1
1
1
1
0.998062
0.998026
1
0.998607
1
1
1
0.999122
1
1
1
0.994833
0.999091
0.999264
1
1
1
1
1
1
1
1
0.998369
1
0.998948
1
1
0.999364
1
1
1
1
1
1
1
1
1
1
0.999698
1
1
0.999124
1
1
1
1
1
1
1
0.999861
0.997979
1
1
1
1
1
1
1
1
1
1
1
1
1
0.997493
0.996795
0.995418
0.995919
0.999805
0.998376
0.997394
0.99699
0.998926
1
1
1
0.999129
1
1
0.999122
1
1
0.996633
1
1
1
0.996811
0.998243
1
1
1
1
1
0.999697
0.997367
0.996811
0.999121
1
1
1
1
1
1
1
1
1
1
1
0.99988
1
1
0.999122
1
1
1
1
1
1
1
1
1
1
1
1
1
1
1
1
1
1
1
1
1
1
0.997979
1
1
1
1
1
0.999152
1
1
1
1
1
1
1
1
0.99805
0.997095
0.998093
0.999057
0.998376
1
0.999702
1
1
1
1
1
1
1
1
1
1
0.998878
1
0.997366
0.998878
1
0.999122
1
1
1
1
1
1
0.997987
1
0.999121
0.999729
1
1
1
1
1
1
1
1
1
1
1
1
1
1
1
1
1
1
1
1
1
1
1
1
1
1
1
1
1
1
1
1
1
1
1
1
1
1
1
0.99997
1
1
1
1
1
1
1
0.999961
1
1
0.997562
0.99596
0.998772
0.997557
1
1
1
0.998272
1
1
1
1
1
1
1
1
1
1
1
1
1
0.998877
1
0.998243
1
1
1
1
1
1
0.997793
0.996811
1
0.998877
1
1
1
1
1
1
1
1
1
1
1
1
1
1
1
1
1
1
1
1
1
1
1
1
1
1
1
1
1
1
1
1
1
1
1
1
1
1
1
1
1
1
1
1
0.998916
1
1
1
1
1
0.99812
1
1
0.999196
0.998992
1
1
0.999136
0.997494
1
1
1
1
1
1
1
1
1
0.996982
0.996812
1
0.997755
1
1
1
1
1
1
1
0.999758
0.999768
1
0.998243
0.998606
1
1
1
1
1
1
0.997977
1
0.998369
1
1
1
1
1
1
1
0.998361
1
1
1
1
1
1
1
1
1
1
1
1
1
1
1
1
1
1
0.997979
1
1
1
1
1
1
1
1
1
1
1
1
1
1
0.999373
0.997841
1
0.997855
1
0.998376
1
0.999881
1
1
1
1
1
1
1
1
1
1
1
1
1
1
1
0.999122
1
1
1
1
1
0.999485
0.998645
1
1
1
1
1
1
1
1
1
1
1
1
1
1
1
1
1
1
1
1
1
1
1
1
1
1
1
1
1
0.998877
1
1
1
1
1
1
1
1
1
1
1
1
1
1
1
1
1
1
1
1
1
1
1
0.99596
1
1
0.998242
1
1
1
1
1
1
1
1
1
1
1
1
1
1
1
1
1
1
1
0.999122
1
1
1
1
1
0.999061
0.998954
1
1
1
1
1
1
1
1
1
1
1
1
1
0.99988
1
0.998594
1
1
1
1
1
1
1
1
1
1
1
1
1
1
1
1
1
1
1
1
1
1
1
1
1
1
1
1
1
1
1
1
1
1
1
1
1
1
1
1
1
1
1
0.999131
1
1
1
1
1
1
1
1
1
1
1
0.998878
1
0.999122
1
1
1
1
1
1
1
1
0.999122
1
1
1
1
1
1
1
1
1
1
0.999303
1
1
1
0.999128
1
1
1
1
1
1
1
1
1
1
1
1
1
1
1
1
1
1
1
1
1
1
1
1
1
1
1
1
1
1
1
1
1
1
1
1
1
1
1
1
1
1
1
1
0.999664
0.999611
1
1
1
1
1
1
1
1
1
1
1
1
1
0.999122
1
1
1
1
1
1
1
1
1
1
1
1
1
1
1
1
1
1
0.998674
1
1
1
1
1
1
1
1
1
1
1
1
1
1
1
1
1
1
1
1
1
1
1
1
1
1
1
1
1
1
1
1
1
1
1
1
1
1
1
1
1
1
1
1
1
1
0.99982
1
1
1
1
1
1
1
1
1
1
1
1
1
1
1
0.998878
1
1
1
1
1
1
1
1
1
1
1
1
1
1
1
1
1
1
1
1
1
1
1
1
1
1
0.999044
1
1
1
1
1
1
1
1
1
1
1
1
1
1
1
1
1
1
1
1
1
1
1
1
1
1
1
1
1
1
1
1
1
1
1
1
1
1
1
1
1
1
1
1
1
1
1
1
1
1
1
1
1
1
1
1
1
1
1
1
1
0.999122
1
1
1
1
1
1
1
1
1
1
1
1
1
1
1
1
1
1
1
1
1
1
1
1
1
1
1
1
1
1
1
1
1
1
1
1
1
1
1
1
1
1
1
1
1
1
1
1
1
1
1
1
1
1
1
1
1
1
1
1
1
1
1
1
1
1
1
1
1
1
1
1
1
1
1
1
1
1
1
1
1
1
1
1
1
1
1
1
1
1
1
1
1
1
1
1
1
1
1
1
1
1
1
0.999122
1
1
1
1
1
1
1
1
1
1
1
1
1
0.999301
1
1
0.999264
1
1
1
1
1
1
1
1
1
1
1
1
1
1
1
1
1
1
1
1
1
1
1
1
1
1
1
0.999057
1
1
1
1
1
1
1
1
1
1
1
1
1
1
1
1
1
1
1
1
1
1
1
1
1
1
0.9989
1
1
1
1
1
1
1
1
1
1
1
1
1
1
1
1
1
1
1
1
1
1
1
1
1
1
1
1
1
1
1
1
1
1
1
1
1
1
1
1
1
1
1
1
1
1
1
1
1
1
1
1
1
1
1
1
1
1
1
1
1
1
1
1
1
1
1
1
1
1
1
1
1
1
1
1
1
1
1
1
1
0.999121
1
1
1
1
1
1
1
1
1
1
1
1
1
0.999122
1
1
1
1
1
1
1
1
1
1
1
1
1
1
1
1
1
1
1
1
1
1
1
1
1
1
1
1
1
1
1
1
1
1
1
1
1
1
1
1
0.99798
1
1
1
1
1
1
1
1
1
1
1
1
1
1
1
1
1
1
1
1
1
1
1
1
1
1
1
1
1
1
1
1
1
1
1
1
1
1
1
1
1
1
1
1
1
1
1
1
1
1
1
1
1
1
1
1
1
1
1
1
1
1
1
1
1
1
1
1
1
1
1
1
1
1
1
1
1
1
1
1
1
1
1
1
1
1
1
1
1
1
1
1
1
1
1
1
1
1
1
1
1
1
1
1
1
1
1
1
1
1
1
1
1
1
1
1
1
1
1
1
1
1
1
1
1
1
1
1
1
1
1
1
1
1
1
1
1
1
1
1
1
1
1
1
1
1
1
1
1
1
1
1
1
1
1
1
1
1
1
1
1
1
1
1
1
1
1
1
1
0.999131
1
1
1
1
1
1
1
1
1
1
1
1
1
1
1
1
1
1
1
1
1
1
1
1
1
1
1
1
1
1
1
1
1
1
1
1
1
1
1
1
1
1
1
1
1
1
1
1
1
1
1
1
1
1
1
1
1
1
1
1
1
1
1
1
1
1
1
1
1
1
1
1
1
1
0.999122
1
1
1
1
1
1
1
1
1
1
1
1
1
1
1
1
1
1
1
1
1
1
1
1
1
1
1
1
1
1
1
1
1
1
1
1
1
1
1
1
1
1
1
1
1
1
1
1
1
1
1
1
1
1
1
1
1
1
1
1
1
1
1
1
1
1
1
1
1
1
1
1
1
1
1
1
1
1
1
1
1
1
1
1
1
1
1
1
1
1
1
1
1
1
1
1
1
1
1
1
1
1
1
1
1
1
1
1
1
1
1
1
1
1
1
1
1
1
1
1
1
1
1
1
1
1
1
1
1
1
1
1
1
1
1
1
1
1
1
1
1
1
1
1
1
1
1
1
1
1
1
1
1
1
1
1
1
1
1
1
1
1
1
1
1
1
1
1
1
1
1
1
1
1
0.99798
1
1
1
1
1
1
1
1
1
1
1
1
1
1
1
1
1
1
1
1
1
1
1
1
1
1
1
1
1
1
1
1
1
1
1
1
1
1
1
1
1
1
1
1
1
1
1
1
1
1
1
1
1
1
1
1
1
1
1
1
1
1
1
1
1
1