/*--------------------------------*- C++ -*----------------------------------*\
| =========                 |                                                 |
| \\      /  F ield         | OpenFOAM: The Open Source CFD Toolbox           |
|  \\    /   O peration     | Version:  5.x                                   |
|   \\  /    A nd           | Web:      www.OpenFOAM.org                      |
|    \\/     M anipulation  |                                                 |
\*---------------------------------------------------------------------------*/
FoamFile
{
    version     2.0;
    format      ascii;
    class       volScalarField;
    location    "8";
    object      p;
}
// * * * * * * * * * * * * * * * * * * * * * * * * * * * * * * * * * * * * * //

dimensions      [0 2 -2 0 0 0 0];

internalField   nonuniform List<scalar> 
10571
(
288.11
245.269
219.201
243.182
324.672
207.968
184.35
196.22
249.407
287.009
201.689
201.795
194.603
179.297
195.877
254.822
205.039
197.753
178.733
170.467
213.587
171.405
152.716
184.321
169.378
146.438
135.452
157.211
189.952
161.549
136.317
163.87
146.836
204.145
191.183
190.056
114.451
149.445
132.157
163.753
180.832
110.353
112.496
137.185
128.35
109.354
137.557
98.8763
65.0086
86.3579
99.6028
91.0002
106.085
81.9231
108.543
106.871
85.9434
109.566
66.2235
107.76
83.1169
94.7244
82.7814
87.2085
76.2361
81.2647
86.5658
81.9328
78.4938
74.1788
80.44
81.5941
57.9346
57.9858
59.8851
55.9292
59.3276
56.4898
73.6884
65.6648
66.0616
68.1743
58.6077
57.6913
68.937
63.8642
68.8857
69.7209
57.9901
64.6104
67.2669
71.4134
69.4597
63.0198
70.6242
71.8628
56.0841
54.3855
54.3997
55.1612
54.9302
55.9673
53.9135
52.492
57.2097
60.679
56.5892
55.7261
61.0891
56.5225
60.8566
64.9692
56.3674
57.4185
53.825
66.7243
68.4785
59.3506
59.5557
64.2503
54.1413
53.524
53.6079
53.8386
53.2271
54.1622
52.3063
52.6136
52.3606
55.3063
53.7819
54.9104
54.9538
53.6201
53.4215
53.6658
59.3808
53.8406
54.363
55.0853
54.0381
54.8309
64.5647
56.5374
57.0352
59.4573
53.3098
52.5376
52.9172
52.9562
52.467
52.2008
52.7349
52.845
52.7353
52.5524
52.447
52.5834
52.8056
52.8285
52.8745
52.9599
52.9979
52.4194
53.6848
53.6608
52.9108
52.8135
52.5727
52.2638
54.2453
53.7825
56.3607
52.8328
52.503
52.7374
52.5753
52.2151
52.3023
52.5644
52.4154
52.4207
52.3136
52.1505
52.1927
52.1434
52.5723
52.3789
52.1863
52.0981
52.0972
52.5687
52.7801
52.1024
52.0613
52.5018
52.1309
52.8511
52.1363
50.9472
52.5778
52.4824
52.5807
52.3735
52.1177
52.327
52.3272
52.1652
52.121
51.965
52.0898
52.3966
52.2319
52.3625
52.0998
51.9123
51.932
51.9053
52.046
52.3644
51.8862
51.7262
51.8076
52.3531
52.023
51.6955
52.4174
52.4048
52.4383
52.2882
52.1275
52.2812
52.2208
52.087
51.9538
51.8654
52.3404
52.2013
52.2694
51.9941
51.9074
51.8246
52.0692
52.2253
51.815
51.721
51.767
52.1312
52.0041
51.8159
52.3192
52.3262
52.316
52.2242
52.1151
52.2407
52.1843
52.0211
51.8099
51.8911
52.2729
52.1191
52.1944
51.9746
51.9025
51.832
52.0623
52.1738
51.803
51.7184
51.7975
52.0493
51.9352
51.7531
52.2065
52.2408
52.2101
52.1234
52.0897
52.179
52.1251
51.9626
51.7649
51.9045
52.1838
52.0385
52.1144
51.9781
51.9333
51.8793
52.0023
52.1098
51.8398
51.7759
51.8372
52.0098
51.9449
51.7721
52.1107
52.1501
52.1152
52.0169
52.0603
52.0953
52.0445
51.9162
51.7693
51.9131
52.184
51.9799
52.0201
51.9538
51.9242
51.9142
52.0065
52.0229
51.892
51.799
51.8676
51.9844
51.947
51.7869
52.0348
52.0657
52.0364
51.9485
51.9997
52.013
51.973
51.8895
51.7538
51.9082
52.0865
51.9002
51.9205
51.9075
51.8817
51.9363
51.98
51.9391
51.9034
51.8097
51.8818
51.941
51.9502
51.8145
51.9843
51.986
51.9601
51.9013
51.9441
51.9325
51.9122
51.8683
51.7331
51.8952
52.0167
51.8172
51.8315
51.8397
51.8159
51.9386
51.9249
51.8491
51.8646
51.8031
51.8652
51.8803
51.9374
51.8115
51.9898
51.915
51.8871
51.8628
51.9043
51.8631
51.8468
51.8304
51.7274
51.8615
51.9357
51.7558
51.7585
51.7586
51.7311
51.8584
51.8735
51.7674
51.7977
51.7718
51.8058
51.8189
51.8994
51.7936
52.011
51.8534
51.8344
51.8518
51.8566
51.8026
51.7842
51.7852
51.6937
51.7863
51.8749
51.7083
51.7057
51.6812
51.6624
51.741
51.8122
51.6827
51.7157
51.7014
51.7341
51.7643
51.8265
51.7466
51.9692
51.7965
51.7813
51.8013
51.7832
51.739
51.7536
51.7231
51.6642
51.7158
51.8268
51.6711
51.6809
51.6188
51.6285
51.6494
51.7545
51.6066
51.6331
51.6567
51.6746
51.7129
51.7142
51.7009
51.8513
51.7578
51.7727
51.7418
51.7178
51.6684
51.7157
51.6756
51.6511
51.6748
51.7683
51.6423
51.6482
51.5817
51.6086
51.6206
51.7096
51.5579
51.5683
51.6249
51.6454
51.6575
51.6185
51.6758
51.7247
51.7186
51.7868
51.666
51.6707
51.6051
51.6752
51.6335
51.6299
51.6675
51.7146
51.6116
51.5963
51.5543
51.5792
51.6146
51.667
51.5178
51.5156
51.5801
51.6196
51.6127
51.56
51.6394
51.6273
51.6468
51.715
51.5946
51.6354
51.4819
51.5895
51.5753
51.598
51.6425
51.6548
51.5636
51.5449
51.5109
51.5434
51.5931
51.6239
51.4749
51.4582
51.5338
51.5869
51.5769
51.5401
51.5896
51.5581
51.5733
51.5757
51.5402
51.5657
51.4061
51.5173
51.531
51.5779
51.5941
51.6109
51.5135
51.5026
51.465
51.5144
51.5695
51.5815
51.4274
51.3967
51.4856
51.5405
51.5509
51.5174
51.5452
51.5183
51.4535
51.4771
51.5063
51.5042
51.3878
51.4576
51.5074
51.5502
51.545
51.5521
51.4521
51.4673
51.4355
51.4888
51.5342
51.5334
51.374
51.343
51.4354
51.5048
51.5136
51.4688
51.502
51.4891
51.3792
51.4672
51.4807
51.4715
51.3397
51.3948
51.4928
51.4932
51.4983
51.4909
51.4162
51.4463
51.4207
51.4635
51.489
51.4834
51.3187
51.3032
51.3796
51.482
51.4559
51.411
51.4563
51.462
51.4469
51.4621
51.4695
51.4456
51.2239
51.3406
51.4659
51.4164
51.4465
51.4675
51.3927
51.4404
51.4198
51.4291
51.4415
51.4534
51.2652
51.2605
51.3176
51.4619
51.3927
51.3396
51.4008
51.4181
51.6749
51.4425
51.4346
51.3998
51.1685
51.3538
51.411
51.3469
51.3801
51.4427
51.3171
51.4038
51.4062
51.3695
51.3637
51.4109
51.2221
51.2028
51.2501
51.4261
51.3232
51.2474
51.3327
51.3541
51.471
51.3804
51.357
51.3308
51.2945
51.3151
51.3198
51.2673
51.2956
51.3638
51.2313
51.3104
51.3596
51.29
51.2755
51.344
51.1787
51.1446
51.1845
51.3631
51.2428
51.1641
51.2603
51.2688
51.2817
51.2663
51.256
51.2441
51.2959
51.2038
51.1973
51.1758
51.2032
51.2588
51.1798
51.1917
51.3054
51.1985
51.1928
51.2669
51.1086
51.0905
51.114
51.2638
51.1623
51.0911
51.1803
51.1654
51.1708
51.1298
51.1461
51.1472
51.1553
51.0732
51.0636
51.0858
51.1124
51.1328
51.0984
51.0842
51.2302
51.0869
51.1143
51.1795
51.0386
51.0231
51.0423
51.1568
51.0856
51.0298
51.1017
51.0523
51.0266
50.9993
51.0323
51.047
50.9994
50.9564
50.9359
50.9996
51.0253
51.0268
51.0195
51.0261
51.1133
50.9857
51.0293
51.11
50.9878
50.918
50.9561
51.0525
51.0154
50.9544
51.0148
50.9417
50.8968
50.8758
50.9247
50.951
50.9222
50.8766
50.8354
50.9222
50.9457
50.957
50.9801
51.019
51.0113
50.9234
50.9478
51.0696
50.9486
50.798
50.871
50.9639
50.9521
50.8683
50.9254
50.8442
50.8104
50.7829
50.8311
50.8658
50.8714
50.8178
50.7751
50.8525
50.8742
50.9315
50.9739
51.0302
50.941
50.8735
50.8696
51.0332
50.9019
50.7118
50.7949
50.8801
50.9039
50.7911
50.8423
50.7585
50.7416
50.7028
50.7497
50.7927
50.821
50.7675
50.7481
50.789
50.8074
50.9231
50.9705
51.0225
50.8716
50.7996
50.7947
50.9768
50.8487
50.6946
50.7288
50.8023
50.8569
50.722
50.7681
50.686
50.6958
50.6404
50.6791
50.7308
50.7681
50.7194
50.7258
50.7254
50.7445
50.8939
50.9124
50.9549
50.802
50.7124
50.7242
50.9158
50.7903
50.694
50.6739
50.7279
50.8022
50.6772
50.7158
50.6291
50.6549
50.5255
50.6149
50.6784
50.672
50.6413
50.6959
50.665
50.6859
50.8168
50.8035
50.8364
50.7203
50.6185
50.641
50.846
50.6953
50.6634
50.618
50.6479
50.7419
50.6517
50.683
50.6023
50.6311
50.473
50.5822
50.6378
50.597
50.6165
50.6637
50.6149
50.6387
50.7015
50.636
50.7194
50.6399
50.5232
50.5541
50.7505
50.6005
50.6245
50.5512
50.5687
50.6808
50.6315
50.6572
50.6064
50.674
50.5467
50.5903
50.6103
50.6365
50.629
50.6345
50.5799
50.6103
50.5886
50.5215
50.6524
50.5868
50.4368
50.4827
50.6637
50.5943
50.6132
50.4814
50.4985
50.6463
50.6263
50.6345
50.6041
50.6138
50.6224
50.5963
50.5961
50.5602
50.5906
50.6107
50.5655
50.6107
50.5212
50.5192
50.5848
50.5597
50.3829
50.4514
50.5738
50.6472
50.6529
50.4368
50.465
50.6449
50.6359
50.6127
50.567
50.3624
50.5263
50.5507
50.6008
50.2906
50.4326
50.5918
50.5692
50.6408
50.4163
50.3539
50.4619
50.5464
50.3787
50.4736
50.4406
50.6925
50.7127
50.4455
50.4863
50.6291
50.6453
50.6073
50.5432
50.0831
50.3028
50.5037
50.6383
49.8252
50.2073
50.5965
50.6049
50.6951
50.1871
50.0006
50.3073
50.5318
50.421
50.5431
50.3635
50.7054
50.7477
50.4802
50.5553
50.576
50.6516
50.6206
50.6171
50.1267
50.1243
50.5482
50.7202
49.706
50.1229
50.675
50.6821
50.7709
49.9856
49.5709
50.1995
50.5504
50.5015
50.6415
50.2064
50.7044
50.7382
50.5446
50.6467
50.5652
50.6577
50.6512
50.8089
50.6295
50.4019
50.715
50.8375
50.0198
50.4112
50.7832
50.7878
50.861
50.0179
49.3713
50.3025
50.601
50.5992
50.7555
50.0014
50.6931
50.6874
50.6278
50.7502
50.6199
50.6799
50.6907
51.0278
51.3927
51.0329
50.9426
50.9576
51.0361
50.8154
50.9157
50.894
50.9515
50.4752
49.6542
50.5331
50.6808
50.6981
50.8519
49.9064
50.7183
50.6412
50.7093
50.8431
50.7262
50.709
50.7322
51.1612
52.1419
51.4981
51.1033
51.0533
52.1621
51.0647
51.0203
50.9829
51.0357
51.7292
50.609
50.7883
50.7817
50.8074
50.936
50.4831
50.8343
50.625
50.7854
50.9881
50.8437
50.7492
50.7805
51.2303
52.126
51.5444
51.1803
51.1401
52.2315
51.0237
51.0878
51.0716
51.1205
52.1654
51.8931
50.9775
50.8917
50.929
51.0127
51.0513
50.8995
50.6643
50.8525
50.9999
50.9167
50.801
50.8335
51.3166
51.7925
51.47
51.2571
51.2475
51.8166
50.9779
51.1638
51.1869
51.2287
51.9913
51.7874
51.0856
50.9546
51.0521
51.1163
51.2331
50.9191
50.7866
50.9373
51.0613
50.9525
50.8785
50.9258
51.4316
51.5706
51.4492
51.3693
51.3885
51.4829
51.1253
51.2861
51.3397
51.3823
51.726
51.0775
51.099
51.0256
51.1821
51.262
51.1163
50.9689
50.9482
50.9916
51.1427
51.0526
51.0299
51.0924
51.5819
51.5034
51.5158
51.5115
51.5549
51.3262
51.3419
51.4694
51.54
51.5779
51.0404
50.6705
51.1938
51.1871
51.3875
51.4749
50.9408
51.0962
51.1523
51.1823
51.3422
51.199
51.2836
51.3817
51.7586
51.5727
51.6628
51.6812
51.7388
51.3493
51.6307
51.697
51.7684
51.8031
50.6299
50.6582
51.3944
51.4688
51.6482
51.7406
50.9667
51.3699
51.5568
51.512
51.6753
51.5342
51.6688
51.7379
51.9439
51.7464
51.8586
51.868
51.9302
51.543
51.925
51.9373
51.9937
52.0329
50.8334
50.8991
51.6621
51.839
51.9034
52.0345
51.373
51.8634
51.9893
51.8863
52.0446
52.1021
52.1232
52.0451
52.1249
51.9824
52.0615
52.0585
52.1108
51.8768
52.1941
52.1536
52.1888
52.2302
51.5426
51.5143
52.0437
52.1384
52.1189
52.3083
52.1379
52.4588
52.3537
52.1931
52.3719
52.7698
52.554
52.3617
52.2867
52.2144
52.2369
52.2323
52.2597
52.2195
52.4082
52.3039
52.319
52.3832
52.2915
52.264
52.4064
52.334
52.2567
52.5426
52.6878
52.6706
52.5144
52.3612
52.5553
52.9763
52.7334
52.6096
52.4117
52.3883
52.3712
52.3753
52.3678
52.4357
52.5095
52.3927
52.3925
52.4908
52.6054
52.5874
52.5592
52.4324
52.3653
52.6788
52.8952
52.6723
52.4609
52.3616
52.6191
52.8551
52.6423
52.6087
52.4915
52.5042
52.4656
52.4596
52.4328
52.535
52.553
52.439
52.415
52.4801
52.6654
52.6523
52.575
52.4646
52.4402
52.637
52.7986
52.6167
52.4076
52.3589
52.6618
52.697
52.4792
52.5062
52.5288
52.5767
52.53
52.5127
52.4673
52.6039
52.5706
52.4511
52.4041
52.4206
52.6774
52.6575
52.5689
52.4744
52.4209
52.5008
52.6964
52.5764
52.391
52.3621
52.5487
52.5984
52.4143
52.4265
52.5224
52.6261
52.5569
52.4849
52.4592
52.6634
52.5949
52.4415
52.3716
52.3412
52.693
52.673
52.565
52.4782
52.3377
52.3589
52.6754
52.586
52.3906
52.3682
52.3949
52.5675
52.4193
52.3879
52.4918
52.6651
52.5803
52.3889
52.3943
52.7168
52.6083
52.3979
52.2632
52.2439
52.7204
52.6989
52.5861
52.4484
52.2121
52.2161
52.6945
52.6136
52.4024
52.3369
52.2692
52.5928
52.4557
52.371
52.4762
52.7037
52.6382
52.3439
52.2642
52.7352
52.606
52.3192
52.0767
52.0624
52.7479
52.7271
52.6223
52.3899
52.0328
51.9836
52.739
52.655
52.4241
52.2393
52.0821
52.6555
52.5308
52.3533
52.5127
52.7586
52.7345
52.4002
52.1065
52.7354
52.6032
52.2401
51.7579
51.7638
52.7959
52.7637
52.6555
52.2992
51.7841
51.5956
52.8151
52.7433
52.4445
52.11
51.8218
52.7586
52.5957
52.3378
52.5817
52.8427
52.8097
52.4867
51.9959
52.7875
52.6038
52.1364
51.2179
51.1553
52.9016
52.8531
52.6858
52.1699
51.2988
50.7889
52.9448
52.8671
52.4931
51.9215
51.3586
52.9029
52.7095
52.4267
52.6786
52.9405
52.8576
52.5657
51.9295
52.8858
52.5589
51.9508
50.3139
49.9273
53.1217
52.977
52.7031
51.9767
50.6093
48.8564
53.1185
53.0434
52.508
51.6901
50.4908
53.1345
52.8194
52.4477
52.7174
53.0264
52.8427
52.4874
51.7543
52.9508
52.4741
51.6781
49.1228
46.9308
53.334
53.1846
52.7216
51.7152
49.7052
44.3473
53.3333
53.2666
52.5214
51.3487
48.7796
53.4333
52.9908
52.4241
52.7211
53.1536
52.6716
52.3675
51.4871
52.8213
52.2937
51.23
48.0043
39.2812
53.4242
53.1874
52.7152
51.3894
48.8201
38.9089
-27.0145
53.5656
53.5278
52.6126
50.9369
45.1079
53.7521
53.2109
52.4918
52.7081
53.0344
52.4828
52.2291
51.3709
52.6771
52.1725
51.0991
47.7377
32.8678
1.32485
53.3559
53.2101
52.6563
51.4147
48.4924
38.813
4.41654
53.7728
53.6579
52.7263
50.7479
40.3784
53.813
53.3367
52.6561
52.7151
52.5981
52.4866
52.2462
51.631
52.4459
52.1322
51.3303
49.0634
38.4255
12.6445
53.0892
52.9286
52.5086
51.6472
49.4498
40.7799
13.8689
53.6686
53.4363
52.7432
51.283
42.8354
15.1268
53.5608
53.0817
52.7727
52.8115
52.2343
52.2999
52.3767
52.297
52.1324
51.9563
51.5956
50.9794
43.8877
16.4483
52.6682
52.5637
52.2476
51.825
51.132
43.6793
15.9469
53.2204
52.9988
52.7749
51.744
46.7811
53.1619
53.0072
52.7251
52.6766
51.9611
51.9846
52.2911
52.7155
51.8456
51.7505
51.6944
51.7386
51.3938
52.2403
52.1132
52.0055
51.7408
51.3917
47.4962
-1.60455
52.7035
52.5152
52.2224
51.8416
50.0919
52.7483
52.716
52.6088
52.2921
51.7437
51.7626
51.9915
52.4681
51.6557
51.5273
51.4531
51.4944
52.6813
51.9081
51.8159
51.7386
51.311
50.7984
50.2013
52.2546
52.0109
51.6825
51.3335
50.6693
52.3277
52.1804
51.958
51.9175
51.6088
51.5483
51.683
51.9993
51.4563
51.214
51.1512
50.9798
51.7685
51.6357
51.6055
51.3894
50.9538
50.4546
50.2457
51.9249
51.665
51.3014
50.8375
50.3363
51.9933
51.7711
51.4549
51.6704
51.3149
51.2977
51.4555
51.6644
51.1581
50.9101
50.9588
50.809
51.2875
51.415
51.3553
51.171
50.8357
50.5252
50.493
51.7306
51.5376
51.2225
50.8261
50.8073
51.8308
51.6635
51.3787
51.6166
51.0257
51.092
51.3845
51.603
50.7765
50.699
50.9645
51.0329
51.4348
51.2544
51.1207
51.0629
50.96
50.9165
50.9905
51.693
51.6094
51.4282
51.1951
51.3188
51.8775
51.7897
51.6145
51.8393
50.8346
51.0734
51.5678
51.8412
50.5221
50.5474
51.0554
51.2984
51.7309
51.2902
51.0336
50.9628
51.1203
51.2626
51.4537
51.8831
51.8564
51.7614
51.6147
51.7559
52.1047
52.0861
51.9943
52.4114
51.0143
51.5187
52.0682
52.3892
50.5403
50.723
51.3233
51.6611
52.188
51.6648
51.3271
51.0963
51.3937
51.5779
51.8209
52.2623
52.2573
52.2163
52.0093
52.1135
52.502
52.4946
52.4404
53.274
51.8954
52.4474
52.7991
53.2036
51.0659
51.2744
51.6912
52.1167
52.9322
52.4006
51.9519
51.3979
51.4926
51.7671
52.2401
52.8075
52.4842
52.3777
52.3596
52.4739
52.9501
52.8985
52.923
53.8245
52.6443
52.9475
53.1821
53.5721
51.7295
51.8239
52.0696
52.4428
53.4424
52.9508
52.3645
51.8666
51.8857
52.1174
52.6458
52.9734
52.7582
52.6496
52.5819
52.7884
53.0907
53.088
53.017
284.173
335.034
272.983
334.546
370.214
391.29
391.343
398.928
266.914
276.164
283.028
265.844
236.52
261.497
295.07
224.953
266.013
304.755
328.745
282.577
258.825
411.505
403.828
342.846
385.571
350.788
260.461
221.755
223.478
244.573
215.025
216.065
210.249
207.817
218.2
205.787
193.919
247.053
252.404
223.736
249.508
297.079
329.585
275.245
304.677
335.623
317.383
293.008
225.815
231.476
222.158
222.414
209.538
210.233
210.992
204.08
197.913
208.426
200.044
205.361
220.994
206.004
215.017
246.252
266.962
227.986
259.547
283.796
278.242
295.578
215.02
207.968
210.88
215.181
232.763
211.652
198.381
223.252
172.862
211.393
214.315
188.184
223.17
210.622
240.763
232.901
232.435
263.737
250.769
252.963
182.577
178.859
177.444
224.086
170.057
221.87
241.787
200.928
260.597
239.475
255.277
215.517
215.581
214.557
286.443
308.363
224.459
228.875
249.95
331.155
257.111
231.022
200.502
230.984
236.933
212.42
194.453
179.029
193.025
169.915
339.242
262.809
318.085
246.729
257.527
200.112
243.849
302.513
251.797
217.395
204.03
205.798
195.088
204.718
203.272
269.991
262.79
247.764
247.545
252.196
207.088
204.029
208.287
206.856
205.979
253.926
243.472
224.313
233.067
181.963
205.226
202.099
208.096
204.842
199.959
200.989
193.152
187.038
147.656
191.323
183.292
192.507
162.172
144.69
156.173
145.76
158.529
193.292
126.723
158.824
153.815
138.918
157.417
153.103
168.526
147.028
145.784
139.88
147.903
134.944
152.275
107.676
161.835
162.57
153.028
109.538
101.476
103.383
170.95
188.732
117.52
120.001
132.589
192.928
141.501
155.753
95.8256
141.987
151.147
145.687
110.035
116.829
116.477
132.7
197.397
164.894
193.175
144.835
151.126
137.188
148.629
207.059
154.272
160.246
185.424
188.846
91.6741
121.273
129.319
189.674
187.528
150.289
133.167
134.47
190.718
190.979
131.403
145.967
147.369
170.597
142.689
115.743
121.136
112.464
180.091
121.66
141.875
144.541
97.2569
131.66
96.8547
82.4364
76.1373
121.207
110.088
108.519
101.809
102.754
86.7864
89.4338
102.225
91.9853
79.1311
140.994
139.899
85.7712
101.924
109.384
107.776
139.014
108.957
88.9063
114.159
87.6779
90.1767
74.5327
69.4578
83.8427
79.2564
59.9756
68.6782
59.9765
67.3321
72.809
57.5204
56.7005
56.0036
96.7401
63.7132
66.6919
59.6178
98.6186
77.1124
116.017
67.3678
76.4925
59.1856
82.893
113.638
112.275
112.692
74.1896
84.6395
76.7892
82.9005
115.23
87.0077
64.9342
68.8483
71.3584
59.8571
58.8913
58.6893
89.9249
94.4944
80.3236
72.7413
75.1987
72.4999
71.3438
57.9981
58.116
57.7003
87.5889
87.0268
75.3289
75.3009
73.2179
65.2637
58.5001
74.1925
67.3381
69.2136
60.0404
65.7302
64.9017
65.9619
79.4991
77.0209
78.2373
74.0813
70.3484
73.6856
73.9471
71.0003
72.5935
67.5603
79.4309
81.5483
67.6204
73.2245
73.6438
81.8319
82.0282
78.5218
77.8679
77.2718
76.7955
59.8518
54.5911
58.1048
58.3749
56.1159
57.5991
55.2994
56.5727
57.6559
56.3185
57.327
57.1958
56.095
56.8806
56.0723
58.1198
56.9301
59.3816
56.0825
58.1714
55.4281
54.9428
56.1413
54.5369
67.1993
61.5495
67.4977
56.445
60.1112
57.5124
60.3751
69.7466
62.2166
58.733
58.5096
58.1324
57.6411
57.325
57.4506
67.3948
68.0102
63.2821
64.7642
65.0982
58.1645
58.159
57.706
57.6852
57.7252
70.1522
68.5865
66.8694
67.0936
67.0301
58.907
58.0351
61.2125
63.3155
63.2667
57.2963
58.8727
61.4131
60.7379
69.3208
71.4146
71.4759
70.783
69.4417
68.6226
69.3592
68.6304
63.7636
61.0281
65.7325
65.6787
60.8417
60.6999
61.0939
71.3636
69.4111
61.9406
65.0907
62.5031
67.8319
54.2602
54.1197
56.2734
54.8472
55.8247
54.9752
54.4819
54.7755
55.9662
55.1887
54.9628
54.8484
54.3798
55.078
54.1823
55.8925
55.0557
54.0733
55.4886
54.2744
54.0847
53.8213
54.609
53.7498
56.6044
54.976
56.5153
54.1208
55.1114
53.9623
54.6566
58.3914
56.7206
56.4552
56.1626
56.3227
55.5227
55.3026
55.2896
62.8631
62.4811
59.279
62.2037
61.011
56.5442
56.6368
55.5686
55.6085
55.6502
64.4974
65.6502
64.294
62.327
65.2836
56.9381
55.7676
57.0355
59.2722
58.5406
55.1641
54.5422
57.3316
56.8962
69.5891
65.6905
66.8827
59.0192
67.1884
62.9684
64.4148
68.193
59.1678
57.6487
59.0847
59.0073
57.897
57.7323
57.5585
61.6304
59.7568
58.2984
59.6424
57.9574
61.492
53.799
53.377
54.0932
54.0326
53.9958
53.6
53.6038
53.5107
54.0502
53.7755
53.6454
53.5575
53.3326
53.3874
52.9614
54.36
52.9424
53.4341
53.6745
53.1807
52.8227
53.0588
52.5699
52.7082
53.5376
53.4882
53.6464
52.7109
52.9531
53.0353
53.1654
54.4605
53.1043
54.9127
54.6014
54.6948
53.5719
53.2738
53.3443
55.7361
56.7287
58.9811
52.4846
53.2751
52.1288
52.6407
53.0025
53.8171
53.2223
53.1593
52.6522
52.4825
52.9468
54.9932
54.8589
53.8631
54.0559
54.1963
60.2103
61.4998
56.188
52.6725
52.8314
53.4093
52.9669
53.1333
53.3889
52.7511
52.3892
52.7526
52.3561
52.3616
54.8528
54.3852
52.8512
55.9448
55.6004
54.0653
52.8252
54.7915
54.5944
59.5912
60.2208
61.2884
53.2025
53.5893
57.8245
58.0309
55.0374
56.038
54.762
56.2578
56.2002
55.3145
54.9805
55.0416
58.1034
56.5231
55.5358
56.9362
55.0933
58.1199
53.0637
52.8685
53.2769
53.2775
53.2158
53.0431
53.0586
53.0154
53.2315
52.9904
53.0322
52.9683
52.7452
52.7305
52.5381
52.0388
52.2139
52.8175
52.0962
52.4898
52.5046
52.6903
52.216
52.4486
52.5987
52.729
52.7749
52.3136
52.3222
52.4958
52.4418
52.7725
52.9286
52.5057
52.4148
52.5583
52.2578
52.1591
52.2508
52.0627
52.1922
52.0096
52.0617
52.0495
52.0209
52.6205
52.899
52.6381
52.4675
52.3151
52.6901
52.4039
52.4238
52.378
52.4962
52.2185
52.2823
52.2373
52.3051
52.6549
53.2332
52.1319
52.0709
52.2868
52.6591
52.6024
52.3908
52.6813
52.5385
52.7502
52.4027
52.4811
52.2373
52.3403
52.3523
52.4821
52.2697
52.2999
53.7687
52.8735
52.8849
53.9174
53.9374
53.1332
52.7789
53.3094
53.4528
52.7655
55.8125
56.0368
52.8026
53.4902
54.0635
55.9156
52.2316
53.0125
52.3076
52.3363
52.2748
52.3652
53.9681
53.336
53.9877
54.0475
53.3289
53.3158
53.3757
55.0123
53.6189
52.5476
52.2924
52.6566
53.221
52.7469
52.6726
52.8903
52.9058
52.8696
52.7818
52.7876
52.7449
52.7751
52.5872
52.6951
52.6444
52.4909
52.4105
52.358
52.3422
52.3689
52.6222
52.3657
52.4574
52.5015
52.5824
52.4081
52.4602
52.1623
52.3027
52.1756
52.1587
52.0695
52.1775
51.9699
52.2078
52.0574
52.024
52.0342
52.1368
52.2187
52.0836
52.2124
52.2829
52.2371
52.2339
52.3359
52.3317
52.3057
52.0524
52.176
52.0032
51.9561
52.0072
51.8643
51.9497
52.2531
52.0649
52.142
52.1029
52.2216
52.001
52.0797
52.1059
52.0691
52.3178
52.2265
52.1436
51.9794
52.0644
51.9402
51.8568
51.869
51.8015
51.7897
52.1873
52.0267
52.1512
51.9019
52.0386
51.8223
52.0819
52.3566
52.2602
52.4858
52.8622
52.9533
52.1605
52.1539
52.4893
52.4175
52.5769
51.7389
54.1498
51.6146
51.4323
51.0132
51.2754
51.9687
51.5498
51.7546
52.2828
51.9816
52.1562
52.8627
52.5066
52.8446
52.9242
52.5787
52.5341
52.6014
51.1885
52.2415
52.0415
51.5286
52.083
51.1904
52.6109
52.5516
52.6802
52.6801
52.6298
52.59
52.5932
52.5359
52.5315
52.4241
52.4841
52.4427
52.373
52.3259
52.3015
52.3672
52.3608
52.5461
52.3912
52.4434
52.446
52.5035
52.3701
52.4083
52.0551
52.0861
51.9696
52.1222
52.1038
52.0552
52.0275
51.9976
52.0436
52.3224
52.3639
52.2976
52.3096
52.3444
52.2665
51.9892
51.9579
51.9515
51.9953
51.7609
51.9228
51.879
52.244
51.9945
52.1421
52.0469
52.2586
52.0092
52.1755
52.2719
52.1814
52.3897
52.2532
52.19
51.931
51.8436
51.8508
51.8299
51.8234
51.8043
51.7936
52.1082
51.8101
52.08
51.9349
52.1801
51.8497
52.1282
52.1534
52.1236
51.9539
52.2539
52.0953
52.0396
51.9024
52.1686
52.064
51.7005
51.5401
51.7575
51.7495
51.6748
51.7434
51.697
51.7258
52.2375
52.1237
52.3627
52.3735
52.2185
52.2641
52.2792
51.7772
52.0382
52.0267
51.8464
52.0046
51.8268
52.4946
52.4343
52.5236
52.5211
52.4653
52.4646
52.4528
52.4032
52.3819
52.3386
52.3678
52.3402
52.307
52.297
52.2845
52.3485
52.3315
52.4562
52.3481
52.3724
52.3656
52.4051
52.3206
52.3421
52.1011
52.0334
52.0089
52.1229
52.1
52.0078
52.031
52.0371
52.0441
52.3025
52.3051
52.2357
52.2957
52.2864
52.215
51.9401
51.7319
51.8776
51.9169
51.7589
52.2218
52.1894
52.3181
52.1783
52.1859
51.7428
51.7961
51.8367
51.7883
51.8153
52.1573
52.1802
51.9191
52.1525
52.0208
52.0965
51.9119
52.178
51.9044
51.7175
51.7741
51.7464
51.7078
51.7551
51.771
51.7987
51.7811
52.0639
52.0087
52.175
52.1885
52.084
52.1073
52.1205
51.8383
51.9904
51.9569
51.8069
51.9571
51.7861
52.371
52.3141
52.4003
52.3871
52.3406
52.3337
52.3216
52.2762
52.2942
52.2643
52.2635
52.2347
52.2148
52.2545
52.2265
52.3036
52.2683
52.3532
52.291
52.3118
52.2835
52.3066
52.2551
52.278
52.0991
51.9823
52.0398
52.1064
52.0899
51.9629
52.0359
52.0275
52.022
52.2769
52.2707
52.1865
52.2506
52.2303
52.1544
51.8725
51.7842
51.8983
51.922
51.7783
52.1207
52.1299
52.2104
52.0821
52.0787
51.8132
51.8301
51.8514
51.8387
51.8497
52.1341
52.085
51.8922
52.1048
51.8837
52.0239
51.9152
52.01
51.8887
51.789
51.7484
51.8039
51.7484
51.8165
51.7585
51.8185
51.8194
51.9217
51.9279
52.0652
52.0774
52.0285
52.0305
52.0457
51.7949
51.9331
51.9377
51.8056
51.9332
51.7685
52.2607
52.2098
52.2696
52.2585
52.2143
52.2095
52.2017
52.1607
52.1712
52.1707
52.1547
52.1173
52.1323
52.198
52.1702
52.2305
52.1935
52.2596
52.2146
52.2369
52.1957
52.2115
52.1713
52.1904
52.0783
51.9472
52.0301
52.0755
52.0694
51.9404
52.022
52.0242
52.0257
52.2193
52.191
52.126
52.1878
52.1773
52.0976
51.9241
51.9089
51.9103
51.9339
51.9234
52.0785
52.0949
52.1974
52.0728
52.1121
51.8786
51.8675
51.8934
51.9036
51.8944
52.0781
52.0965
51.9327
52.0277
51.9202
52.005
51.9361
52.075
51.9424
51.839
51.7712
51.8222
51.7907
51.8461
51.7786
51.8262
51.8581
51.9563
51.9611
52.0002
52.0172
51.998
51.9774
51.9963
51.8157
51.9383
51.9455
51.8263
51.941
51.7738
52.1621
52.1172
52.157
52.1524
52.1155
52.1122
52.1079
52.076
52.0776
52.1018
52.0709
52.0441
52.0777
52.143
52.1127
52.1579
52.1208
52.1638
52.1282
52.1443
52.1064
52.1165
52.087
52.1013
52.0567
51.9344
52.0095
52.032
52.0347
51.9226
51.9952
52.0211
52.014
52.1587
52.1402
52.0747
52.1224
52.0983
52.0457
51.9552
51.9581
51.9144
51.963
51.9818
52.0572
52.0919
52.1281
52.0257
52.0702
51.9371
51.9067
51.9314
51.9566
51.9154
52.0909
52.0558
51.9285
52.0777
51.9511
51.9976
51.9202
52.0477
51.9451
51.8515
51.7912
51.8355
51.8112
51.8533
51.7998
51.8415
51.8791
51.9567
51.9512
51.9602
51.98
51.9673
51.9447
51.9663
51.8513
51.9408
51.9477
51.8731
51.9441
51.8022
52.0752
52.0363
52.0731
52.0646
52.0405
52.0383
52.0231
52.0068
52.0127
52.0539
52.0049
51.9839
52.0288
52.0779
52.044
52.0852
52.0502
52.0718
52.0484
52.0626
52.0256
52.0292
52.0104
52.0282
52.01
51.9076
51.9756
51.9703
51.9837
51.8907
51.9566
51.9997
51.9831
52.0836
52.0594
52.0086
52.0443
52.0178
51.9674
51.9628
51.9786
51.9042
51.9653
51.9759
51.9797
52.0395
52.0522
51.9348
52.0002
51.9646
51.9143
51.9394
51.9628
51.9218
52.0227
51.9909
51.9055
52.0155
51.9314
51.9529
51.8818
51.9889
51.9112
51.8514
51.8039
51.8372
51.8144
51.8477
51.8037
51.8326
51.8826
51.9401
51.9185
51.9255
51.952
51.9118
51.9052
51.9351
51.8859
51.9442
51.946
51.8815
51.9429
51.8189
52.0005
51.9659
52.0054
51.9847
51.9768
51.9802
51.9512
51.9564
51.9614
52.0064
51.9792
51.9471
51.9913
52.015
51.9936
52.0145
51.9783
51.9888
51.9736
51.9941
51.9486
51.9512
51.9394
51.9589
51.9587
51.8725
51.934
51.923
51.9345
51.8561
51.911
51.965
51.9421
52.0045
51.9796
51.9269
51.9653
51.9441
51.8904
51.9635
51.9617
51.8795
51.9495
51.937
51.8958
51.9597
51.9775
51.8594
51.9177
51.9489
51.9059
51.9151
51.9177
51.8784
51.963
51.935
51.8567
51.9574
51.8836
51.9005
51.8341
51.9246
51.8536
51.8361
51.7966
51.8169
51.7906
51.8158
51.7886
51.8011
51.8431
51.8916
51.8621
51.8781
51.9117
51.8502
51.8487
51.8853
51.8584
51.9337
51.9231
51.8359
51.9249
51.804
51.9358
51.9081
51.9619
51.9236
51.9414
51.9481
51.9077
51.9193
51.9443
51.9918
52.0077
51.9644
51.9901
51.98
51.9653
51.9457
51.9168
51.916
51.9067
51.9242
51.8839
51.8811
51.8748
51.8914
51.9096
51.8413
51.8807
51.8831
51.8822
51.827
51.8475
51.9129
51.8764
51.9308
51.908
51.8568
51.9006
51.8764
51.8263
51.9098
51.8945
51.8264
51.8544
51.843
51.8261
51.8771
51.9003
51.7994
51.8418
51.8656
51.8326
51.8016
51.809
51.7865
51.902
51.8678
51.8122
51.8872
51.8218
51.8433
51.7881
51.8486
51.7837
51.7829
51.7757
51.7776
51.7385
51.7483
51.7541
51.7481
51.7689
51.8269
51.7931
51.8181
51.8559
51.7903
51.7874
51.8244
51.8232
51.9108
51.8696
51.8051
51.8875
51.7684
51.8842
51.8747
51.9086
51.8913
51.8969
51.9474
51.878
51.9007
51.9969
51.9714
51.9934
51.9907
51.9403
51.9348
51.8906
51.8894
51.859
51.8468
51.8439
51.8594
51.8228
51.8225
51.8114
51.8254
51.842
51.7976
51.8129
51.8226
51.7944
51.7659
51.7813
51.8407
51.8072
51.8726
51.8505
51.7982
51.8462
51.8259
51.7715
51.7922
51.7827
51.7509
51.7386
51.7314
51.7774
51.8124
51.8527
51.7572
51.7868
51.7504
51.7355
51.687
51.6993
51.7021
51.8355
51.8052
51.7656
51.809
51.7466
51.7824
51.7442
51.7743
51.7117
51.7184
51.7324
51.7287
51.6795
51.6874
51.7121
51.7078
51.7055
51.7653
51.7387
51.7481
51.7846
51.7412
51.7066
51.7401
51.7814
51.8515
51.7712
51.7449
51.8033
51.7252
51.8555
51.8502
52.0034
51.866
51.9404
51.9778
51.8824
51.9687
51.936
51.8912
51.9156
51.8693
51.835
51.8398
51.7954
51.8259
51.794
51.8086
51.778
51.7873
51.7745
51.7922
51.7492
51.7443
51.7568
51.7416
51.7527
51.7468
51.7324
51.7175
51.733
51.7762
51.7512
51.8179
51.7992
51.7446
51.786
51.7695
51.7147
51.6991
51.6942
51.6837
51.6802
51.6868
51.7368
51.7626
51.7967
51.7144
51.739
51.6619
51.6754
51.628
51.6459
51.6578
51.7763
51.7499
51.7248
51.744
51.6849
51.7294
51.7077
51.7178
51.6619
51.6641
51.6918
51.6827
51.642
51.6412
51.6774
51.6634
51.664
51.7102
51.6817
51.6651
51.6945
51.6845
51.6303
51.6546
51.7102
51.7461
51.6618
51.6817
51.6952
51.6859
51.8467
51.7965
51.9253
51.9157
51.9318
51.8571
51.8948
51.8564
51.8166
51.7809
51.7848
51.7615
51.7311
51.7545
51.7149
51.7674
51.7419
51.771
51.7292
51.7095
51.7444
51.7653
51.7121
51.6722
51.7113
51.6999
51.7203
51.6921
51.6945
51.683
51.7041
51.7322
51.7142
51.7543
51.7442
51.6907
51.7258
51.7243
51.6731
51.683
51.6958
51.6732
51.6887
51.7085
51.6919
51.7166
51.7433
51.6699
51.6938
51.6425
51.6542
51.6189
51.6434
51.6527
51.7277
51.7057
51.6887
51.6925
51.6399
51.6895
51.6676
51.6667
51.6191
51.6192
51.6659
51.6487
51.6043
51.5998
51.6549
51.6354
51.633
51.6568
51.6347
51.6007
51.6191
51.6335
51.5767
51.5937
51.66
51.6515
51.5829
51.6408
51.6158
51.6611
51.8143
51.8227
51.7946
51.8435
51.7953
51.7378
51.7989
51.741
51.7075
51.6878
51.6729
51.6599
51.6513
51.6804
51.6518
51.71
51.6709
51.7463
51.6794
51.6265
51.6846
51.7056
51.6303
51.6046
51.678
51.6641
51.6903
51.6557
51.6619
51.6457
51.6892
51.699
51.6936
51.6956
51.7004
51.6509
51.6559
51.668
51.6181
51.685
51.6998
51.6607
51.6691
51.6875
51.6453
51.6681
51.6828
51.6185
51.6421
51.6395
51.6372
51.6058
51.634
51.6263
51.6807
51.6552
51.6448
51.6393
51.5969
51.6445
51.6245
51.6146
51.5754
51.5813
51.6341
51.6164
51.5561
51.558
51.6074
51.5947
51.6071
51.6137
51.5936
51.5612
51.5746
51.5935
51.552
51.5642
51.6213
51.588
51.5486
51.6019
51.5735
51.614