/*--------------------------------*- C++ -*----------------------------------*\
| =========                 |                                                 |
| \\      /  F ield         | OpenFOAM: The Open Source CFD Toolbox           |
|  \\    /   O peration     | Version:  5.x                                   |
|   \\  /    A nd           | Web:      www.OpenFOAM.org                      |
|    \\/     M anipulation  |                                                 |
\*---------------------------------------------------------------------------*/
FoamFile
{
    version     2.0;
    format      ascii;
    class       surfaceScalarField;
    location    "8";
    object      phi;
}
// * * * * * * * * * * * * * * * * * * * * * * * * * * * * * * * * * * * * * //

dimensions      [0 3 -1 0 0 0 0];

internalField   nonuniform List<scalar> 
29271
(
-8.4287e-06
2.44859e-06
2.35178e-06
3.73162e-06
-1.16336e-05
2.35464e-06
3.54771e-06
6.00495e-06
-3.34044e-05
-2.11481e-05
-2.58647e-06
-3.90853e-06
1.49458e-05
4.61017e-05
-5.28896e-05
-2.3638e-05
8.35627e-06
-1.29139e-05
2.94968e-05
5.15884e-05
-2.78152e-05
-2.45941e-06
-1.82204e-06
6.24603e-06
1.1387e-05
1.44635e-05
-2.64618e-05
-6.9108e-06
-4.1575e-06
1.33043e-05
9.06772e-06
1.51581e-05
-7.06768e-05
-2.29195e-05
-1.85525e-05
4.8855e-06
8.12602e-06
9.91374e-05
-4.45353e-05
-1.54551e-05
1.13859e-05
-2.04338e-05
1.21543e-05
5.68839e-05
-4.70831e-05
-4.92068e-06
2.45326e-05
-6.19634e-06
1.33805e-05
2.02871e-05
-3.5007e-05
-7.00702e-06
1.27223e-05
2.4464e-05
4.88501e-06
-1.32712e-05
-2.11788e-06
5.11528e-06
1.02796e-05
-3.76091e-05
-1.06921e-05
-6.56037e-06
1.14119e-05
1.16267e-06
4.22869e-05
-5.0324e-05
5.35504e-06
-1.4033e-05
1.11814e-05
-5.48916e-06
5.33097e-05
-4.96054e-05
-7.8182e-06
-1.37649e-06
-1.1513e-05
-1.95712e-06
7.22702e-05
-4.8262e-05
-2.15847e-05
1.76953e-05
-3.27429e-05
1.53958e-05
6.94985e-05
-4.9712e-05
-1.01047e-05
-1.08255e-05
7.03813e-06
3.24131e-05
3.1191e-05
-6.24477e-05
-2.47927e-06
4.56402e-06
-3.5618e-06
5.84777e-05
5.44704e-06
-3.91454e-05
-1.24238e-05
-1.57429e-07
1.19247e-05
5.89076e-06
3.39111e-05
-3.6061e-05
-2.87871e-06
-2.77535e-06
1.7462e-06
1.20741e-05
2.78947e-05
-5.5067e-05
-2.16541e-05
-1.12433e-05
8.86938e-05
-8.49081e-06
7.76141e-06
-8.46505e-06
-2.43296e-06
6.78157e-06
4.30588e-06
-2.05342e-05
-1.78517e-06
1.49162e-05
5.33986e-06
2.24709e-06
-5.64538e-05
-7.93813e-06
-1.91835e-05
-5.2512e-07
9.75293e-05
-1.34287e-05
-1.43087e-05
3.6536e-06
5.36265e-06
5.42641e-06
-3.03377e-06
5.94205e-07
-9.68808e-08
2.54571e-06
-3.33482e-06
-5.9995e-10
4.77558e-07
2.91534e-06
-8.93383e-06
-1.43007e-06
-5.07234e-05
-8.82299e-07
1.04657e-05
5.15039e-05
-3.31802e-06
-3.30473e-05
9.99002e-06
-4.36053e-06
1.01002e-05
2.06356e-05
-5.74954e-06
-6.90449e-07
-4.91055e-07
2.99298e-06
2.85483e-06
1.08324e-06
1.92318e-06
-5.41373e-07
-1.59659e-05
8.88853e-06
-1.03833e-05
1.60789e-05
-1.05741e-05
6.35107e-05
0.000465031
-0.000133324
-9.01521e-05
-0.000100705
-0.000126294
-1.17595e-05
-8.13779e-06
4.12624e-07
5.26702e-06
-2.34019e-05
-1.41539e-05
-8.1741e-06
-7.54534e-06
-8.09622e-06
4.3312e-05
0.000185562
-5.59602e-05
-8.04431e-05
-4.24494e-05
-3.43908e-05
-1.1279e-05
-8.35946e-06
1.45679e-06
7.30593e-08
-3.76863e-06
2.05716e-05
0.000112986
-2.91031e-06
-2.58018e-06
-2.16491e-06
-2.12346e-06
-2.98159e-06
-2.05866e-06
-1.44796e-06
-1.56182e-05
-3.28802e-05
-3.56567e-05
-3.74626e-05
-1.65008e-05
-7.94809e-07
1.63285e-06
1.21053e-05
-5.62516e-06
2.06153e-07
9.69404e-07
4.50906e-06
-2.73606e-06
-3.28833e-05
2.30176e-06
1.01678e-05
2.48922e-06
2.06605e-05
-1.04081e-05
1.76072e-05
0.000392894
-6.84215e-05
-0.000109535
-4.05477e-05
-5.75119e-05
-2.30941e-05
-1.82749e-05
-9.58229e-06
-9.61485e-06
-1.39408e-05
7.16722e-05
0.000211904
-8.5956e-05
-5.50672e-05
-4.35068e-05
-5.22014e-05
-2.87326e-06
3.83018e-06
0.000217756
-2.20733e-06
-9.49249e-07
8.42101e-08
1.13665e-05
1.09736e-05
9.66364e-06
-7.36542e-05
-3.94529e-05
-8.11792e-05
-4.67274e-05
-2.17718e-05
-3.01394e-06
-3.77504e-06
6.21524e-06
1.94722e-05
-4.95051e-05
-2.37047e-06
1.34663e-05
7.69935e-06
3.80984e-05
-7.38845e-06
-7.37272e-06
-2.41569e-07
0.000241749
-4.98948e-06
-1.57328e-06
-2.47789e-06
5.7747e-06
-5.85926e-06
2.88702e-06
-1.08975e-06
-3.00757e-05
-3.39685e-05
-3.08054e-05
-0.00011435
-6.4438e-06
-9.71466e-06
0.000297433
-4.56892e-07
8.36878e-07
3.3857e-06
2.27525e-06
-1.18605e-06
9.39526e-06
-3.73447e-05
-7.33887e-05
-7.75715e-05
-4.29204e-05
-8.79364e-05
1.18141e-06
8.55345e-06
7.5588e-05
-3.58946e-06
-2.86696e-06
2.45116e-06
4.00983e-06
-5.30185e-06
5.36509e-06
-9.47061e-06
9.12492e-06
-0.000117698
-6.69957e-06
2.16667e-05
-9.75018e-06
0.000102767
-7.61643e-06
-5.66423e-06
-3.68475e-06
1.69213e-05
-2.42585e-06
-2.20803e-07
-5.12981e-07
3.14796e-06
-4.72035e-06
-6.0717e-06
2.58342e-06
7.9812e-06
2.05903e-05
1.79097e-06
-6.47786e-05
-1.11812e-06
-2.52798e-05
6.87953e-05
3.00575e-06
-1.25558e-05
2.81533e-07
-5.58608e-07
-8.24869e-06
1.80758e-05
-1.41121e-06
6.53313e-07
-5.1135e-07
3.12547e-08
5.90631e-07
6.47365e-07
-1.16317e-08
7.45249e-06
-1.39366e-05
-7.92189e-06
-1.11416e-06
1.55317e-05
5.98362e-06
8.12363e-05
0.000362961
-3.30553e-08
-5.81193e-07
-2.25411e-06
7.10131e-06
3.06751e-06
3.08029e-07
3.39186e-06
3.84998e-06
1.60732e-05
2.18052e-05
0.000143571
2.41266e-06
-1.63648e-06
9.14888e-06
1.71753e-07
-3.64859e-07
1.27152e-05
0.000120732
-2.57187e-06
-1.86669e-06
-8.02749e-07
-1.33731e-06
3.36433e-07
2.35688e-07
1.98277e-06
-8.64981e-06
-9.97286e-07
3.02934e-06
6.43551e-06
-5.805e-06
-5.17357e-07
-2.29626e-06
8.64384e-06
3.54291e-06
-1.43265e-05
1.71989e-07
4.26146e-07
-5.06592e-08
1.02361e-05
-9.75888e-06
3.57398e-05
0.000445444
-7.55016e-07
-1.3481e-06
2.87615e-06
1.9324e-06
8.35067e-06
3.51863e-05
0.000180413
9.71167e-07
8.88557e-06
0.000196436
9.61034e-07
2.37364e-06
2.13698e-06
5.92975e-06
1.28959e-05
8.23208e-06
-2.13013e-05
-1.00266e-06
-8.69635e-07
1.03539e-06
2.31094e-05
-3.23089e-05
1.79702e-06
2.85254e-06
1.00725e-05
2.54344e-05
-7.84745e-06
-1.45566e-05
4.8018e-06
0.000225603
1.71878e-06
1.27341e-05
1.11097e-05
2.2218e-05
1.60733e-06
7.81455e-06
4.43771e-06
3.28482e-06
5.0864e-06
0.000242896
6.25742e-06
1.33153e-05
1.4481e-05
1.22879e-05
7.4559e-06
1.29985e-05
-7.66566e-05
1.80378e-06
8.71999e-06
7.83032e-05
-5.85969e-06
-2.66823e-06
-6.64043e-07
9.1446e-06
-1.01054e-05
6.45491e-06
-5.43035e-06
1.37395e-05
-8.6679e-05
3.42042e-09
8.76316e-06
-3.03822e-06
8.6037e-05
-3.07621e-05
5.74387e-06
-9.09036e-06
3.41165e-05
-7.36656e-06
-3.39029e-06
-5.67114e-07
1.1324e-05
-7.42808e-06
-3.43384e-06
6.381e-06
4.4239e-06
1.12221e-05
2.95722e-06
-6.39894e-05
1.24823e-06
-8.71286e-06
5.72747e-05
1.4982e-05
-3.52187e-05
-5.41814e-06
-7.93494e-07
-2.02307e-05
4.66789e-05
1.03773e-06
2.40857e-06
-1.4498e-06
-1.21351e-06
-5.09126e-06
4.30827e-06
-3.83461e-06
4.94791e-06
-2.10403e-05
-8.60128e-06
5.36387e-07
2.79919e-05
-1.26506e-06
5.46745e-05
0.000244994
6.15092e-07
2.42743e-06
8.57769e-06
9.4612e-06
6.81129e-06
9.59697e-06
1.27439e-05
1.43236e-05
4.37026e-06
5.52264e-06
0.000105955
4.4899e-06
2.83394e-06
8.94264e-06
1.01908e-05
2.79044e-07
-4.27157e-06
0.000116482
2.63332e-06
1.0208e-06
6.21438e-06
1.3205e-06
-2.11394e-07
8.11585e-07
8.234e-07
-4.3817e-06
-7.62624e-07
1.09156e-06
4.37617e-06
-1.2464e-05
-1.06109e-06
5.90576e-07
1.29308e-05
2.37495e-06
-5.88971e-06
2.31551e-07
-4.94428e-06
9.64744e-07
7.26274e-06
-1.10424e-05
6.01615e-05
0.000413746
9.80623e-06
5.24284e-06
1.20507e-05
1.01533e-05
-3.43213e-06
5.5712e-06
0.000172755
2.89027e-07
6.08087e-06
0.000165064
1.14808e-06
1.82747e-06
2.50175e-06
2.88321e-06
6.29716e-06
2.64089e-06
-2.45733e-05
4.0991e-07
1.2828e-07
4.08505e-07
2.39157e-05
-2.80089e-05
5.96803e-06
-1.07973e-05
-1.03349e-05
4.23829e-05
7.90252e-07
-1.49257e-05
6.15368e-06
0.000219897
9.77069e-06
1.85933e-05
1.22438e-05
1.64288e-05
3.35975e-06
8.21718e-06
6.02654e-06
5.52364e-06
2.84577e-06
0.000188529
6.37929e-06
4.74457e-06
5.4191e-06
6.56534e-06
6.13053e-06
7.40387e-06
-9.01001e-05
1.10867e-05
5.18146e-06
8.54364e-05
-1.32249e-05
-8.69377e-07
-1.39118e-06
1.54857e-05
-2.34771e-05
5.01405e-06
-7.26664e-06
3.18421e-05
-8.10495e-05
3.93843e-06
5.95823e-07
4.2153e-06
7.51457e-05
-3.4557e-05
5.10864e-06
-4.47052e-06
3.39246e-05
-1.56961e-05
-3.24821e-06
4.61427e-07
1.84829e-05
-3.64703e-06
-6.68866e-08
-3.40307e-06
7.07573e-06
5.5529e-06
1.99822e-06
-5.50232e-05
-3.23921e-07
-6.07655e-06
5.38726e-05
8.07077e-06
-5.0752e-05
-5.8148e-07
-2.02429e-06
-7.34226e-06
5.26292e-05
6.53697e-06
6.48729e-07
-8.51466e-07
-1.91951e-06
-7.01244e-06
2.59771e-06
4.24606e-07
-7.19424e-08
-3.40886e-05
-2.2379e-06
9.43734e-07
3.50301e-05
-7.19687e-06
6.63275e-06
0.000207178
6.87016e-06
6.2912e-06
4.81943e-06
5.27941e-06
4.76424e-06
5.68293e-06
1.63132e-06
3.04231e-06
-1.60359e-05
-2.65381e-06
0.000108199
3.55645e-06
2.1823e-06
1.64612e-06
1.86485e-06
-3.83868e-06
-1.18098e-05
0.000109661
4.56135e-06
1.76191e-06
8.26779e-06
2.72672e-06
-5.84543e-06
-2.04432e-06
-2.99461e-06
-7.04092e-06
2.83274e-06
-9.30164e-06
9.65989e-06
-1.23633e-05
2.56675e-07
6.356e-07
1.14591e-05
-1.61586e-06
-1.43639e-05
-2.46934e-07
-3.52037e-06
-1.09292e-06
2.084e-05
-9.484e-06
4.39263e-05
0.000347055
8.66621e-06
6.16846e-06
1.44108e-05
9.63681e-06
-1.07557e-05
-1.15092e-06
0.000172523
-1.94891e-06
9.93199e-07
0.000145548
-2.37907e-06
3.13758e-08
-2.19728e-06
1.28999e-07
1.53719e-06
7.84679e-07
-2.41681e-05
6.69979e-06
2.06292e-06
-5.63367e-06
1.90902e-05
-5.8064e-05
1.04578e-05
-1.23137e-05
-1.51066e-05
6.93191e-05
5.70749e-06
-2.13366e-05
5.3969e-06
0.000229443
8.17341e-06
1.35594e-05
7.29071e-06
1.10283e-05
2.55252e-06
4.8819e-06
2.83291e-06
-5.72161e-06
6.57209e-07
0.000195853
-5.22758e-06
-9.55083e-06
-7.34074e-06
7.91655e-07
-1.58596e-06
-1.83372e-06
-7.79829e-05
4.49137e-06
6.48045e-06
6.22826e-05
-1.83815e-05
7.55418e-06
-1.30523e-05
2.38825e-05
-3.89901e-05
3.06904e-06
-2.35365e-06
4.36764e-05
-7.89115e-05
4.42868e-06
-9.06721e-06
2.95694e-06
8.12503e-05
-3.20503e-05
-3.62361e-06
5.62903e-06
3.00496e-05
-1.9868e-05
-2.20956e-06
1.59775e-06
2.04798e-05
-1.12463e-05
1.94171e-06
-4.45295e-06
1.3737e-05
2.32576e-06
1.42913e-06
-5.3955e-05
-1.06284e-06
-3.30597e-06
5.45689e-05
3.63088e-06
-5.36768e-05
4.527e-07
-1.18803e-06
-3.57236e-06
5.43536e-05
5.40677e-06
2.71024e-07
-7.38991e-07
-2.84692e-06
-3.67436e-06
1.58249e-06
2.24413e-06
-3.72059e-06
-3.33592e-05
4.41903e-06
-9.65069e-07
3.13817e-05
-1.01749e-05
9.76496e-07
0.000219207
3.67093e-06
2.70467e-06
1.94261e-06
2.09086e-06
-2.09247e-06
-3.26869e-06
-4.2763e-06
-3.60277e-06
-2.21916e-05
-7.12638e-06
0.000125368
4.2198e-07
9.1541e-07
4.06256e-07
2.2964e-07
-2.21088e-06
-1.7317e-05
0.000106586
3.03208e-06
5.65654e-07
2.57848e-06
4.55661e-07
-1.50364e-06
-2.82689e-06
-1.88962e-06
-9.32574e-06
1.30333e-06
2.50311e-07
-1.11065e-06
6.67186e-06
-8.22855e-08
1.19056e-08
3.04468e-08
3.40603e-08
-1.0597e-05
1.0522e-06
-1.09298e-06
1.06375e-05
-4.09108e-06
-2.8604e-05
1.17458e-06
1.11517e-07
-5.39367e-07
3.19483e-05
-1.58736e-05
2.08046e-05
0.000317957
7.80761e-06
4.7709e-06
6.48981e-06
6.07512e-06
-1.69803e-05
-1.57202e-05
0.000182224
-2.13591e-06
-4.32142e-06
0.000130622
-1.6898e-06
-1.18697e-06
-1.59475e-06
-1.04083e-06
-3.88701e-06
-3.51485e-06
-1.60872e-05
4.02293e-07
8.82959e-07
-7.31888e-07
1.33979e-05
-1.74778e-08
-7.40648e-07
6.23923e-08
3.20678e-08
6.67676e-07
-7.75838e-05
1.12018e-05
-6.9726e-06
-1.57245e-05
8.32392e-05
5.83997e-06
-2.72829e-05
2.60436e-06
0.000235049
6.74647e-06
9.56761e-06
9.26657e-06
9.17098e-06
9.69299e-07
2.07699e-06
2.07926e-06
-1.20759e-05
-4.44785e-06
0.000213924
-1.04034e-05
-1.0336e-05
-1.00039e-05
-5.02464e-06
-3.74871e-06
-5.03421e-06
-5.62515e-05
-1.01085e-05
-2.44057e-06
5.24032e-05
-2.22509e-05
3.77106e-06
3.43256e-06
1.46604e-05
-4.7396e-05
2.25082e-06
-1.36861e-06
4.91165e-05
-8.14905e-05
5.69852e-06
-1.1206e-05
3.76055e-06
7.87896e-05
-3.14853e-05
-7.51841e-06
8.70591e-06
3.0285e-05
-2.06443e-05
-1.73466e-06
1.91372e-06
2.04653e-05
-1.63114e-05
3.29013e-08
-2.25123e-06
1.85298e-05
1.22388e-06
1.29888e-06
-5.41994e-05
-1.09892e-06
-7.1136e-07
5.34869e-05
2.26214e-06
-5.43326e-05
-5.35715e-08
2.79799e-07
-1.79372e-06
5.3638e-05
5.36594e-07
-1.75421e-06
-7.89423e-07
-2.94117e-06
4.59228e-06
3.55933e-07
1.23125e-06
1.3385e-07
-2.71529e-05
2.83869e-06
-8.30534e-07
2.37797e-05
-1.09278e-05
-3.82902e-06
0.000233334
2.0182e-06
1.23161e-06
2.79614e-06
2.9242e-06
-3.01376e-06
-3.33861e-06
-1.28707e-06
-7.01089e-07
-2.10116e-05
-7.59664e-06
0.000141104
-8.50672e-07
-4.18144e-08
9.75736e-07
1.86209e-06
-1.38175e-06
-1.77591e-05
9.62742e-05
3.45907e-06
1.46958e-06
3.58469e-06
1.69629e-06
-6.28764e-07
-5.34724e-07
-6.04933e-07
-4.83382e-06
-1.43821e-06
8.74617e-07
1.09317e-07
3.90635e-06
2.31448e-07
-6.0825e-07
-8.686e-07
6.3825e-07
4.96179e-07
1.10973e-07
-1.14226e-05
2.07706e-06
-2.84524e-06
1.21843e-05
-1.09245e-06
-3.29679e-05
2.39124e-06
1.09767e-06
-2.7884e-06
3.33598e-05
-1.95098e-05
7.97195e-06
0.000308689
3.5732e-06
3.1213e-06
5.73269e-06
4.5491e-06
-1.90502e-05
-1.69529e-05
0.000191121
1.08353e-07
-8.28597e-06
0.000123924
7.09515e-07
-2.2786e-07
3.39411e-07
-5.84441e-06
-7.52686e-06
-9.38292e-06
-1.11627e-05
2.58094e-07
4.24157e-06
6.96877e-07
6.07449e-06
-1.67424e-06
-1.24785e-06
-4.19945e-06
8.63848e-07
2.19642e-06
4.06126e-06
-8.7765e-05
1.00164e-05
-6.00468e-06
-1.24333e-05
8.94068e-05
6.77977e-06
-2.78646e-05
1.03704e-06
0.00024071
5.9718e-06
7.49945e-06
7.58588e-06
6.60665e-06
-3.34235e-07
1.08455e-06
7.25234e-07
-1.07585e-05
-3.06765e-06
0.00021695
-9.76845e-06
-7.58075e-06
-8.89911e-06
-3.65456e-06
-1.89748e-06
-2.21694e-06
-4.91169e-05
-4.54804e-06
-9.07692e-06
4.36974e-05
-8.15628e-06
-1.36292e-06
-1.32572e-06
2.57357e-06
8.24408e-06
-3.49577e-06
-2.49892e-06
1.09336e-06
4.90045e-06
-5.008e-05
1.85092e-06
-1.53533e-06
5.07955e-05
-7.87083e-05
6.23471e-06
-1.38649e-05
4.59821e-06
7.86726e-05
-2.60865e-05
-1.31287e-06
8.76928e-06
1.8575e-05
-1.99766e-05
-1.81788e-06
2.4109e-06
1.93835e-05
-1.98579e-05
-1.04002e-06
1.22424e-07
2.07755e-05
1.22771e-06
2.08533e-06
-5.2725e-05
-1.37281e-06
-8.78893e-07
5.16637e-05
1.63238e-06
-5.30815e-05
-9.25085e-07
2.78802e-06
-1.78332e-06
5.13695e-05
-1.10606e-05
-4.66034e-06
1.62124e-06
-4.14247e-07
1.77735e-05
-3.2595e-06
-4.42287e-07
1.08538e-06
-2.36469e-05
-1.55858e-07
-1.45785e-06
2.46175e-05
-1.05671e-05
-8.71325e-06
0.000236638
3.09749e-06
2.07403e-06
4.07429e-06
4.0897e-06
-1.30709e-07
-2.90141e-07
1.04698e-06
2.01548e-06
-1.23913e-05
-6.81643e-06
0.00014577
-4.35641e-07
1.01599e-06
1.01115e-06
2.38274e-06
6.77443e-07
-1.12491e-05
8.04371e-05
2.95553e-06
1.79501e-06
4.45604e-06
2.06694e-06
4.77667e-07
6.36548e-07
1.62963e-06
-2.64263e-06
9.08624e-07
1.95935e-06
-6.18364e-07
1.07046e-06
-2.20474e-06
3.09199e-07
-9.25933e-07
-8.03942e-07
-1.13596e-06
4.76137e-06
-1.30599e-05
2.89066e-06
-4.30701e-06
1.44734e-05
1.45844e-06
-3.52771e-05
2.98672e-06
-2.51954e-06
-4.43187e-06
3.77834e-05
-1.90126e-05
2.72334e-06
0.000294984
4.94646e-06
3.3248e-06
7.29324e-06
5.71631e-06
-1.47888e-05
-1.37892e-05
0.000193869
-2.9518e-07
-6.75549e-06
0.000110942
-4.19688e-07
1.29545e-06
7.3354e-07
-3.96102e-06
-3.16448e-06
-4.88803e-07
-3.31073e-06
4.17295e-07
1.1333e-06
-1.23796e-06
2.70291e-06
-3.99313e-06
1.69928e-06
-1.40744e-06
1.48412e-06
-6.1591e-07
2.83307e-06
-8.91804e-05
1.08758e-05
-6.48214e-06
-1.01264e-05
8.8525e-05
6.38814e-06
-2.51217e-05
5.52857e-07
0.000244995
5.2601e-06
5.72498e-06
6.89483e-06
5.71622e-06
-7.13231e-07
4.21788e-07
-2.97589e-07
-8.90543e-06
-1.95221e-06
0.000213291
-9.08915e-06
-6.58533e-06
-8.09458e-06
-5.85102e-08
-1.69682e-06
1.13002e-06
-4.09823e-05
-5.20682e-06
-3.66676e-06
3.4195e-05
-5.31512e-06
1.57613e-06
-5.55451e-07
2.12849e-06
2.19135e-06
-7.13555e-06
5.68394e-07
-3.57686e-06
3.91327e-06
6.23236e-06
-5.21617e-05
9.4982e-07
-1.70026e-06
5.34653e-05
-7.8545e-05
5.44091e-06
-8.79461e-06
2.54696e-06
7.73995e-05
-1.38884e-05
-5.08744e-06
5.09091e-06
1.38749e-05
-1.86396e-05
-2.46596e-06
3.28949e-06
1.7816e-05
-2.1616e-05
-9.18148e-07
2.82923e-07
2.22512e-05
1.61352e-06
1.87005e-06
-5.08263e-05
-7.46856e-07
-1.86915e-06
4.99588e-05
7.74433e-07
-4.98712e-05
-1.98318e-06
3.92668e-06
-9.29281e-07
4.80825e-05
-2.43535e-05
-6.6429e-06
8.01921e-06
4.04203e-07
2.79676e-05
-5.39456e-06
-4.57904e-07
7.75634e-07
-2.57864e-05
-6.74195e-07
-8.85201e-07
2.70281e-05
-9.87667e-06
-1.16053e-05
0.000233023
4.17963e-06
3.12904e-06
4.8124e-06
4.87946e-06
1.27836e-06
1.42895e-06
2.23456e-06
3.15425e-06
-9.85971e-06
-5.15438e-06
0.000147803
-5.50737e-07
1.04464e-06
8.14992e-07
1.79535e-06
-1.28677e-06
-4.62665e-06
8.27349e-05
3.12697e-06
3.09211e-07
3.33406e-06
-1.50374e-07
7.93652e-08
-7.66097e-06
-5.28227e-06
-2.53124e-06
-7.01294e-07
-4.51729e-06
1.74121e-06
4.72185e-06
-3.53286e-06
8.03005e-06
-5.50104e-06
-4.51207e-07
1.45506e-06
-1.58619e-05
3.89646e-06
-5.25984e-06
1.72253e-05
2.34614e-06
-4.02764e-05
1.76411e-06
-3.34255e-06
-2.31138e-06
4.18201e-05
-1.75832e-05
1.63551e-06
0.00027543
5.48461e-06
4.59003e-06
7.11055e-06
6.71148e-06
-1.06397e-05
-8.44722e-06
0.000190219
-2.29732e-07
-1.7423e-06
9.85304e-05
2.15423e-07
-3.39371e-06
-1.51866e-06
1.39907e-06
5.2344e-07
1.89135e-06
-2.4243e-06
-2.04997e-06
-9.89951e-07
2.29467e-06
2.93982e-06
-3.81816e-06
-3.95201e-08
2.13894e-06
-1.2084e-06
-2.19082e-06
5.11795e-06
-8.92512e-05
9.98276e-06
-6.46377e-06
-8.91828e-06
8.95518e-05
5.09867e-06
-2.28272e-05
2.17959e-07
0.000248344
5.24628e-06
5.055e-06
6.72065e-06
5.11898e-06
-9.69516e-07
3.38704e-07
-6.14724e-07
-7.01879e-06
-1.85084e-06
0.000210084
-8.35879e-06
-4.63139e-06
-7.48022e-06
1.42844e-06
-1.53e-06
1.37413e-06
-2.80823e-05
-3.20259e-06
9.74021e-07
2.15498e-05
-1.31685e-06
-2.43755e-06
2.7802e-06
9.75161e-07
-5.42196e-05
7.03969e-07
-1.30745e-06
5.50415e-05
-7.65692e-05
3.73137e-06
-5.97652e-06
1.30308e-06
7.56604e-05
-1.47419e-05
-4.37011e-06
4.00127e-06
1.51107e-05
-1.69989e-05
-2.88767e-06
3.62599e-06
1.62606e-05
-2.28058e-05
-6.16162e-07
8.45277e-08
2.33375e-05
2.01268e-06
1.18877e-06
-4.9498e-05
-2.41092e-07
-2.69037e-06
4.92281e-05
-1.33378e-07
-4.64573e-05
-2.50679e-06
4.85588e-06
-1.60407e-07
4.4402e-05
-3.18188e-05
-7.29833e-06
9.01338e-06
1.60318e-06
3.45944e-05
-6.09384e-06
-3.35498e-07
6.90184e-07
-2.85662e-05
-1.5152e-06
-4.49249e-07
3.0176e-05
-9.42666e-06
-1.22533e-05
0.00022543
4.67275e-06
3.72207e-06
4.91222e-06
5.08918e-06
2.21629e-06
2.1795e-06
2.86408e-06
3.61632e-06
-1.09634e-05
-2.78423e-06
0.000150294
-3.65125e-07
2.12004e-08
1.31129e-06
8.62674e-07
-6.58168e-06
1.61427e-06
9.24438e-05
1.37076e-06
-1.72702e-06
1.19652e-06
-1.84196e-06
-6.42994e-06
-3.55943e-06
-4.71386e-06
-9.42242e-06
-4.39038e-06
-1.28677e-06
8.5179e-06
-1.82461e-05
4.42258e-06
-5.2966e-06
1.912e-05
2.64999e-06
-4.36987e-05
5.27055e-07
-3.61982e-06
-1.1467e-06
4.52881e-05
-1.49952e-05
1.08211e-06
0.000254719
4.94862e-06
4.616e-06
6.47746e-06
6.32914e-06
-7.48724e-06
-5.22285e-06
0.000185149
-3.21395e-06
2.11953e-06
8.87502e-05
-1.4332e-06
-2.19214e-06
-1.29416e-06
3.10652e-06
3.47586e-06
3.33876e-06
-7.13796e-06
4.97195e-07
-4.37075e-06
8.27512e-07
6.97006e-06
-9.01803e-05
9.54621e-06
-5.91669e-06
-7.26111e-06
9.03764e-05
3.43548e-06
-2.2615e-05
1.17357e-07
0.000253119
4.88982e-06
4.38175e-06
6.49832e-06
4.46385e-06
-1.06994e-06
2.83126e-07
-6.41972e-07
-4.0893e-06
-1.70942e-06
0.000200603
-6.79257e-06
-2.30982e-06
-5.15379e-06
1.46745e-06
-1.25183e-06
1.48287e-06
-1.77349e-05
-1.77291e-06
2.83568e-06
1.47024e-05
1.3423e-07
-9.40122e-07
2.13899e-06
-1.33229e-06
-5.62639e-05
8.45449e-07
-2.18103e-06
5.77168e-05
-7.47284e-05
3.66244e-06
-5.44891e-06
1.55991e-06
7.32456e-05
-1.48847e-05
-3.99405e-06
4.27711e-06
1.46023e-05
-1.57144e-05
-2.87858e-06
3.19849e-06
1.53945e-05
-2.38999e-05
-2.12556e-07
-3.76149e-07
2.44886e-05
2.16177e-06
7.49689e-07
-4.92346e-05
-5.59486e-08
-2.88708e-06
4.92661e-05
2.01353e-07
-4.24219e-05
-1.98692e-06
4.5493e-06
-4.74293e-07
4.01324e-05
-3.66603e-05
-7.31648e-06
9.17256e-06
3.65151e-06
3.7439e-05
-6.28623e-06
-8.65633e-08
5.52e-07
-3.20836e-05
-1.95944e-06
-2.44691e-07
3.38223e-05
-7.18735e-06
-1.02577e-05
0.00021535
4.28499e-06
3.46781e-06
4.37027e-06
4.59409e-06
2.44928e-06
2.23051e-06
2.67313e-06
3.45567e-06
-8.20018e-06
-5.67174e-07
0.000149719
2.1154e-07
-3.06805e-07
1.54373e-06
7.0637e-07
-9.93675e-07
5.24323e-06
9.47195e-05
-1.21905e-06
-3.31163e-06
-1.34723e-06
-3.74441e-06
-4.30797e-06
1.11653e-06
-1.91165e-06
-9.1501e-06
-6.56802e-06
4.21296e-06
1.05115e-05
-2.02031e-05
4.62018e-06
-5.47951e-06
2.10624e-05
3.0363e-06
-4.67396e-05
1.59081e-08
-3.68732e-06
-4.63119e-07
4.78378e-05
-1.30558e-05
3.59166e-07
0.000236379
4.48031e-06
4.4132e-06
5.8835e-06
6.00148e-06
-4.19796e-06
-9.44764e-07
0.000176669
-1.4807e-06
3.40898e-06
7.71702e-05
-2.87653e-07
-7.466e-07
1.20184e-06
3.42993e-06
3.89998e-06
3.1995e-06
-5.06232e-06
2.7966e-07
4.68955e-08
-1.11714e-07
3.36677e-06
-9.07297e-05
8.49781e-06
-5.06366e-06
-5.58106e-06
9.0457e-05
2.41963e-06
-2.1496e-05
-1.82693e-07
0.000257167
4.80537e-06
4.07013e-06
6.45336e-06
4.33645e-06
-1.08814e-06
4.38089e-08
-6.312e-07
-2.57841e-06
-1.2542e-06
0.000189139
-4.32314e-06
-1.69929e-06
-3.67545e-06
1.80728e-06
-1.0055e-06
1.75224e-06
-1.36183e-05
-8.48566e-07
3.33279e-06
1.19647e-05
1.85468e-06
-8.85131e-07
9.94847e-07
-1.96491e-06
-5.92724e-05
1.07225e-06
-2.25542e-06
6.02728e-05
-7.22941e-05
3.46923e-06
-5.03382e-06
1.21258e-06
7.13919e-05
-1.44452e-05
-3.67776e-06
3.70407e-06
1.44182e-05
-1.52072e-05
-2.73583e-06
2.91794e-06
1.50251e-05
-2.5071e-05
3.06404e-07
-8.6234e-07
2.56269e-05
2.07588e-06
2.85123e-07
-4.94495e-05
2.03011e-07
-2.58973e-06
4.94752e-05
7.11233e-07
-3.80859e-05
-1.68546e-06
3.65908e-06
-7.76476e-07
3.61775e-05
-3.72741e-05
-6.34477e-06
8.40482e-06
4.98845e-06
3.59498e-05
-5.72418e-06
1.70327e-07
3.45431e-07
-3.54636e-05
-1.90912e-06
7.6477e-08
3.67804e-05
-6.52616e-06
-7.94024e-06
0.000206501
3.38256e-06
2.84325e-06
3.33204e-06
3.92248e-06
2.26576e-06
2.07244e-06
2.3087e-06
3.18753e-06
-7.87664e-06
6.05071e-07
0.000148574
2.13408e-07
-3.27644e-07
1.32488e-06
6.79995e-07
1.97122e-06
6.77344e-06
9.50054e-05
-3.42528e-06
-4.8971e-06
-3.19069e-06
-5.13126e-06
-1.7493e-06
2.36846e-06
-8.82028e-07
-1.20972e-05
-7.58519e-06
8.28394e-06
1.33697e-05
-2.1668e-05
4.56331e-06
-5.42557e-06
2.25302e-05
3.2583e-06
-4.89975e-05
-5.62633e-07
-3.75718e-06
1.5372e-07
4.99053e-05
-1.28124e-05
-7.47675e-07
0.000222713
4.04001e-06
4.11813e-06
5.40306e-06
5.72519e-06
-4.91183e-06
3.23156e-06
0.000166142
-1.12169e-06
2.94292e-06
6.9945e-05
1.61557e-07
-1.07274e-06
-1.07144e-07
2.59136e-06
3.2258e-06
2.4668e-06
-3.12774e-06
-2.36682e-06
-1.18911e-06
1.43464e-06
4.12733e-06
-9.06081e-05
7.67678e-06
-4.89858e-06
-4.41255e-06
9.08564e-05
1.38607e-06
-1.99322e-05
-3.65671e-07
0.000259674
4.52257e-06
4.02559e-06
6.30357e-06
4.33677e-06
-1.17108e-06
-1.90053e-07
-7.83997e-07
-2.28551e-06
-9.77332e-07
0.000179866
-3.28861e-06
-1.65833e-06
-2.94546e-06
2.17496e-06
-6.51802e-07
2.20441e-06
-1.15567e-05
-1.0074e-06
2.83392e-06
1.03876e-05
1.71887e-06
-1.20659e-06
9.49071e-07
-1.46026e-06
-6.13626e-05
1.31548e-06
-2.53477e-06
6.22163e-05
-7.07295e-05
3.2309e-06
-4.40989e-06
9.29902e-07
7.00013e-05
-1.46681e-05
-3.26865e-06
2.95039e-06
1.49863e-05
-1.47938e-05
-2.46993e-06
2.74394e-06
1.45198e-05
-2.61366e-05
7.48129e-07
-1.22437e-06
2.66128e-05
1.81348e-06
-5.18569e-08
-4.9317e-05
6.76934e-07
-1.96902e-06
4.88474e-05
-2.63306e-07
-3.50554e-05
-2.17463e-06
3.10405e-06
6.27981e-08
3.43265e-05
-3.39236e-05
-5.69125e-06
7.59742e-06
5.47963e-06
3.13703e-05
-4.83243e-06
3.67445e-07
8.67516e-10
-3.80216e-05
-1.60568e-06
1.22951e-07
3.9136e-05
-6.87214e-06
-6.01647e-06
0.000199782
2.40604e-06
2.29982e-06
2.44753e-06
3.41975e-06
2.08075e-06
1.84728e-06
2.17163e-06
2.93514e-06
-7.64602e-06
8.48803e-07
0.000147542
1.1744e-07
-5.69798e-07
1.03029e-06
3.79222e-07
2.52862e-06
8.92936e-06
9.3678e-05
-4.7267e-06
-5.75016e-06
-3.99321e-06
-5.63631e-06
-3.18287e-07
2.53405e-06
1.14016e-07
-1.40682e-05
-7.51139e-06
9.63794e-06
1.44703e-05
-2.3204e-05
4.6929e-06
-5.10533e-06
2.36207e-05
3.35801e-06
-5.08678e-05
-7.38468e-07
-3.71315e-06
4.68567e-07
5.14928e-05
-1.25936e-05
-2.58947e-06
0.000214117
3.49582e-06
3.95752e-06
4.81501e-06
5.49415e-06
-7.09332e-06
4.4886e-06
0.000157002
-1.6875e-06
2.48348e-06
6.72903e-05
-9.16052e-07
-1.70833e-06
-6.39269e-07
1.98836e-06
2.88864e-06
2.0814e-06
-5.92505e-06
-4.7655e-06
-2.27125e-06
3.46994e-06
7.80435e-06
-9.16802e-05
6.81983e-06
-4.68694e-06
-3.91259e-06
9.26115e-05
8.48405e-07
-1.93525e-05
-7.52532e-07
0.000261786
4.46254e-06
3.7718e-06
6.22289e-06
4.11052e-06
-1.46033e-06
-6.2833e-07
-1.07605e-06
-2.16533e-06
-8.15524e-07
0.000170115
-2.80705e-06
-1.54085e-06
-2.56579e-06
2.46255e-06
-2.80871e-07
2.59942e-06
-1.07732e-05
-1.24334e-06
1.69491e-06
1.06397e-05
1.08914e-06
-1.99191e-06
1.50675e-06
-6.03978e-07
-6.32461e-05
1.39502e-06
-2.84796e-06
6.39465e-05
-6.92932e-05
3.22144e-06
-3.96426e-06
1.07535e-06
6.81452e-05
-1.52356e-05
-2.20554e-06
2.04475e-06
1.53964e-05
-1.42047e-05
-2.26172e-06
2.59217e-06
1.38742e-05
-2.70743e-05
1.17404e-06
-1.6434e-06
2.75436e-05
1.67282e-06
-2.74344e-07
-4.8273e-05
8.53218e-07
-1.52541e-06
4.75467e-05
-1.55339e-06
-3.42504e-05
-2.27175e-06
3.07383e-06
9.60429e-07
3.40413e-05
-2.89768e-05
-5.48528e-06
7.34919e-06
5.13494e-06
2.67903e-05
-4.81229e-06
6.15026e-07
-5.37974e-07
-4.03496e-05
-1.26782e-06
2.97576e-08
4.15106e-05
-5.99493e-06
-3.98568e-06
0.000193624
1.64089e-06
1.86603e-06
1.75384e-06
2.89121e-06
1.84699e-06
1.52162e-06
1.95492e-06
2.66313e-06
-6.72309e-06
1.39565e-06
0.000146619
-2.2106e-07
-6.95302e-07
7.95037e-07
3.76803e-07
2.49608e-06
1.11493e-05
9.14967e-05
-5.03116e-06
-5.9572e-06
-4.13172e-06
-5.73063e-06
1.29799e-07
2.41842e-06
1.15278e-07
-1.49074e-05
-7.24926e-06
9.25883e-06
1.53939e-05
-2.4194e-05
4.54869e-06
-5.22885e-06
2.48741e-05
3.48603e-06
-5.21623e-05
-8.25231e-07
-3.56986e-06
4.80961e-07
5.25904e-05
-1.16176e-05
-4.62623e-06
0.000210297
3.0302e-06
3.68957e-06
4.34985e-06
5.00842e-06
-8.89823e-06
5.13948e-06
0.000150539
-2.46429e-06
2.39437e-06
6.79422e-05
-1.49576e-06
-2.34394e-06
-1.20598e-06
1.94841e-06
2.86534e-06
1.90109e-06
-9.63462e-06
-5.38687e-06
-2.7201e-06
5.05853e-06
1.02188e-05
-9.37362e-05
6.28322e-06
-4.35516e-06
-3.47036e-06
9.45604e-05
7.18012e-07
-1.95635e-05
-1.23376e-06
0.000264097
4.32701e-06
3.74676e-06
6.05041e-06
4.11127e-06
-1.81034e-06
-1.15833e-06
-1.40662e-06
-2.19777e-06
-4.0549e-07
0.000158933
-2.42565e-06
-1.66594e-06
-2.27391e-06
2.72586e-06
2.65287e-07
2.73565e-06
-1.16647e-05
-1.41256e-06
1.5084e-06
1.17655e-05
-1.48976e-07
-2.84692e-06
2.29502e-06
7.00875e-07
-6.48725e-05
1.35225e-06
-3.25314e-06
6.55396e-05
-6.71431e-05
3.52287e-06
-4.02877e-06
1.55529e-06
6.56882e-05
-1.5518e-05
-1.56333e-06
1.50098e-06
1.55803e-05
-1.35501e-05
-2.35503e-06
2.7315e-06
1.31736e-05
-2.8028e-05
1.43485e-06
-1.9667e-06
2.85599e-05
1.68085e-06
-3.6781e-07
-4.6817e-05
9.1698e-07
-1.47904e-06
4.60661e-05
-2.10102e-06
-3.38482e-05
-1.92153e-06
3.29176e-06
1.22177e-06
3.33573e-05
-2.51909e-05
-5.70608e-06
7.41507e-06
4.88421e-06
2.39213e-05
-5.32366e-06
7.91409e-07
-8.73115e-07
-4.27227e-05
-1.06324e-06
4.97998e-09
4.38627e-05
-5.12989e-06
-2.59843e-06
0.000186611
1.23142e-06
1.59121e-06
1.41986e-06
2.64644e-06
1.74677e-06
1.46677e-06
1.90886e-06
2.73e-06
-5.71582e-06
3.62602e-06
0.000144193
-3.90089e-07
-7.58593e-07
4.12184e-07
1.22539e-07
2.19794e-06
1.16778e-05
9.24454e-05
-4.89116e-06
-5.79006e-06
-4.22091e-06
-5.59465e-06
-7.01967e-07
1.9605e-06
-1.302e-06
-1.60091e-05
-6.50229e-06
7.87904e-06
1.68302e-05
-2.54998e-05
4.37535e-06
-4.95565e-06
2.60801e-05
3.37584e-06
-5.31863e-05
-1.0181e-06
-3.3808e-06
5.87511e-07
5.36219e-05
-9.48776e-06
-6.79683e-06
0.000209961
2.61284e-06
3.09125e-06
3.95515e-06
4.36288e-06
-9.56283e-06
6.34729e-06
0.000147893
-2.83848e-06
2.13894e-06
7.07501e-05
-1.76697e-06
-2.32484e-06
-1.24241e-06
1.47627e-06
2.49208e-06
1.37244e-06
-1.05357e-05
-4.70406e-06
-1.83992e-06
4.1027e-06
1.01385e-05
-9.55879e-05
5.83242e-06
-4.13423e-06
-3.19009e-06
9.64083e-05
6.71491e-07
-1.90732e-05
-1.81141e-06
0.000266093
4.15861e-06
3.82054e-06
5.78458e-06
4.1101e-06
-2.21033e-06
-1.69766e-06
-1.8734e-06
-2.39905e-06
6.57722e-08
0.000148621
-2.20923e-06
-1.88642e-06
-2.13348e-06
2.77416e-06
6.01527e-07
2.77293e-06
-1.28657e-05
-1.72118e-06
1.53617e-06
1.27906e-05
-1.00609e-06
-2.0965e-06
2.3253e-06
7.77278e-07
-6.64368e-05
1.23751e-06
-3.66134e-06
6.70492e-05
-6.44645e-05
3.84302e-06
-3.91782e-06
1.80469e-06
6.28004e-05
-1.55811e-05
-1.18659e-06
1.20363e-06
1.55641e-05
-1.25362e-05
-1.93753e-06
3.0303e-06
1.14435e-05
-2.91087e-05
1.80874e-06
-2.32141e-06
2.96214e-05
1.41416e-06
-7.11503e-07
-4.53947e-05
1.25135e-06
-1.16817e-06
4.46088e-05
-3.19341e-06
-3.27415e-05
-1.87017e-06
3.78338e-06
2.58878e-06
3.14329e-05
-2.32422e-05
-6.15909e-06
7.29772e-06
5.08194e-06
2.27914e-05
-5.76973e-06
1.04353e-06
-1.00064e-06
-4.5028e-05
-1.07817e-06
-7.71341e-08
4.61404e-05
-4.31288e-06
-1.15315e-06
0.000178013
1.01227e-06
1.46448e-06
1.04869e-06
2.04926e-06
1.90343e-06
1.6891e-06
2.10551e-06
2.79155e-06
-4.07272e-06
7.35113e-06
0.000143587
-1.59481e-06
-1.92241e-06
-1.68933e-06
-1.77942e-06
1.43049e-06
1.12756e-05
9.68923e-05
-4.93133e-06
-5.32414e-06
-4.23907e-06
-4.6783e-06
-1.76603e-06
1.07522e-06
-1.36211e-06
-1.8252e-05
-5.4521e-06
5.27419e-06
1.98604e-05
-2.65938e-05
4.22402e-06
-4.70415e-06
2.70739e-05
3.25719e-06
-5.41786e-05
-1.17082e-06
-3.15347e-06
7.58789e-07
5.44869e-05
-5.88607e-06
-7.59987e-06
0.000210755
2.14636e-06
2.32985e-06
3.44802e-06
3.61458e-06
-8.27293e-06
8.16118e-06
0.000149469
-2.19276e-06
1.57966e-06
7.38587e-05
-1.3647e-06
-1.50109e-06
-8.24782e-07
1.05573e-06
1.97046e-06
1.1715e-06
-9.6735e-06
-2.15848e-06
-1.55099e-06
2.30138e-06
8.88884e-06
-9.74253e-05
5.48015e-06
-3.92453e-06
-2.9383e-06
9.82007e-05
6.07289e-07
-1.78421e-05
-2.31607e-06
0.000269076
3.7992e-06
3.73481e-06
5.40863e-06
3.93175e-06
-2.69443e-06
-2.17833e-06
-2.42677e-06
-2.51531e-06
4.33648e-07
0.00014056
-2.11527e-06
-1.82953e-06
-2.10336e-06