/*--------------------------------*- C++ -*----------------------------------*\
| =========                 |                                                 |
| \\      /  F ield         | OpenFOAM: The Open Source CFD Toolbox           |
|  \\    /   O peration     | Version:  5.x                                   |
|   \\  /    A nd           | Web:      www.OpenFOAM.org                      |
|    \\/     M anipulation  |                                                 |
\*---------------------------------------------------------------------------*/
FoamFile
{
    version     2.0;
    format      ascii;
    class       volVectorField;
    location    "8";
    object      U;
}
// * * * * * * * * * * * * * * * * * * * * * * * * * * * * * * * * * * * * * //

dimensions      [0 1 -1 0 0 0 0];

internalField   nonuniform List<vector> 
10571
(
(-0.239561 0.450779 1.31313)
(0.140414 0.197998 0.936251)
(-0.0607196 0.843268 2.29558)
(-0.94421 2.50675 5.0721)
(-0.411908 0.440603 1.1702)
(0.356612 0.431587 1.04296)
(0.648776 1.64267 4.2575)
(-1.24036 1.06125 4.2534)
(-0.81498 0.770529 1.61875)
(-0.239261 0.768397 2.23244)
(0.60357 0.359992 3.66193)
(0.483213 0.182264 3.00046)
(0.929298 -0.474514 2.58734)
(-0.320063 0.100351 2.99006)
(-1.70329 1.81152 4.71067)
(-0.981939 0.810657 2.86372)
(0.0181781 -0.403773 2.6553)
(0.919254 0.698172 2.51372)
(0.139104 0.619491 1.61667)
(-1.07568 0.128093 5.06047)
(-0.273907 0.270484 0.766629)
(0.213154 -0.174459 1.0645)
(-1.22352 1.30481 4.61269)
(-0.223659 -0.152626 1.3084)
(-0.113606 -0.001947 0.804774)
(-0.0438862 0.0681479 0.408481)
(0.109896 1.01364 2.33008)
(-0.808915 0.44119 1.9218)
(-0.0949626 0.196867 0.36637)
(0.0737152 -0.627334 1.30103)
(0.318699 0.712164 6.17126)
(-0.350683 0.384228 2.287)
(-0.232695 0.410212 1.55724)
(-0.372218 0.159017 1.08107)
(0.0498912 -0.0421259 1.26571)
(0.45535 0.0766015 1.778)
(0.790643 0.984469 5.21797)
(-0.604374 1.3563 3.29981)
(-0.0471232 0.68982 2.5411)
(-0.451163 0.598446 1.4461)
(0.840874 1.01492 2.29734)
(-0.230959 0.179317 3.25664)
(-0.127622 1.04269 3.28992)
(-0.0591795 0.667371 3.47474)
(-0.155397 0.29936 0.745419)
(-0.665943 -0.0895362 0.529584)
(1.91258 -0.976861 6.23823)
(0.277714 0.397723 1.43135)
(0.0176964 -0.0351512 0.312146)
(-0.391549 0.261388 0.82689)
(0.0591536 -2.32524 4.39588)
(-0.0242366 -0.473795 0.703684)
(-0.0960518 -0.0682655 0.0730618)
(-0.543907 -0.120114 0.766571)
(-0.0752302 1.1575 5.01979)
(0.337653 0.399351 2.15321)
(0.155263 0.337818 1.61968)
(-0.150105 0.289686 0.680042)
(-0.160565 0.0396214 1.46352)
(-0.188691 -0.0541873 1.07847)
(-0.139811 1.30621 4.33672)
(-0.0805531 0.480804 1.722)
(0.326353 0.414913 2.82649)
(-0.0887606 0.104545 1.37274)
(-0.034216 0.936344 1.71836)
(-0.801187 0.529033 3.05475)
(0.313383 1.13825 4.43224)
(0.252647 0.839818 3.92517)
(0.0409964 0.310985 0.839566)
(-0.391156 0.206219 0.814322)
(0.339517 -0.236393 4.5404)
(0.647761 -0.439406 3.42791)
(0.439448 0.0453336 1.42452)
(-0.228147 0.215737 0.735676)
(-0.185466 -1.20717 3.2069)
(0.45065 -1.94907 2.59365)
(-0.203246 -0.0954106 -0.128498)
(-0.881537 0.111152 1.53834)
(-0.390712 0.201612 2.99996)
(0.169512 0.0253256 1.51449)
(0.0658144 -0.194129 2.10792)
(-0.0472827 0.133534 0.407125)
(0.0700933 0.24346 1.81238)
(-0.183961 0.0660168 0.463569)
(-0.590231 1.57972 5.65259)
(-0.0541993 0.0991795 2.75072)
(-0.00954684 -0.00838086 2.79399)
(-0.0141463 -0.0380722 1.22143)
(-0.64347 -0.400828 1.6037)
(-0.598986 0.569851 2.5313)
(-0.100116 0.208066 1.52992)
(0.871022 0.797793 4.1035)
(-0.0401869 0.170253 1.43748)
(-0.582333 0.328474 1.54013)
(-0.25636 0.225726 2.68315)
(0.466474 -0.294335 3.27367)
(0.528229 -0.0227272 2.40032)
(0.0241008 -0.276548 0.396263)
(-0.137156 -0.456753 2.50229)
(0.068295 -0.721099 2.2321)
(-0.0897144 -0.0408545 -0.419509)
(-0.0862686 0.0214878 1.56171)
(-0.165247 -0.362269 2.60836)
(-0.217582 -0.0787929 1.4005)
(-0.322668 -0.286952 1.06992)
(-0.28968 -0.551961 0.558756)
(-0.0185512 -0.0520668 1.78966)
(-0.0586712 -0.0160919 0.868467)
(-0.516212 0.743684 3.46903)
(-0.054928 0.050954 1.78684)
(-0.309213 -0.289738 1.4323)
(-0.116203 -0.42689 0.930894)
(-0.965762 -0.865897 2.54937)
(-0.280535 0.593691 2.73116)
(-0.819476 -0.195885 2.68312)
(0.00375574 0.430272 3.19639)
(0.699341 -0.622294 2.03253)
(-0.208996 0.372824 2.10252)
(-0.597657 0.182889 3.51298)
(-0.419626 0.100346 2.89966)
(0.367027 0.0268251 2.95246)
(0.170313 -0.341147 0.875317)
(-0.157289 -0.158214 2.33139)
(-0.0130996 -0.349004 2.35424)
(-0.0681768 -0.0568737 -0.239589)
(0.350103 -0.080383 1.56653)
(0.0439004 -0.369009 2.43834)
(-0.358022 -0.0317795 1.3845)
(-0.520332 -0.200698 1.4809)
(-0.025037 -0.103167 0.223331)
(0.0129187 0.00589526 -0.00127037)
(-0.0567605 -0.211241 1.70935)
(0.514946 -0.0459416 1.60915)
(-0.476292 0.418084 3.62911)
(-0.153587 -0.174851 2.05122)
(-0.575317 -0.414173 1.8508)
(0.060067 -0.0566026 0.210098)
(0.0530137 0.0104114 0.0130009)
(-0.702338 -0.944583 3.3295)
(-0.33233 0.331219 2.58483)
(-0.869941 -0.481034 2.21914)
(-1.06061 -0.370016 2.74837)
(-0.10805 -0.25975 1.30277)
(-0.101017 0.155541 2.45522)
(-0.801125 -0.15913 3.31707)
(-0.676043 0.424937 3.05509)
(0.287072 0.0627625 2.95319)
(0.0312046 -0.196982 1.3507)
(-0.141376 -0.0435219 2.40174)
(0.0535989 -0.276235 2.41703)
(-0.0498981 -0.0634515 0.0680093)
(0.0538511 -0.0218789 1.13072)
(-0.0468122 -0.369324 2.26197)
(-0.343667 -0.0672243 1.33405)
(-0.377989 -0.249862 1.249)
(0.0467449 0.109277 0.144667)
(0.076931 0.0345575 -0.0167488)
(-0.101849 -0.302175 1.78152)
(0.281119 -0.173955 1.55326)
(-0.46034 0.21865 3.34822)
(-0.246758 -0.191189 1.96423)
(-0.390558 -0.383631 1.50244)
(0.23603 0.0258835 0.380856)
(0.236567 0.118754 0.166145)
(-0.515891 -0.854635 3.55546)
(-0.293607 0.109759 2.5053)
(-0.866776 -0.460307 2.26738)
(-0.661315 -0.838717 2.28067)
(0.0492461 -0.15244 0.767269)
(0.397492 0.128958 0.363687)
(-0.0437101 0.0505215 2.58544)
(-0.968011 -0.117998 3.09681)
(-0.617419 0.173539 2.37604)
(0.295663 0.079823 2.83334)
(-0.0390262 -0.0745686 1.50884)
(-0.176901 -0.0250918 2.29595)
(0.17453 -0.252477 2.31645)
(0.245877 0.178419 0.584883)
(-0.0710226 -0.0304713 1.06796)
(-0.0825323 -0.390649 2.33223)
(-0.302039 -0.0698813 1.42512)
(-0.083976 -0.193744 0.85946)
(0.118897 -0.0751165 0.0582219)
(-0.0276742 -0.0254674 0.159488)
(-0.120399 -0.430829 2.05084)
(0.0231501 -0.336967 1.71022)
(-0.425912 0.0757509 3.08284)
(-0.268049 -0.161557 2.00366)
(-0.220339 -0.256931 1.2611)
(0.0629456 -0.0371469 0.0832444)
(0.13307 -0.0576297 0.127897)
(-0.522328 -0.68483 3.50748)
(-0.249243 0.044479 2.61904)
(-0.741249 -0.317781 2.33798)
(-0.637047 -0.584129 1.542)
(0.0662007 -0.0947843 0.0452997)
(0.429338 0.0239543 0.464874)
(-0.00977047 0.0306366 2.75304)
(-0.739283 -0.13421 3.16973)
(-0.411077 0.32092 1.39765)
(0.416296 0.0951959 2.61151)
(-0.0333684 -0.0626817 1.58637)
(-0.167425 -0.0596751 2.21571)
(0.237842 -0.179715 2.1687)
(0.495235 0.335398 1.05445)
(-0.0301612 -0.0366397 1.14664)
(-0.105907 -0.39093 2.35781)
(-0.23459 -0.0636588 1.51863)
(-0.0546096 -0.117818 0.9168)
(-0.137994 0.135804 0.17763)
(-0.730391 -0.0626891 0.0354157)
(-0.145654 -0.56747 2.4114)
(-0.0463938 -0.168959 1.78925)
(-0.385869 0.00742471 2.89343)
(-0.249301 -0.10728 2.0019)
(-0.0882335 -0.0701265 1.26324)
(0.00940855 0.181815 0.0811935)
(-0.242412 -0.0612588 0.212892)
(-0.511766 -0.557924 3.55772)
(-0.236858 0.0559659 2.66096)
(-0.670104 -0.225106 2.30799)
(-0.373115 -0.10912 1.08295)
(-0.151711 0.189052 0.0482314)
(0.0136114 -0.00267524 2.78348)
(-0.498011 -0.120681 3.03495)
(-0.406163 0.231613 1.37802)
(0.529859 0.0835501 2.38113)
(-0.0276592 -0.0574707 1.68056)
(-0.12012 -0.111907 2.16322)
(0.292196 -0.06088 2.00622)
(0.534769 0.367574 1.30301)
(-0.0374523 -0.0299016 1.30253)
(-0.103813 -0.378968 2.31452)
(-0.210175 -0.0601125 1.52399)
(-0.116066 -0.0541879 0.919847)
(-0.577724 0.075319 0.413899)
(-0.133768 -0.617714 2.69703)
(-0.0904932 -0.0471941 1.97909)
(-0.315406 -0.0254144 2.67185)
(-0.218481 -0.0304215 1.9231)
(0.0246464 0.125364 0.984082)
(-0.297188 -0.0755277 0.305171)
(-0.456375 -0.419489 3.58385)
(-0.254279 0.0716992 2.68758)
(-0.636165 -0.178947 2.18131)
(-0.0729247 0.1812 0.654298)
(-0.0795089 0.060546 -0.0797423)
(-0.037045 -0.0170058 2.89418)
(-0.422826 -0.102893 2.90973)
(-0.435647 0.173215 1.33277)
(0.557701 0.0548062 2.21498)
(-0.0148772 -0.0717308 1.76878)
(-0.0889802 -0.134566 2.16314)
(0.217157 -0.0509555 1.81254)
(0.524411 0.417499 1.45883)
(-0.0475424 -0.0168889 1.45955)
(-0.0603345 -0.306282 2.20398)
(-0.184113 -0.0647701 1.51148)
(-0.100281 0.0190251 1.00129)
(-0.0546886 0.500854 0.4904)
(-0.144786 -0.637551 2.95563)
(-0.118776 0.0194398 2.08341)
(-0.261625 -0.0433935 2.45763)
(-0.209525 0.0470541 1.86157)
(0.0945123 0.19995 0.879398)
(-0.19579 -0.138445 0.146881)
(-0.370529 -0.30139 3.53699)
(-0.268429 0.0648326 2.69935)
(-0.579742 -0.102787 2.06909)
(0.0432924 0.26509 0.538483)
(0.00230256 0.0840649 -0.176228)
(-0.0644557 -0.0447981 3.01215)
(-0.363217 -0.0931174 2.8454)
(-0.361571 0.167656 1.31235)
(0.537145 0.0503622 2.16566)
(0.0164402 -0.082975 1.8475)
(-0.052647 -0.125218 2.17387)
(0.157347 -0.0789919 1.62718)
(0.457535 0.431711 1.44482)
(-0.0451712 -0.00226174 1.59545)
(-0.0461275 -0.221148 2.10128)
(-0.180096 -0.0705339 1.49944)
(-0.109535 0.118529 1.02411)
(0.243052 0.675397 0.649653)
(-0.126609 -0.623983 3.17777)
(-0.143174 0.0658571 2.18759)
(-0.230067 -0.0540878 2.29507)
(-0.233091 0.0936183 1.73498)
(0.0716381 0.162674 0.776983)
(-0.147872 0.0101744 0.117354)
(-0.335104 -0.193591 3.57633)
(-0.261582 0.0403273 2.7262)
(-0.518433 -0.0160041 1.96122)
(0.0349467 0.233101 0.470354)
(0.00951906 0.0620289 -0.141716)
(-0.0987177 -0.0529974 3.12025)
(-0.301286 -0.104354 2.77531)
(-0.276013 0.166613 1.34838)
(0.474205 0.0523586 2.09926)
(0.0495682 -0.0904084 1.92181)
(-0.0219264 -0.0957174 2.15644)
(0.1805 0.0271547 1.51767)
(0.408422 0.426019 1.27733)
(-0.0199222 0.00340285 1.70243)
(-0.0540245 -0.144968 2.02657)
(-0.178614 -0.0674884 1.48813)
(-0.106445 0.239007 1.00797)
(0.298678 0.652615 0.717623)
(-0.101155 -0.623591 3.34074)
(-0.155594 0.0864079 2.25635)
(-0.193503 -0.0668828 2.18826)
(-0.244167 0.0992838 1.64379)
(-0.0023711 0.124387 0.711134)
(-0.157879 0.208655 0.25565)
(-0.291291 -0.145025 3.61293)
(-0.254229 -0.00606118 2.74469)
(-0.473695 0.0240003 1.85469)
(0.0206369 0.204117 0.461361)
(-0.0271575 0.132766 -0.0859418)
(-0.11806 -0.0703572 3.20226)
(-0.27494 -0.108773 2.70603)
(-0.174614 0.155923 1.3981)
(0.410093 0.0383595 2.00935)
(0.0810196 -0.104313 1.98959)
(-0.00800926 -0.0748828 2.10353)
(0.197629 0.124434 1.50394)
(0.421444 0.393089 1.0865)
(0.0145606 -0.00453614 1.80708)
(-0.0386215 -0.0640623 1.96607)
(-0.157903 -0.0593325 1.48707)
(-0.0971436 0.311259 0.966313)
(0.2918 0.620021 0.764536)
(-0.11345 -0.594017 3.51749)
(-0.157593 0.100669 2.30184)
(-0.165428 -0.0795917 2.12657)
(-0.224461 0.108988 1.54172)
(-0.0878383 0.134036 0.704699)
(-0.171851 0.336071 0.403114)
(-0.256649 -0.109928 3.68848)
(-0.270344 -0.0588805 2.77165)
(-0.434932 0.0438238 1.72235)
(-0.00163704 0.194372 0.49345)
(-0.0800579 0.218792 0.0462947)
(-0.134905 -0.0919852 3.28281)
(-0.290442 -0.079674 2.62351)
(-0.101153 0.127788 1.41924)
(0.39558 0.0369434 1.91855)
(0.113445 -0.116064 2.06167)
(0.0159423 -0.08035 2.03736)
(0.17893 0.155085 1.47834)
(0.447023 0.383499 0.956083)
(0.0351068 -0.0109376 1.913)
(-0.0350905 -0.00501664 1.89628)
(-0.129683 -0.0255963 1.45795)
(-0.0907457 0.332327 0.96554)
(0.260232 0.538155 0.822531)
(-0.107442 -0.560969 3.69467)
(-0.15397 0.124642 2.35365)
(-0.127675 -0.0908299 2.11168)
(-0.186455 0.141433 1.49215)
(-0.148816 0.12576 0.721404)
(-0.169604 0.305736 0.415841)
(-0.236539 -0.0928712 3.76345)
(-0.291459 -0.121046 2.79751)
(-0.388939 0.064811 1.61326)
(-0.0431203 0.178627 0.545856)
(-0.0879431 0.181133 0.090595)
(-0.146468 -0.114305 3.36211)
(-0.295503 -0.0434138 2.50723)
(-0.0525866 0.0908499 1.41969)
(0.290639 0.0738639 1.73756)
(0.130782 -0.13666 2.13979)
(0.0462219 -0.0520167 1.97808)
(0.174078 0.250104 1.42076)
(0.448795 0.396943 0.89577)
(0.0341929 -0.0254333 2.01233)
(-0.0706675 0.0214131 1.81628)
(-0.0668029 0.0537074 1.42563)
(-0.0919376 0.321719 0.98317)
(0.179251 0.468001 0.956902)
(-0.0968282 -0.537817 3.85064)
(-0.145192 0.142047 2.39537)
(-0.0692884 -0.0652771 2.11158)
(-0.123602 0.183133 1.48712)
(-0.162474 0.108823 0.761414)
(-0.112599 0.150042 0.358975)
(-0.221091 -0.0854067 3.83246)
(-0.303421 -0.183479 2.81304)
(-0.332694 0.0908023 1.50497)
(-0.0771708 0.139767 0.577479)
(-0.0748248 0.161646 0.0149805)
(-0.156572 -0.131276 3.43911)
(-0.279029 -0.0145435 2.37696)
(-0.0372066 0.056304 1.39874)
(0.299368 0.0692045 1.29707)
(0.152811 -0.149218 2.21026)
(0.115238 -0.0252205 1.89359)
(0.273702 0.405258 1.25022)
(0.364868 0.350881 0.875976)
(0.0328064 -0.043579 2.10934)
(-0.100368 0.045638 1.73461)
(0.0585574 0.129096 1.443)
(-0.0912379 0.290075 1.04331)
(0.102877 0.417034 1.09963)
(-0.089334 -0.513574 3.97362)
(-0.139539 0.146321 2.41925)
(-0.0158319 -0.0221851 2.1311)
(-0.0234666 0.226654 1.52802)
(-0.127951 0.0989167 0.798607)
(-0.0230276 0.170854 0.336455)
(-0.204808 -0.0788676 3.89946)
(-0.297593 -0.239727 2.85648)
(-0.27305 0.118944 1.44353)
(-0.0805175 0.115954 0.575212)
(-0.0831269 0.187276 -0.0244867)
(-0.169413 -0.142623 3.51504)
(-0.283283 0.041172 2.22711)
(-0.0445026 0.0470915 1.31589)
(0.390658 0.0598396 0.894807)
(0.159161 -0.153506 2.30004)
(0.0778173 0.120754 1.83769)
(0.382632 0.428867 1.0944)
(0.244812 0.240979 0.891342)
(0.0322985 -0.0811221 2.21423)
(-0.0565591 0.117664 1.65569)
(0.175909 0.161192 1.47432)
(-0.0276573 0.236633 1.12343)
(0.0817823 0.416208 1.12936)
(-0.0854597 -0.483325 4.06537)
(-0.129995 0.157786 2.4314)
(0.0171971 0.0127895 2.12478)
(0.0881605 0.246524 1.58351)
(-0.0673743 0.100468 0.838915)
(0.0188411 0.279051 0.369257)
(-0.188233 -0.0645709 3.95372)
(-0.255608 -0.270079 2.90991)
(-0.222338 0.122143 1.40253)
(-0.0866834 0.119345 0.584376)
(-0.107719 0.237714 -0.022044)
(-0.16601 -0.148581 3.58358)
(-0.273969 0.0903201 2.10358)
(-0.0594796 0.0374199 1.24687)
(0.271449 0.0514924 0.724026)
(0.16843 -0.163809 2.37237)
(0.117799 0.288511 1.80928)
(0.358608 0.335365 1.03767)
(0.0773957 0.141929 0.90641)
(0.0353141 -0.0934094 2.30544)
(0.0493153 0.23121 1.54626)
(0.219805 0.141616 1.48632)
(-0.00397006 0.178955 1.17128)
(0.0970313 0.411266 1.07581)
(-0.0873483 -0.448312 4.14536)
(-0.127418 0.174584 2.43789)
(0.0376932 0.0446164 2.13574)
(0.178897 0.261159 1.62635)
(-0.052246 0.132695 0.859311)
(0.0104703 0.390347 0.445126)
(-0.17013 -0.0478739 3.99376)
(-0.211721 -0.284057 2.95182)
(-0.185126 0.113421 1.40092)
(-0.0952284 0.138569 0.617827)
(-0.128903 0.288262 0.0248516)
(-0.155337 -0.154811 3.64357)
(-0.244563 0.106035 2.01114)
(-0.114668 0.0127654 1.0842)
(0.137131 0.032661 0.640982)
(0.156674 -0.147206 2.4666)
(0.246652 0.242295 1.54786)
(0.234683 0.213976 1.08186)
(0.001616 0.0610368 0.893419)
(0.0374807 -0.100987 2.38395)
(0.114354 0.268441 1.43565)
(0.213007 0.11798 1.48543)
(-0.0209713 0.152981 1.17715)
(0.106156 0.382824 0.978202)
(-0.0876247 -0.412639 4.21605)
(-0.128563 0.19169 2.43957)
(0.0671489 0.0676764 2.17188)
(0.226899 0.266315 1.65887)
(-0.068729 0.193781 0.914583)
(-0.0188913 0.418289 0.536236)
(-0.151213 -0.0288367 4.01979)
(-0.183253 -0.309651 3.00842)
(-0.158253 0.0978943 1.42993)
(-0.10922 0.183244 0.693576)
(-0.151985 0.34406 0.127729)
(-0.143344 -0.160724 3.69164)
(-0.203076 0.100087 1.97204)
(-0.158902 0.016041 0.818641)
(0.0399667 0.0155187 0.616395)
(0.199484 -0.147211 2.59946)
(0.15277 0.177864 1.15753)
(0.034122 0.0996321 1.17058)
(-0.0787127 0.00484621 0.802298)
(0.037951 -0.0868231 2.49483)
(0.134247 0.230589 1.3273)
(0.194161 0.119985 1.46627)
(-0.0309662 0.149101 1.15743)
(0.0911896 0.329474 0.875284)
(-0.085814 -0.380901 4.28493)
(-0.133808 0.18773 2.42888)
(0.111215 0.0776903 2.20016)
(0.241681 0.256806 1.7196)
(-0.0601689 0.25282 0.976129)
(-0.051273 0.391239 0.533561)
(-0.139355 -0.0100381 4.03014)
(-0.15379 -0.338561 3.0744)
(-0.14566 0.087196 1.49399)
(-0.0990128 0.249203 0.796227)
(-0.164558 0.343604 0.24308)
(-0.144477 -0.168044 3.73114)
(-0.183658 0.0807768 1.93542)
(-0.184351 0.0867489 0.650738)
(-0.0186414 0.00439576 0.623024)
(0.192857 -0.117416 2.67456)
(0.0394502 0.119674 0.966755)
(-0.0478125 0.00405179 1.20214)
(-0.0159262 0.0133137 0.682079)
(0.0697499 -0.097994 2.61739)
(0.12237 0.177461 1.23232)
(0.133104 0.119344 1.42738)
(-0.00021236 0.129257 1.11007)
(0.107801 0.298142 0.783458)
(-0.0840249 -0.359162 4.34361)
(-0.150072 0.165925 2.38922)
(0.135299 0.0804113 2.21344)
(0.230309 0.249237 1.8033)
(0.00316035 0.327776 1.03546)
(-0.070124 0.345059 0.523452)
(-0.136158 0.00504919 4.0275)
(-0.113656 -0.350915 3.14615)
(-0.151231 0.0836917 1.5812)
(-0.061662 0.31609 0.899465)
(-0.143972 0.303968 0.331444)
(-0.156816 -0.174142 3.75857)
(-0.202498 0.0663652 1.88592)
(-0.208926 0.151039 0.641008)
(-0.0376654 -0.00454637 0.663156)
(0.0562936 -0.101356 2.81383)
(-0.0286514 0.0845801 0.916375)
(-0.0672164 -0.0703506 1.16359)
(0.0832104 0.0243194 0.617297)
(0.0474441 -0.100345 2.69625)
(0.0627567 0.129256 1.16851)
(0.026972 0.0421441 1.35876)
(0.0455097 0.147695 0.979331)
(0.103175 0.246627 0.751146)
(-0.0837001 -0.340819 4.40242)
(-0.152226 0.1567 2.35366)
(0.136881 0.0698002 2.2213)
(0.204675 0.242497 1.83866)
(0.0836906 0.393512 1.06405)
(-0.0768091 0.277875 0.523359)
(-0.135228 0.0220411 4.01601)
(-0.0566269 -0.344317 3.21848)
(-0.161164 0.0727525 1.66694)
(0.00114633 0.376327 1.00419)
(-0.111781 0.239065 0.436822)
(-0.161108 -0.176482 3.78698)
(-0.219196 0.0632122 1.82734)
(-0.219656 0.179371 0.689371)
(-0.0285726 -0.00747348 0.724673)
(-0.0317691 -0.135817 2.94742)
(-0.0876859 0.0461787 0.940804)
(-0.108099 -0.0899684 1.11608)
(0.128961 0.0350247 0.606439)
(0.00814605 -0.0940513 2.76863)
(-0.0314454 0.111046 1.15258)
(-0.0628897 0.0191316 1.22461)
(0.0355445 0.217647 0.835377)
(0.0475903 0.185529 0.735972)
(-0.079862 -0.314742 4.45769)
(-0.130004 0.141773 2.30392)
(0.150147 0.0519619 2.2194)
(0.192648 0.238286 1.83419)
(0.148348 0.41272 1.07823)
(-0.0653622 0.212955 0.566191)
(-0.136406 0.0319602 3.99819)
(-0.00365889 -0.330775 3.28495)
(-0.159527 0.0689286 1.72989)
(0.0394432 0.417638 1.08287)
(-0.068937 0.174944 0.59107)
(-0.155075 -0.17311 3.82087)
(-0.23275 0.073224 1.77991)
(-0.239619 0.219617 0.807071)
(-0.0110747 -0.00272393 0.800262)
(0.0361333 -0.13019 3.0226)
(-0.148287 -0.0715897 0.989291)
(-0.131732 -0.100143 0.976426)
(0.139515 0.054625 0.601057)
(0.0163567 -0.142681 2.86844)
(-0.111198 0.150182 1.20109)
(-0.0951189 0.0944643 1.067)
(-0.00384532 0.257179 0.721271)
(-0.0233517 0.172973 0.665955)
(-0.0791787 -0.297976 4.48982)
(-0.136586 0.00343407 2.20265)
(0.177965 0.0562191 2.20694)
(0.189009 0.24168 1.80946)
(0.188914 0.404636 1.08167)
(-0.0571785 0.151312 0.663314)
(-0.14003 0.035481 3.97278)
(0.0513136 -0.314556 3.34468)
(-0.135779 0.0839839 1.79514)
(0.015775 0.447931 1.1508)
(-0.0342718 0.133792 0.782551)
(-0.133082 -0.165111 3.86125)
(-0.238408 0.0887782 1.77234)
(-0.267199 0.233472 0.947066)
(0.00418452 0.00580531 0.8228)
(0.244219 0.221716 2.73537)
(-0.145601 -0.176912 1.0771)
(-0.102818 -0.0708906 0.809217)
(0.125309 0.0821723 0.563383)
(0.0602437 -0.0367698 2.9773)
(-0.190454 0.179502 1.27768)
(-0.087695 0.149598 0.919211)
(-0.0518337 0.256843 0.621491)
(-0.0595511 0.165747 0.551571)
(-0.0808372 -0.289234 4.50914)
(-0.1608 -0.0436166 2.07279)
(0.193764 0.100501 2.20078)
(0.19006 0.271116 1.79068)
(0.204938 0.380731 1.07694)
(-0.034535 0.0461825 0.815887)
(-0.143278 0.0480054 3.94958)
(0.130377 -0.287015 3.3965)
(-0.101906 0.096496 1.90733)
(-0.020096 0.473835 1.22026)
(-0.0220244 0.126153 0.976227)
(-0.0973476 -0.155124 3.91213)
(-0.23028 0.0963736 1.81812)
(-0.299808 0.240066 1.09471)
(0.0156664 0.00509907 0.759858)
(0.0665051 0.107604 2.19561)
(-0.138807 -0.178589 1.16608)
(-0.0772472 -0.0189316 0.683088)
(0.111568 0.095802 0.50071)
(0.0213726 0.0021901 3.05112)
(-0.275979 0.148796 1.30799)
(-0.0751926 0.140355 0.791682)
(-0.090134 0.242668 0.532013)
(-0.0662551 0.101842 0.455913)
(-0.0844765 -0.276551 4.54506)
(-0.184298 0.035375 1.99251)
(0.157973 0.148754 2.20113)
(0.159331 0.294458 1.78974)
(0.207694 0.340394 1.0509)
(0.0464106 -0.0280069 0.983743)
(-0.154485 0.0637363 3.92595)
(0.198423 -0.250267 3.44796)
(-0.0635129 0.102189 2.05788)
(-0.0261558 0.482018 1.28623)
(-0.0142843 0.137288 1.17883)
(-0.0415196 -0.139127 3.98227)
(-0.214162 0.102217 1.92145)
(-0.322096 0.246161 1.25739)
(0.0347739 0.00364358 0.675792)
(-0.00362333 -0.114655 2.35218)
(-0.111908 -0.0926834 1.25)
(-0.0594862 0.00442431 0.57388)
(0.0937525 0.0967253 0.436341)
(-0.00612672 0.101974 3.12803)
(-0.31257 0.0650171 1.28104)
(-0.0601886 0.111527 0.675172)
(-0.113686 0.232037 0.453329)
(-0.0604351 0.0311042 0.401831)
(-0.084371 -0.262407 4.58234)
(-0.177681 0.127123 2.03508)
(0.0753673 0.175874 2.20416)
(0.0891245 0.326676 1.74251)
(0.197572 0.255838 0.971224)
(0.112126 -0.0654501 1.11853)
(-0.162104 0.0757313 3.89719)
(0.236924 -0.217321 3.50618)
(-0.0372783 0.120388 2.20887)
(-0.00897573 0.446066 1.36919)
(-0.0209161 0.159115 1.37016)
(0.0199387 -0.119199 4.07356)
(-0.186654 0.099605 2.05556)
(-0.322144 0.243021 1.41696)
(0.0479936 0.00619223 0.593241)
(0.0289324 -0.163873 2.6707)
(-0.0905752 -0.0300986 1.35032)
(-0.0531 0.00572092 0.482763)
(0.082899 0.0970959 0.375651)
(-0.0125349 0.130731 3.15637)
(-0.256912 -0.0569391 1.24048)
(-0.0357191 0.0969889 0.563671)
(-0.123013 0.222986 0.39243)
(-0.0523613 -0.0153957 0.379929)
(-0.0800167 -0.239974 4.62659)
(-0.147924 0.226854 2.1633)
(-0.00204055 0.18993 2.20956)
(0.0511636 0.371824 1.63869)
(0.17819 0.181686 0.893935)
(0.0949888 -0.0854637 1.21084)
(-0.164318 0.0834915 3.8627)
(0.260203 -0.204821 3.55408)
(-0.0166235 0.135212 2.37042)
(0.0366437 0.401132 1.46581)
(-0.0226899 0.157141 1.48498)
(0.0662317 -0.104089 4.16933)
(-0.168485 0.0896962 2.19355)
(-0.290191 0.236217 1.5734)
(0.0635545 0.0056464 0.519857)
(0.0627917 -0.18078 2.97399)
(-0.0674112 -0.0040577 1.45906)
(-0.0539052 0.00140823 0.409194)
(0.0852831 0.103765 0.316852)
(-0.0100861 0.12465 3.13987)
(-0.145707 -0.159783 1.18476)
(-0.00617144 0.0963061 0.464249)
(-0.119622 0.208245 0.350324)
(-0.0425202 -0.0453205 0.366203)
(-0.0732696 -0.21573 4.66863)
(-0.120685 0.290987 2.28636)
(-0.0824934 0.213104 2.18513)
(0.113124 0.369111 1.54985)
(0.168065 0.136949 0.850796)
(0.0458353 -0.0951784 1.28655)
(-0.162472 0.0870276 3.81434)
(0.269269 -0.192117 3.58055)
(0.0199141 0.129102 2.5477)
(0.0939082 0.338999 1.55838)
(-0.0220387 0.143178 1.56062)
(0.0999389 -0.0881162 4.26322)
(-0.1629 0.0731474 2.33985)
(-0.269541 0.230314 1.72494)
(0.0892077 0.00309627 0.465789)
(0.105798 -0.201931 3.23069)
(-0.0326977 0.0123213 1.5667)
(-0.0499967 -0.00039143 0.360155)
(0.0962491 0.114882 0.263866)
(0.00459409 0.0953841 3.04639)
(-0.0348216 -0.182431 1.10661)
(0.0211104 0.101373 0.395417)
(-0.104807 0.194371 0.326615)
(-0.0323115 -0.06144 0.357479)
(-0.0670132 -0.195652 4.69751)
(-0.0816866 0.309698 2.36022)
(-0.184592 0.222116 2.09607)
(0.246275 0.275542 1.42921)
(0.161986 0.106669 0.848302)
(0.0050979 -0.0874728 1.34331)
(-0.157098 0.088821 3.75075)
(0.272943 -0.160328 3.59127)
(0.0780288 0.110907 2.72143)
(0.126371 0.287534 1.64092)
(-0.0167527 0.131957 1.63128)
(0.142257 -0.0640606 4.35704)
(-0.155275 0.0485197 2.48523)
(-0.258532 0.224186 1.86272)
(0.122675 0.00302825 0.429608)
(0.156022 -0.230002 3.42433)
(-0.0064196 0.0386476 1.6645)
(-0.0461741 0.00117253 0.333874)
(0.114889 0.135211 0.217162)
(0.0217898 0.0616987 2.87614)
(0.058036 -0.120954 1.01564)
(0.0343433 0.1177 0.363743)
(-0.0858482 0.188868 0.320107)
(-0.0241604 -0.0641074 0.3546)
(-0.0578507 -0.182327 4.71184)
(-0.049894 0.269776 2.40249)
(-0.293312 0.201012 1.94898)
(0.316989 0.168568 1.2878)
(0.139894 0.0856788 0.87449)
(-0.0238965 -0.0584223 1.37734)
(-0.153195 0.0916923 3.6834)
(0.304523 -0.106826 3.5848)
(0.145462 0.0960647 2.86104)
(0.149357 0.257404 1.72574)
(-0.00847188 0.111925 1.72287)
(0.198936 -0.0323308 4.43951)
(-0.135965 0.0248379 2.63802)
(-0.246605 0.215042 1.98898)
(0.163955 0.00232361 0.39897)
(0.199399 -0.248777 3.56148)
(0.0365144 0.131277 1.74093)
(-0.0321279 0.0129985 0.319465)
(0.122195 0.148098 0.179672)
(0.0434352 0.0753611 2.69252)
(0.130573 -0.00486389 0.921214)
(0.0269862 0.141588 0.360716)
(-0.0767029 0.187642 0.324865)
(-0.0225072 -0.060585 0.355062)
(-0.0541498 -0.187114 4.72394)
(-0.0461014 0.167176 2.39127)
(-0.352436 0.174998 1.78045)
(0.288105 0.10289 1.14892)
(0.112965 0.0692285 0.916994)
(-0.0447419 -0.0395302 1.37653)
(-0.140867 0.0971937 3.63158)
(0.344627 -0.0571785 3.55494)
(0.206393 0.0819496 2.9758)
(0.190367 0.23291 1.83284)
(0.000322573 0.0969167 1.82256)
(0.251728 0.0032856 4.50414)
(-0.0921412 0.000550617 2.80635)
(-0.191089 0.184987 2.11694)
(0.206718 0.00656927 0.370964)
(0.227209 -0.250683 3.63253)
(0.0941835 0.217356 1.82733)
(0.00959191 0.0368619 0.315622)
(0.127036 0.157514 0.140863)
(0.0625878 0.0848822 2.54897)
(0.156315 0.129204 0.816655)
(-0.00814182 0.159523 0.373493)
(-0.0828096 0.1836 0.336538)
(-0.029804 -0.0598227 0.355224)
(-0.0596121 -0.204681 4.74049)
(-0.0808492 0.0599583 2.34685)
(-0.337218 0.152529 1.61177)
(0.225988 0.0810916 1.02639)
(0.0899661 0.0536346 0.951178)
(-0.0629954 -0.0289769 1.34078)
(-0.120531 0.100663 3.60099)
(0.348145 -0.00470721 3.48585)
(0.267872 0.0897511 3.05053)
(0.24453 0.203194 1.96647)
(0.0155566 0.0904918 1.95157)
(0.296872 0.0356564 4.54713)
(-0.0264329 -0.0150285 2.99636)
(-0.107894 0.142284 2.26108)
(0.239712 0.0207327 0.331112)
(0.244717 -0.227071 3.6618)
(0.147452 0.175815 1.9966)
(0.0585532 0.0614499 0.31761)
(0.142371 0.170268 0.0925168)
(0.0598781 0.0786576 2.43779)
(0.117107 0.233683 0.722272)
(-0.0597811 0.160813 0.394301)
(-0.106223 0.171576 0.351279)
(-0.0472061 -0.0674783 0.350184)
(-0.0644006 -0.221079 4.77882)
(-0.116858 -0.0234797 2.30126)
(-0.255971 0.103315 1.4629)
(0.1771 0.0682431 0.929543)
(0.0733625 0.0330812 0.983342)
(-0.0680042 -0.0333567 1.29794)
(-0.0958613 0.106779 3.59651)
(0.329952 0.0589552 3.41509)
(0.293096 0.125633 3.1134)
(0.286167 0.167549 2.11663)
(0.0325246 0.0656074 2.10931)
(0.328657 0.0628878 4.56999)
(0.0512429 -0.0243974 3.21921)
(-0.0364411 0.101262 2.41258)
(0.257371 0.0348577 0.276132)
(0.247008 -0.226913 3.64471)
(0.260808 0.0809103 2.15433)
(0.122025 0.0861991 0.3299)
(0.171838 0.175936 0.0461184)
(0.0783817 0.0105125 2.38913)
(0.0227711 0.281979 0.681689)
(-0.109338 0.147676 0.416484)
(-0.140147 0.150013 0.368805)
(-0.0685828 -0.0793952 0.338565)
(-0.0611762 -0.244089 4.83429)
(-0.133386 0.00893457 2.25656)
(-0.134278 0.0181208 1.32937)
(0.145453 0.0405931 0.861059)
(0.0652233 0.00374667 1.0212)
(-0.0731553 -0.0584881 1.26146)
(-0.0826343 0.116043 3.61325)
(0.292114 0.0977746 3.34908)
(0.294815 0.153765 3.14511)
(0.313813 0.12572 2.27749)
(0.0561921 0.0211967 2.25872)
(0.343231 0.0831025 4.57882)
(0.124993 -0.0374078 3.46474)
(0.0263861 0.0675769 2.58109)
(0.258452 0.0360766 0.2209)
(0.282893 -0.278873 3.5578)
(0.324326 0.0440336 2.19551)
(0.17186 0.112733 0.357707)
(0.195342 0.168805 0.0213763)
(0.092808 -0.132769 2.4072)
(-0.0949682 0.293927 0.696137)
(-0.16751 0.123755 0.432531)
(-0.180034 0.118529 0.39167)
(-0.0917866 -0.0905566 0.321342)
(-0.0536465 -0.22395 4.89744)
(-0.0789209 0.174322 2.21461)
(-0.0300687 -0.0488164 1.20563)
(0.108803 0.00799882 0.819481)
(0.0539998 -0.0396185 1.07115)
(-0.0781061 -0.105194 1.23266)
(-0.0760196 0.138296 3.63185)
(0.263909 0.122444 3.23638)
(0.298366 0.162785 3.1412)
(0.338622 0.077912 2.42848)
(0.0877217 -0.0368875 2.37494)
(0.335643 0.0979823 4.57456)
(0.185524 -0.053628 3.71045)
(0.0634175 0.0320039 2.77981)
(0.262977 0.0291007 0.17576)
(0.242817 -0.296329 3.52598)
(0.253732 0.0829301 2.11713)
(0.168842 0.117938 0.381245)
(0.213172 0.149016 0.0203816)
(0.0296664 -0.266169 2.46473)
(-0.179325 0.288651 0.71044)
(-0.218407 0.113107 0.436081)
(-0.21853 0.0848649 0.416897)
(-0.111139 -0.085884 0.316865)
(-0.026838 -0.151608 4.96896)
(-0.0400081 0.19646 2.14811)
(0.0307939 -0.0418777 1.08982)
(0.0508523 0.00426909 0.793529)
(0.0309522 -0.0915196 1.12314)
(-0.0778891 -0.16348 1.20126)
(-0.0524486 0.1685 3.66615)
(0.262672 0.165934 3.07577)
(0.312001 0.162879 3.12464)
(0.363226 0.0139023 2.56247)
(0.127808 -0.10421 2.45849)
(0.311382 0.110441 4.56168)
(0.248553 -0.0633004 3.94301)
(0.10159 -0.00624843 2.94869)
(0.281966 0.0237125 0.132811)
(0.204592 -0.279846 3.6244)
(0.0406944 0.187695 1.79872)
(0.144373 0.106174 0.370086)
(0.232875 0.121818 0.043649)
(-0.00582233 -0.336346 2.59843)
(-0.182894 0.291623 0.685337)
(-0.238067 0.124759 0.4291)
(-0.245513 0.0599955 0.450506)
(-0.122627 -0.0631106 0.344142)
(-0.0133643 -0.100007 5.06006)
(-0.110789 -0.043555 2.09571)
(0.0583407 0.0485913 0.969023)
(-0.00670428 0.038076 0.789638)
(-0.00338427 -0.135118 1.16461)
(-0.0688221 -0.220268 1.1636)
(-0.030107 0.181995 3.73157)
(0.21109 0.177201 2.9194)
(0.327015 0.17911 3.09436)
(0.407196 -0.0268993 2.6732)
(0.190673 -0.177504 2.52588)
(0.275957 0.126899 4.55325)
(0.311052 -0.0601872 4.14785)
(0.161373 -0.050158 3.13609)
(0.331967 0.024498 0.0956743)
(0.306799 -0.224 3.67926)
(0.194737 0.153463 1.42804)
(0.184633 0.117106 0.326736)
(0.25313 0.105048 0.0896255)
(0.0798536 -0.255301 2.84981)
(-0.0482223 0.321964 0.595183)
(-0.204882 0.158534 0.427358)
(-0.251244 0.0511209 0.496081)
(-0.121171 -0.0318922 0.401026)
(-0.0248371 -0.0860009 5.15502)
(-0.181736 -0.15648 2.16343)
(0.0881175 0.195284 0.86289)
(-0.030612 0.100713 0.808877)
(-0.0423495 -0.157217 1.19858)
(-0.0461388 -0.262377 1.12599)
(-0.0172057 0.152612 3.78212)
(0.140188 0.126539 2.73855)
(0.320487 0.189966 3.04581)
(0.467075 -0.0572558 2.77748)
(0.249399 -0.238412 2.61942)
(0.24172 0.149167 4.54773)
(0.348963 -0.0471653 4.29622)
(0.253012 -0.0952923 3.35164)
(0.404033 0.0296753 0.0897651)
(0.432236 -0.150944 3.47716)
(0.521772 -0.0283158 1.0344)
(0.306373 0.150879 0.285673)
(0.292801 0.106797 0.15739)
(0.343005 0.0680636 3.18553)
(0.182069 0.354668 0.531608)
(-0.0886139 0.200503 0.460301)