/*--------------------------------*- C++ -*----------------------------------*\
| =========                 |                                                 |
| \\      /  F ield         | OpenFOAM: The Open Source CFD Toolbox           |
|  \\    /   O peration     | Version:  5.x                                   |
|   \\  /    A nd           | Web:      www.OpenFOAM.org                      |
|    \\/     M anipulation  |                                                 |
\*---------------------------------------------------------------------------*/
FoamFile
{
    version     2.0;
    format      ascii;
    class       volVectorField;
    location    "8";
    object      Us;
}
// * * * * * * * * * * * * * * * * * * * * * * * * * * * * * * * * * * * * * //

dimensions      [0 1 -1 0 0 0 0];

internalField   nonuniform List<vector> 
10571
(
(-0.0235699 0.0164846 -0.218287)
(-0.0369297 0.0953156 -0.07586)
(0.0444807 0.168342 -0.00434926)
(-0.0923892 0.191955 0.0549224)
(-0.0470985 0.120045 -0.202028)
(0.103061 0.0493148 -0.103363)
(0.299004 0.105013 0.128168)
(-0.0673833 0.128583 0.171645)
(-0.0801844 0.28816 -0.0696235)
(0.0604537 0.251145 0.0961603)
(0.0263356 0.111205 0.0495664)
(0.0405661 0.118281 0.0774555)
(0.0783474 -0.0610997 0.0878888)
(0.0475711 0.00140675 0.0521804)
(-0.125279 0.159639 0.189535)
(-0.138005 0.0847363 0.0700388)
(-0.0689071 0.0555012 0.0915416)
(0.0705224 -0.000846708 0.0775604)
(0.0639183 0.163257 -0.0176137)
(-0.124688 -0.0410106 0.151733)
(-0.036616 0.00720573 -0.0985965)
(-0.0373104 -0.0649317 -0.175895)
(0.0759262 0.0101611 0.0956099)
(0.0331853 -0.0431969 -0.0675673)
(-0.0291265 -0.0018579 -0.346418)
(-0.0808593 0.0941894 -0.150533)
(-0.0776792 0.146259 -0.154268)
(-0.0843911 0.121399 -0.195936)
(0.005314 0.0626086 -0.365514)
(-0.00233176 0.000804878 0.00590891)
(0.0753213 0.151069 0.345341)
(-0.0174461 0.287839 0.204863)
(-0.0695505 0.170922 0.0391895)
(-0.0565169 0.0275927 -0.0578082)
(0.0173597 0.046359 0.0269676)
(0.01181 0.0607482 0.205223)
(-0.0365766 0.212519 0.175671)
(-0.0498191 0.205302 0.159041)
(-0.0508038 0.195979 0.255518)
(-0.0768598 0.140143 -0.154506)
(0.0866847 0.132284 0.245037)
(-0.135139 0.0496416 -0.0300826)
(0.0422069 0.0927089 0.167489)
(0.0513522 0.086239 0.291269)
(-0.0347385 0.058918 -0.150058)
(-0.130055 -0.028363 -0.301647)
(0.0227902 -0.0397803 0.0725938)
(0.0572147 -0.0209934 -0.144458)
(-0.0169336 -0.00435965 -0.340726)
(-0.111919 0.047719 -0.192545)
(-0.170207 -0.0118866 0.0289247)
(-0.0134855 -0.0318583 -0.364725)
(-0.00357524 0.00960272 -0.420391)
(-0.222778 0.00941946 0.0593456)
(-0.0018654 0.273423 0.363689)
(0.101124 0.268785 0.212675)
(-0.0232633 0.120973 0.0950656)
(-0.0354573 0.0749451 -0.209986)
(0.0111362 0.0468266 -0.0376813)
(-0.0443014 0.107582 0.18938)
(-0.127563 0.194115 0.047339)
(-0.0253479 0.177042 0.0613042)
(0.0353297 0.114055 0.250135)
(0.000486437 0.0250713 -0.156205)
(0.0885277 0.193072 0.237329)
(-0.174028 0.083748 -0.103854)
(0.00592141 0.0378646 0.0682799)
(0.0731122 0.110526 0.314386)
(-0.0156703 0.0495062 -0.173995)
(-0.109859 0.0467146 -0.272386)
(-0.0706621 -0.0295276 -0.141878)
(-0.0486515 0.01417 -0.315717)
(0 0 0)
(-0.0721063 0.0389515 -0.342828)
(-0.154911 -0.0536395 -0.108395)
(0.0118097 -0.104847 -0.375577)
(-0.0437031 -0.0189143 -0.490506)
(-0.114099 0.0432031 -0.135259)
(-0.109414 0.138064 0.219618)
(0.0213383 0.0900506 -0.014999)
(0.060202 0.0639275 0.0281343)
(-0.00420827 0.0566541 -0.346797)
(-0.00338026 0.0781767 -0.260011)
(-0.111626 0.0903315 0.100382)
(-0.180425 0.177318 0.0398144)
(-0.0349747 0.0664408 -0.0959823)
(0.0752243 0.0246372 0.0721411)
(0.0374688 -0.0259832 -0.150659)
(-0.0255993 0.15558 0.159269)
(-0.142705 0.077853 -0.153909)
(-0.0578793 0.0757642 -0.21837)
(0.112945 0.0518554 0.231501)
(0.00205811 -0.0049108 -0.208406)
(-0.0869058 0.0754659 -0.2012)
(-0.0997565 0.140417 -0.237106)
(-0.064261 0.0274677 -0.203014)
(0 0 0)
(-0.0641334 -0.0130998 -0.272862)
(-0.0429332 -0.057298 -0.317194)
(0.0326313 -0.0702024 -0.42538)
(-0.0416359 -0.0368291 -0.522698)
(-0.12794 0.0366659 -0.127401)
(-0.140778 0.0368664 -0.172383)
(-0.0311909 0.0652288 -0.29515)
(0.0661374 0.0337605 -0.261871)
(0.0238391 0.0149641 -0.301204)
(-0.0256797 0.0755002 -0.15683)
(-0.0689165 0.0881776 -0.0686733)
(-0.15703 0.169501 -0.161955)
(-0.0249543 0.120313 -0.301087)
(0.0689111 0.0641509 -0.166357)
(0.0393279 -0.0272547 -0.133042)
(-0.132054 0.122604 0.223896)
(-0.113837 0.194046 -0.144531)
(-0.0591653 0.143572 -0.303226)
(0.0493606 0.146833 -0.144408)
(0.0113739 -0.0452848 -0.0875989)
(0.0462504 -0.012154 -0.106149)
(-0.124405 0.0805794 -0.202878)
(-0.0979195 0.0495606 -0.0824996)
(0 0 0)
(-0.0294845 -0.0378168 -0.201972)
(-0.0451621 -0.110474 -0.255353)
(0 0 0)
(-0.0429367 -0.0445915 -0.485804)
(-0.149956 0.0342462 -0.0761495)
(-0.0147713 0.0327887 -0.242603)
(-0.0688252 0.0234858 -0.39068)
(0.0636755 0.0316334 -0.289125)
(0.0513769 0.0058628 -0.219785)
(-0.000358636 0.00684024 -0.00537501)
(0.00916848 0.085419 -0.0819814)
(-0.0752899 0.104045 -0.0660448)
(-0.0298789 0.133526 -0.184121)
(-0.0185573 0.062647 -0.306797)
(0.0473683 0.0538737 -0.249995)
(0.127441 0.0519737 -0.225358)
(0.0104599 0.00311814 0.0014215)
(-0.0853278 0.0290899 0.289676)
(-0.0346887 0.173518 -0.12679)
(-0.0996047 0.112011 -0.251034)
(-0.0287677 0.106193 -0.200639)
(0.0906499 0.0768615 -0.131893)
(0.0671011 0.0341591 -0.0102558)
(-0.172148 0.0708873 -0.143174)
(-0.122662 0.100224 0.027385)
(0 0 0)
(1.36021e-14 2.80824e-15 -5.29741e-14)
(0 0 0)
(0 0 0)
(-0.0453713 -0.0510712 -0.428925)
(-0.130725 0.0510182 -0.136054)
(-0.0410605 0.0160042 -0.340059)
(-0.10395 0.00693993 -0.418959)
(-0.0117798 -0.03783 -0.311971)
(0.0339756 0.0224714 -0.238485)
(0.0636369 0.0311815 -0.0875394)
(-0.0251967 0.0767471 -0.0119426)
(-0.0981557 0.098737 -0.0280714)
(0.0190562 0.0588395 -0.105904)
(-0.0748379 0.0432147 -0.330608)
(-0.0740787 -0.0343169 -0.341996)
(0.0911685 -0.0158407 -0.30336)
(0.169527 -0.0139255 -0.181878)
(-0.0634812 0.0661848 0.335552)
(0.0392463 0.15257 -0.0422751)
(-0.164062 0.0843878 -0.262683)
(-0.112796 0.0436272 -0.308061)
(0.0443017 0.00447053 -0.0416413)
(0.206506 0.0540941 -0.0861879)
(0.0530112 0.0604327 0.0144827)
(-0.242251 0.0740236 -0.0978683)
(-0.106352 0.117391 0.0358273)
(0 0 0)
(0 0 0)
(0 0 0)
(0 0 0)
(0.0679577 -0.00888605 -0.676632)
(0 0 0)
(-0.26539 -0.111261 -0.247231)
(-0.0922328 0.0245391 -0.444014)
(-0.0426205 -0.0474935 -0.285044)
(0.035896 -0.0842062 -0.279786)
(0.0620355 -0.164059 -0.323995)
(-0.186116 0.0632501 0.0961086)
(-0.0764346 0.0345377 0.0753223)
(0.0292516 0.070243 -0.0685827)
(-0.0921965 0.0545416 -0.494789)
(-0.089596 0.0150879 -0.36003)
(0.0176439 -0.0387273 -0.279317)
(0.140319 -0.0893725 -0.252478)
(-0.0640181 0.107196 0.35569)
(0.0783384 0.0916357 0.0788943)
(-0.127923 0.0407542 -0.398251)
(-0.167889 0.0211033 -0.332378)
(0.00623249 -0.0223589 -0.178162)
(0.191926 -0.00570434 -0.0978126)
(0.107226 0.0133037 0.128219)
(-0.300311 0.0921496 -0.274374)
(-0.194737 0.1339 -0.16884)
(0 0 0)
(0 0 0)
(0 0 0)
(0 0 0)
(0 0 0)
(0 0 0)
(-0.0800889 0.00407845 -0.524372)
(-0.043087 0.028345 -0.486135)
(-0.060381 0.0188516 -0.325903)
(0.00388419 0.0374122 -0.423288)
(0 0 0)
(0 0 0)
(-0.0940877 -0.0285401 0.202124)
(0.00418425 0.08847 -0.0366605)
(-0.106563 0.0402977 -0.561674)
(-0.0462993 0.0795656 -0.566865)
(-0.0381413 0.112146 -0.479241)
(0.138508 -0.124962 -0.187416)
(-0.11745 0.169096 0.255443)
(0.039641 0.116773 0.0867532)
(-0.139343 0.0262407 -0.53164)
(-0.0671632 0.0679761 -0.596177)
(-0.0738456 0.143713 -0.516616)
(0.1593 -0.018996 0.314224)
(-0.0388351 -0.23092 0.0134473)
(0 0 0)
(0 0 0)
(0 0 0)
(0 0 0)
(0 0 0)
(0 0 0)
(0.134417 0.0192985 0.00855333)
(0 0 0)
(-0.0978107 -0.0204694 -0.465517)
(-0.0255279 0.0436099 -0.526113)
(0 0 0)
(-0.0970871 -0.00335043 0.232853)
(0 0 0)
(-0.044535 0.0974247 -0.415569)
(-0.0392036 0.0808288 -0.497135)
(-0.0665092 0.0792111 -0.617178)
(-0.0273511 0.0832085 -0.597022)
(0.0469144 -0.00450739 0.514139)
(0.0521335 0.00176713 -0.0857013)
(-0.0864826 0.124694 -0.481297)
(-0.0926899 0.0356799 -0.690499)
(-0.0807593 0.0626836 -0.542382)
(0.043571 0.197057 0.0271749)
(0 0 0)
(-0.0811569 -0.0920792 -0.426954)
(0 0 0)
(0 0 0)
(0 0 0)
(0 0 0)
(0 0 0)
(0 0 0)
(0 0 0)
(-0.047372 0.0255647 -0.51466)
(-0.00174648 0.0584991 -0.498242)
(0 0 0)
(0 0 0)
(0 0 0)
(0 0 0)
(-0.0928894 0.117739 -0.407411)
(-0.0446645 0.0651387 -0.621777)
(-0.0225521 0.0872656 -0.535018)
(0.0523773 0.0156982 0.302628)
(0.00932956 0.0624248 -0.0912253)
(-0.103791 0.0895551 -0.555452)
(-0.0751861 0.0954172 -0.714814)
(-0.0575296 0.133086 -0.655011)
(0 0 0)
(0 0 0)
(-0.0851589 0.184436 -0.644685)
(0 0 0)
(0 0 0)
(0 0 0)
(0 0 0)
(0 0 0)
(0 0 0)
(0 0 0)
(-0.049679 0.0484984 -0.445205)
(-0.0107722 0.07002 -0.501748)
(0 0 0)
(0 0 0)
(0 0 0)
(0 0 0)
(-0.0512435 0.0950624 -0.51775)
(-0.0423042 0.0831427 -0.569953)
(0.00327604 0.0758227 -0.551536)
(0.134979 -0.0979106 0.434258)
(-0.142274 0.092913 -0.296183)
(-0.0477093 0.128102 -0.46749)
(-0.0528617 0.0834558 -0.612449)
(-0.110595 0.0647252 -0.449147)
(0 0 0)
(0 0 0)
(0 0 0)
(0 0 0)
(0 0 0)
(0 0 0)
(-0.0424407 -0.0519781 -0.507717)
(0 0 0)
(0 0 0)
(0 0 0)
(-0.0456748 0.0328564 -0.411491)
(-5.70577e-05 0.051985 -0.454796)
(0.080414 0.0463318 -0.51576)
(0.131778 -0.0391555 0.278159)
(0 0 0)
(0 0 0)
(-0.00307819 0.0895101 -0.473859)
(-0.0683731 0.0644461 -0.604703)
(0.00389544 0.0635358 -0.622398)
(0 0 0)
(0 0 0)
(-0.0768398 0.111567 -0.45366)
(-0.136925 0.0355233 -0.666936)
(0 0 0)
(0 0 0)
(0 0 0)
(0 0 0)
(0 0 0)
(0 0 0)
(0 0 0)
(0 0 0)
(0 0 0)
(0 0 0)
(0 0 0)
(-0.0262976 0.053146 -0.404841)
(0.012808 0.0501937 -0.432808)
(0 0 0)
(0 0 0)
(0 0 0)
(0 0 0)
(-0.0104035 0.0879193 -0.455078)
(-0.0599236 0.0797016 -0.592144)
(-0.0335694 0.0714188 -0.595451)
(0 0 0)
(-0.0476346 0.0803113 -0.277433)
(-0.0187146 0.112407 -0.376559)
(-0.0825676 0.178213 -0.556167)
(0 0 0)
(0 0 0)
(0 0 0)
(0 0 0)
(0 0 0)
(0 0 0)
(0 0 0)
(0 0 0)
(0 0 0)
(0 0 0)
(0 0 0)
(-0.0248478 0.0551582 -0.434361)
(0.000918863 0.0441572 -0.4057)
(0.0429744 0.0553222 -0.41481)
(0 0 0)
(0 0 0)
(0 0 0)
(0.00431533 0.0916816 -0.393663)
(-0.0361637 0.0661373 -0.524096)
(0.0464018 0.100816 -0.525839)
(0 0 0)
(0 0 0)
(0.030106 0.095379 -0.43729)
(0 0 0)
(0 0 0)
(0 0 0)
(0 0 0)
(0 0 0)
(0 0 0)
(0 0 0)
(0 0 0)
(0 0 0)
(0 0 0)
(0 0 0)
(0 0 0)
(0 0 0)
(0.0140225 0.0407832 -0.403154)
(0 0 0)
(0 0 0)
(0 0 0)
(0 0 0)
(0.0284474 0.0674344 -0.444904)
(-0.0203798 0.0825071 -0.520894)
(5.71834e-14 4.6917e-14 -3.32386e-13)
(0 0 0)
(0 0 0)
(-0.0404544 -0.0303961 -0.323196)
(0.0288355 0.140995 -0.465513)
(-0.0708832 0.00208127 -0.527348)
(0 0 0)
(0 0 0)
(-0.077699 -0.0801667 -0.275069)
(0 0 0)
(0 0 0)
(0 0 0)
(0 0 0)
(0 0 0)
(0 0 0)
(0 0 0)
(0.0274572 0.0452457 -0.466473)
(0 0 0)
(0 0 0)
(0 0 0)
(0 0 0)
(0 0 0)
(0.0593514 0.0924259 -0.409238)
(-0.00901489 0.0724627 -0.476572)
(0.00522653 0.0997076 -0.531201)
(0 0 0)
(0 0 0)
(0 0 0)
(0.039365 0.10808 -0.483259)
(0 0 0)
(0 0 0)
(0 0 0)
(0 0 0)
(0 0 0)
(0 0 0)
(0 0 0)
(0 0 0)
(0 0 0)
(0 0 0)
(0 0 0)
(0 0 0)
(0.0478986 0.0620906 -0.472211)
(0 0 0)
(0 0 0)
(0 0 0)
(-0.0431559 0.0661175 -0.36152)
(0 0 0)
(-0.0312653 0.0811848 -0.472309)
(0.036852 0.052809 -0.559312)
(0 0 0)
(0 0 0)
(0.00615639 0.108318 -0.298897)
(0 0 0)
(-0.100389 -0.0110976 -0.454792)
(0 0 0)
(0 0 0)
(0 0 0)
(0 0 0)
(0 0 0)
(0 0 0)
(0 0 0)
(0 0 0)
(0 0 0)
(0 0 0)
(0 0 0)
(0 0 0)
(0 0 0)
(0 0 0)
(0 0 0)
(0.00704565 0.0804828 -0.259285)
(0 0 0)
(0.00496158 0.0791338 -0.45553)
(0 0 0)
(0 0 0)
(0 0 0)
(0 0 0)
(0 0 0)
(-0.0511741 0.0321608 -0.438235)
(0 0 0)
(0 0 0)
(0 0 0)
(0 0 0)
(0 0 0)
(0 0 0)
(0 0 0)
(0 0 0)
(0 0 0)
(0 0 0)
(0 0 0)
(-0.0163345 0.0955187 -0.445177)
(0 0 0)
(0 0 0)
(0 0 0)
(0 0 0)
(0 0 0)
(0.0370256 0.0903731 -0.357745)
(-0.0581994 0.089764 -0.511889)
(0 0 0)
(0 0 0)
(0 0 0)
(0 0 0)
(0 0 0)
(0 0 0)
(0 0 0)
(0 0 0)
(0 0 0)
(0 0 0)
(0 0 0)
(0 0 0)
(0 0 0)
(0 0 0)
(0 0 0)
(0 0 0)
(2.48677e-14 3.18578e-14 -2.03738e-13)
(0 0 0)
(0 0 0)
(0 0 0)
(0 0 0)
(0 0 0)
(0.03594 0.0851715 -0.380213)
(0 0 0)
(0 0 0)
(0 0 0)
(0 0 0)
(0 0 0)
(0 0 0)
(0 0 0)
(0 0 0)
(0 0 0)
(0 0 0)
(0 0 0)
(0 0 0)
(0 0 0)
(0 0 0)
(0 0 0)
(0 0 0)
(0 0 0)
(0.0365902 0.0554758 -0.34479)
(0 0 0)
(0 0 0)
(0 0 0)
(0 0 0)
(0 0 0)
(0 0 0)
(0 0 0)
(0 0 0)
(0 0 0)
(0 0 0)
(0 0 0)
(0 0 0)
(0 0 0)
(0 0 0)
(0 0 0)
(0 0 0)
(0 0 0)
(0 0 0)
(0 0 0)
(0 0 0)
(0 0 0)
(0 0 0)
(0 0 0)
(0 0 0)
(0 0 0)
(0 0 0)
(0 0 0)
(0 0 0)
(0 0 0)
(0 0 0)
(0 0 0)
(0 0 0)
(0 0 0)
(0 0 0)
(0 0 0)
(0 0 0)
(0 0 0)
(0 0 0)
(0 0 0)
(0 0 0)
(0 0 0)
(0 0 0)
(0 0 0)
(0 0 0)
(0 0 0)
(0 0 0)
(0 0 0)
(0 0 0)
(0 0 0)
(0 0 0)
(0 0 0)
(0 0 0)
(0 0 0)
(0 0 0)
(0 0 0)
(0 0 0)
(0 0 0)
(0 0 0)
(0 0 0)
(0 0 0)
(0 0 0)
(0 0 0)
(0 0 0)
(0 0 0)
(0 0 0)
(0 0 0)
(0 0 0)
(0 0 0)
(0 0 0)
(0 0 0)
(0 0 0)
(0 0 0)
(0 0 0)
(0 0 0)
(0 0 0)
(0 0 0)
(0 0 0)
(0 0 0)
(0 0 0)
(0 0 0)
(0 0 0)
(0 0 0)
(0 0 0)
(0 0 0)
(0 0 0)
(0 0 0)
(0 0 0)
(0 0 0)
(0 0 0)
(0 0 0)
(0 0 0)
(0 0 0)
(0 0 0)
(0 0 0)
(0 0 0)
(0 0 0)
(0 0 0)
(0 0 0)
(0 0 0)
(0 0 0)
(0 0 0)
(0 0 0)
(0 0 0)
(0 0 0)
(0 0 0)
(0 0 0)
(0 0 0)
(0 0 0)
(0 0 0)
(0 0 0)
(0 0 0)
(0 0 0)
(0 0 0)
(0 0 0)
(0 0 0)
(0 0 0)
(0 0 0)
(0 0 0)
(0 0 0)
(0 0 0)
(0 0 0)
(0 0 0)
(0 0 0)
(0 0 0)
(0 0 0)
(0 0 0)
(0 0 0)
(0 0 0)
(0 0 0)
(0 0 0)
(0 0 0)
(0 0 0)
(0 0 0)
(0 0 0)
(0 0 0)
(0 0 0)
(0 0 0)
(0 0 0)
(0 0 0)
(0 0 0)
(0 0 0)
(0 0 0)
(0 0 0)
(0 0 0)
(0 0 0)
(0 0 0)
(0 0 0)
(0 0 0)
(0 0 0)
(0 0 0)
(0 0 0)
(0 0 0)
(0 0 0)
(0 0 0)
(0 0 0)
(0 0 0)
(0 0 0)
(0 0 0)
(0 0 0)
(0 0 0)
(0 0 0)
(0 0 0)
(0 0 0)
(0 0 0)
(0 0 0)
(0 0 0)
(0 0 0)
(0 0 0)
(0 0 0)
(0 0 0)
(0 0 0)
(0 0 0)
(0 0 0)
(0 0 0)
(0 0 0)
(0 0 0)
(0 0 0)
(0 0 0)
(0 0 0)
(0 0 0)
(0 0 0)
(0 0 0)
(0 0 0)
(0 0 0)
(0 0 0)
(0 0 0)
(0 0 0)
(0 0 0)
(0 0 0)
(0 0 0)
(0 0 0)
(0 0 0)
(0 0 0)
(0 0 0)
(0 0 0)
(0 0 0)
(0 0 0)
(0 0 0)
(0 0 0)
(0 0 0)
(0 0 0)
(0 0 0)
(0 0 0)
(0 0 0)
(0 0 0)
(0 0 0)
(0 0 0)
(0 0 0)
(0 0 0)
(0 0 0)
(0 0 0)
(0 0 0)
(0 0 0)
(0 0 0)
(0 0 0)
(0 0 0)
(0 0 0)
(0 0 0)
(0 0 0)
(0 0 0)
(0 0 0)
(0 0 0)
(0 0 0)
(0 0 0)
(0 0 0)
(0 0 0)
(0 0 0)
(0 0 0)
(0 0 0)
(0 0 0)
(0 0 0)
(0 0 0)
(0 0 0)
(0 0 0)
(0 0 0)
(0 0 0)
(0 0 0)
(0 0 0)
(0 0 0)
(0 0 0)
(0 0 0)
(0 0 0)
(0 0 0)
(0 0 0)
(0 0 0)
(0 0 0)
(0 0 0)
(0 0 0)
(0 0 0)
(0 0 0)
(0 0 0)
(0 0 0)
(0 0 0)
(0 0 0)
(0 0 0)
(0 0 0)
(0 0 0)
(0 0 0)
(0 0 0)
(0 0 0)
(0 0 0)
(0 0 0)
(0 0 0)
(0 0 0)
(0 0 0)
(0 0 0)
(0 0 0)
(0 0 0)
(0 0 0)
(0 0 0)
(0 0 0)
(0 0 0)
(0 0 0)
(0 0 0)
(0 0 0)
(0 0 0)
(0 0 0)
(0 0 0)
(0 0 0)
(0 0 0)
(0 0 0)
(0 0 0)
(0 0 0)
(0 0 0)
(0 0 0)
(0 0 0)
(0 0 0)
(0 0 0)
(0 0 0)
(0 0 0)
(0 0 0)
(0 0 0)
(0 0 0)
(0 0 0)
(0 0 0)
(0 0 0)
(0 0 0)
(0 0 0)
(0 0 0)
(0 0 0)
(0 0 0)
(0 0 0)
(0 0 0)
(0 0 0)
(0 0 0)
(0 0 0)
(0 0 0)
(0 0 0)
(0 0 0)
(0 0 0)
(0 0 0)
(0 0 0)
(0 0 0)
(0 0 0)
(0 0 0)
(0 0 0)
(0 0 0)
(0 0 0)
(0 0 0)
(0 0 0)
(0 0 0)
(0 0 0)
(0 0 0)
(0 0 0)
(0 0 0)
(0 0 0)
(0 0 0)
(0 0 0)
(0 0 0)
(0 0 0)
(0 0 0)
(0 0 0)
(0 0 0)
(0 0 0)
(0 0 0)
(0 0 0)
(0 0 0)
(0 0 0)
(0 0 0)
(0 0 0)
(0 0 0)
(0 0 0)
(0 0 0)
(0 0 0)
(0 0 0)
(0 0 0)
(0 0 0)
(0 0 0)
(0 0 0)
(0 0 0)
(0 0 0)
(0 0 0)
(0 0 0)
(0 0 0)
(0 0 0)
(0 0 0)
(0 0 0)
(0 0 0)
(0 0 0)
(0 0 0)
(0 0 0)
(0 0 0)
(0 0 0)
(0 0 0)
(0 0 0)
(0 0 0)
(0 0 0)
(0 0 0)
(0 0 0)
(0 0 0)
(0 0 0)
(0 0 0)
(0 0 0)
(0 0 0)
(0 0 0)
(0 0 0)
(0 0 0)
(0 0 0)
(0 0 0)
(0 0 0)
(0 0 0)
(0 0 0)
(0 0 0)
(0 0 0)
(0 0 0)
(0 0 0)
(0 0 0)
(0 0 0)
(0 0 0)
(0 0 0)
(0 0 0)
(0 0 0)
(0 0 0)
(0 0 0)
(0 0 0)
(0 0 0)
(0 0 0)
(0 0 0)
(0 0 0)
(0 0 0)
(0 0 0)
(0 0 0)
(0 0 0)
(0 0 0)
(0 0 0)
(0 0 0)
(0 0 0)
(0 0 0)
(0 0 0)
(0 0 0)
(0 0 0)
(0 0 0)
(0 0 0)
(0 0 0)
(0 0 0)
(0 0 0)
(0 0 0)
(0 0 0)
(0 0 0)
(0 0 0)
(0 0 0)
(0 0 0)
(0 0 0)
(0 0 0)
(0 0 0)
(0 0 0)
(0 0 0)
(0 0 0)
(0 0 0)
(0 0 0)
(0 0 0)
(0 0 0)
(0 0 0)
(0 0 0)
(0 0 0)
(0 0 0)
(0 0 0)
(0 0 0)
(0 0 0)
(0 0 0)
(0 0 0)
(0 0 0)
(0 0 0)
(0 0 0)
(0 0 0)
(0 0 0)
(0 0 0)
(0 0 0)
(0 0 0)
(0 0 0)
(0 0 0)
(0 0 0)
(0 0 0)
(0 0 0)
(0 0 0)
(0 0 0)
(0 0 0)
(0 0 0)
(0 0 0)
(0 0 0)
(0 0 0)
(0 0 0)
(0 0 0)
(0 0 0)
(0 0 0)
(0 0 0)
(0 0 0)
(0 0 0)
(0 0 0)
(0 0 0)
(0 0 0)
(0 0 0)
(0 0 0)
(0 0 0)
(0 0 0)
(0 0 0)
(0 0 0)
(0 0 0)
(0 0 0)
(0 0 0)
(0 0 0)
(0 0 0)
(0 0 0)
(0 0 0)
(0 0 0)
(0 0 0)
(0 0 0)
(0 0 0)
(0 0 0)
(0 0 0)
(0 0 0)
(0 0 0)
(0 0 0)
(0 0 0)
(0 0 0)
(0 0 0)
(0 0 0)
(0 0 0)
(0 0 0)
(0 0 0)
(0 0 0)
(0 0 0)
(0 0 0)
(0 0 0)
(0 0 0)
(0 0 0)
(0 0 0)
(0 0 0)
(0 0 0)
(0 0 0)
(0 0 0)
(0 0 0)
(0 0 0)
(0 0 0)
(0 0 0)
(0 0 0)
(0 0 0)
(0 0 0)
(0 0 0)
(0 0 0)
(0 0 0)
(0 0 0)
(0 0 0)
(0 0 0)
(0 0 0)
(0 0 0)
(0 0 0)
(0 0 0)
(0 0 0)
(0 0 0)
(0 0 0)
(0 0 0)
(0 0 0)
(0 0 0)
(0 0 0)
(0 0 0)
(0 0 0)
(0 0 0)
(0 0 0)
(0 0 0)
(0 0 0)
(0 0 0)
(0 0 0)
(0 0 0)
(0 0 0)
(0 0 0)
(0 0 0)
(0 0 0)
(0 0 0)
(0 0 0)
(0 0 0)
(0 0 0)
(0 0 0)
(0 0 0)
(0 0 0)
(0 0 0)
(0 0 0)
(0 0 0)
(0 0 0)
(0 0 0)
(0 0 0)
(0 0 0)
(0 0 0)
(0 0 0)
(0 0 0)
(0 0 0)
(0 0 0)
(0 0 0)
(0 0 0)
(0 0 0)
(0 0 0)
(0 0 0)
(0 0 0)
(0 0 0)
(0 0 0)
(0 0 0)
(0 0 0)
(0 0 0)
(0 0 0)
(0 0 0)
(0 0 0)
(0 0 0)
(0 0 0)
(0 0 0)
(0 0 0)
(0 0 0)
(0 0 0)
(0 0 0)
(0 0 0)
(0 0 0)
(0 0 0)
(0 0 0)
(0 0 0)
(0 0 0)
(0 0 0)
(0 0 0)
(0 0 0)
(0 0 0)
(0 0 0)
(0 0 0)
(0 0 0)
(0 0 0)
(0 0 0)
(0 0 0)
(0 0 0)
(0 0 0)
(0 0 0)
(0 0 0)
(0 0 0)
(0 0 0)
(0 0 0)
(0 0 0)
(0 0 0)
(0 0 0)
(0 0 0)
(0 0 0)
(0 0 0)
(0 0 0)
(0 0 0)
(0 0 0)
(0 0 0)
(0 0 0)
(0 0 0)
(0 0 0)
(0 0 0)
(0 0 0)
(0 0 0)
(0 0 0)
(0 0 0)
(0 0 0)
(0 0 0)
(0 0 0)
(0 0 0)
(0 0 0)
(0 0 0)
(0 0 0)
(0 0 0)
(0 0 0)
(0 0 0)
(0 0 0)
(0 0 0)
(0 0 0)
(0 0 0)
(0 0 0)
(0 0 0)
(0 0 0)
(0 0 0)
(0 0 0)
(0 0 0)
(0 0 0)
(0 0 0)
(0 0 0)
(0 0 0)
(0 0 0)
(0 0 0)
(0 0 0)
(0 0 0)
(0 0 0)
(0 0 0)
(0 0 0)
(0 0 0)
(0 0 0)
(0 0 0)
(0 0 0)
(0 0 0)
(0 0 0)
(0 0 0)
(0 0 0)
(0 0 0)
(0 0 0)
(0 0 0)
(0 0 0)
(0 0 0)
(0 0 0)
(0 0 0)
(0 0 0)
(0 0 0)
(0 0 0)
(0 0 0)
(0 0 0)
(0 0 0)
(0 0 0)
(0 0 0)
(0 0 0)
(0 0 0)
(0 0 0)
(0 0 0)
(0 0 0)
(0 0 0)
(0 0 0)
(0 0 0)
(0 0 0)
(0 0 0)
(0 0 0)
(0 0 0)
(0 0 0)
(0 0 0)
(0 0 0)
(0 0 0)
(0 0 0)
(0 0 0)
(0 0 0)
(0 0 0)
(0 0 0)
(0 0 0)
(0 0 0)
(0 0 0)
(0 0 0)
(0 0 0)
(0 0 0)
(0 0 0)
(0 0 0)
(0 0 0)
(0 0 0)
(0 0 0)
(0 0 0)
(0 0 0)
(0 0 0)
(0 0 0)
(0 0 0)
(0 0 0)
(0 0 0)
(0 0 0)
(0 0 0)
(0 0 0)
(0 0 0)
(0 0 0)
(0 0 0)
(0 0 0)
(0 0 0)
(0 0 0)
(0 0 0)
(0 0 0)
(0 0 0)
(0 0 0)
(0 0 0)
(0 0 0)
(0 0 0)
(0 0 0)
(0 0 0)
(0 0 0)
(0 0 0)
(0 0 0)
(0 0 0)
(0 0 0)
(0 0 0)
(0 0 0)
(0 0 0)
(0 0 0)
(0 0 0)
(0 0 0)
(0 0 0)
(0 0 0)
(0 0 0)
(0 0 0)
(0 0 0)
(0 0 0)
(0 0 0)
(0 0 0)
(0 0 0)
(0 0 0)
(0 0 0)
(0 0 0)
(0 0 0)
(0 0 0)
(0 0 0)
(0 0 0)
(0 0 0)
(0 0 0)
(0 0 0)
(0 0 0)
(0 0 0)
(0 0 0)
(0 0 0)
(0 0 0)
(0 0 0)
(0 0 0)
(0 0 0)
(0 0 0)
(0 0 0)
(0 0 0)
(0 0 0)
(0 0 0)
(0 0 0)
(0 0 0)
(0 0 0)
(0 0 0)
(0 0 0)
(0 0 0)
(0 0 0)
(0 0 0)
(0 0 0)
(0 0 0)
(0 0 0)
(0 0 0)
(0 0 0)
(0 0 0)
(0 0 0)
(0 0 0)
(0 0 0)
(0 0 0)
(0 0 0)
(0 0 0)
(0 0 0)
(0 0 0)
(0 0 0)
(0 0 0)
(0 0 0)
(0 0 0)
(0 0 0)
(0 0 0)
(0 0 0)
(0 0 0)
(0 0 0)
(0 0 0)
(0 0 0)
(0 0 0)
(0 0 0)
(0 0 0)
(0 0 0)
(0 0 0)
(0 0 0)
(0 0 0)
(0 0 0)
(0 0 0)
(0 0 0)
(0 0 0)
(0 0 0)
(0 0 0)
(0 0 0)
(0 0 0)
(0 0 0)
(0 0 0)
(0 0 0)
(0 0 0)
(0 0 0)
(0 0 0)
(0 0 0)
(0 0 0)
(0 0 0)
(0 0 0)
(0 0 0)
(0 0 0)
(0 0 0)
(0 0 0)
(0 0 0)
(0 0 0)
(0 0 0)
(0 0 0)
(0 0 0)
(0 0 0)
(0 0 0)
(0 0 0)
(0 0 0)
(0 0 0)
(0 0 0)
(0 0 0)
(0 0 0)
(0 0 0)
(0 0 0)
(0 0 0)
(0 0 0)
(0 0 0)
(0 0 0)
(0 0 0)
(0 0 0)
(0 0 0)
(0 0 0)
(0 0 0)
(0 0 0)
(0 0 0)
(0 0 0)
(0 0 0)
(0 0 0)
(0 0 0)
(0 0 0)
(0 0 0)
(0 0 0)
(0 0 0)
(0 0 0)
(0 0 0)
(0 0 0)
(0 0 0)
(0 0 0)
(0 0 0)
(0 0 0)
(0 0 0)
(0 0 0)
(0 0 0)
(0 0 0)
(0 0 0)
(0 0 0)
(0 0 0)
(0 0 0)
(0 0 0)
(0 0 0)
(0 0 0)
(0 0 0)
(0 0 0)
(0 0 0)
(0 0 0)
(0 0 0)
(0 0 0)
(0 0 0)
(0 0 0)
(0 0 0)
(0 0 0)
(0 0 0)
(0 0 0)
(0 0 0)
(0 0 0)
(0 0 0)
(0 0 0)
(0 0 0)
(0 0 0)
(0 0 0)
(0 0 0)
(0 0 0)
(0 0 0)
(0 0 0)
(0 0 0)
(0 0 0)
(0 0 0)
(0 0 0)
(0 0 0)
(0 0 0)
(0 0 0)
(0 0 0)
(0 0 0)
(0 0 0)
(0 0 0)
(0 0 0)
(0 0 0)
(0 0 0)
(0 0 0)
(0 0 0)
(0 0 0)
(0 0 0)
(0 0 0)
(0 0 0)
(0 0 0)
(0 0 0)
(0 0 0)
(0 0 0)
(0 0 0)
(0 0 0)
(0 0 0)
(0 0 0)
(0 0 0)
(0 0 0)
(0 0 0)
(0 0 0)
(0 0 0)
(0 0 0)
(0 0 0)
(0 0 0)
(0 0 0)
(0 0 0)
(0 0 0)
(0 0 0)
(0 0 0)
(0 0 0)
(0 0 0)
(0 0 0)
(0 0 0)
(0 0 0)
(0 0 0)
(0 0 0)
(0 0 0)
(0 0 0)
(0 0 0)
(0 0 0)
(0 0 0)
(0 0 0)
(0 0 0)
(0 0 0)
(0 0 0)
(0 0 0)
(0 0 0)
(0 0 0)
(0 0 0)
(0 0 0)
(0 0 0)
(0 0 0)
(0 0 0)
(0 0 0)
(0 0 0)
(0 0 0)
(0 0 0)
(0 0 0)
(0 0 0)
(0 0 0)
(0 0 0)
(0 0 0)
(0 0 0)
(0 0 0)
(0 0 0)
(0 0 0)
(0 0 0)
(0 0 0)
(0 0 0)
(0 0 0)
(0 0 0)
(0 0 0)
(0 0 0)
(0 0 0)
(0 0 0)
(0 0 0)
(0 0 0)
(0 0 0)
(0 0 0)
(0 0 0)
(0 0 0)
(0 0 0)
(0 0 0)
(0 0 0)
(0 0 0)
(0 0 0)
(0 0 0)
(0 0 0)
(0 0 0)
(0 0 0)
(0 0 0)
(0 0 0)
(0 0 0)
(0 0 0)
(0 0 0)
(0 0 0)
(0 0 0)
(0 0 0)
(0 0 0)
(0 0 0)
(0 0 0)
(0 0 0)
(0 0 0)
(0 0 0)
(0 0 0)
(0 0 0)
(0 0 0)
(0 0 0)
(0 0 0)
(0 0 0)
(0 0 0)
(0 0 0)
(0 0 0)
(0 0 0)
(0 0 0)
(0 0 0)
(0 0 0)
(0 0 0)
(0 0 0)
(0 0 0)
(0 0 0)
(0 0 0)
(0 0 0)
(0 0 0)
(0 0 0)
(0 0 0)
(0 0 0)
(0 0 0)
(0 0 0)
(0 0 0)
(0 0 0)
(0 0 0)
(0 0 0)
(0 0 0)
(0 0 0)
(0 0 0)
(0 0 0)
(0 0 0)
(0 0 0)
(0 0 0)
(0 0 0)
(0 0 0)
(0 0 0)
(0 0 0)
(0 0 0)
(0 0 0)
(0 0 0)
(0 0 0)
(0 0 0)
(0 0 0)
(0 0 0)
(0 0 0)
(0 0 0)
(0 0 0)
(0 0 0)
(0 0 0)
(0 0 0)
(0 0 0)
(0 0 0)
(0 0 0)
(0 0 0)
(0 0 0)
(0 0 0)
(0 0 0)
(0 0 0)
(0 0 0)
(0 0 0)
(0 0 0)
(0 0 0)
(0 0 0)
(0 0 0)
(0 0 0)
(0 0 0)
(0 0 0)
(0 0 0)
(0 0 0)
(0 0 0)
(0 0 0)
(0 0 0)
(0 0 0)
(0 0 0)
(0 0 0)
(0 0 0)
(0 0 0)
(0 0 0)
(0 0 0)
(0 0 0)
(0 0 0)
(0 0 0)
(0 0 0)
(0 0 0)
(0 0 0)
(0 0 0)
(0 0 0)
(0 0 0)
(0 0 0)
(0 0 0)
(0 0 0)
(0 0 0)
(0 0 0)
(0 0 0)
(0 0 0)
(0 0 0)
(0 0 0)
(0 0 0)
(0 0 0)
(0 0 0)
(0 0 0)
(0 0 0)
(0 0 0)
(0 0 0)
(0 0 0)
(0 0 0)
(0 0 0)
(0 0 0)
(0 0 0)
(0 0 0)
(0 0 0)
(0 0 0)
(0 0 0)
(0 0 0)
(0 0 0)
(0 0 0)
(0 0 0)
(0 0 0)
(0 0 0)
(0 0 0)
(0 0 0)
(0 0 0)
(0 0 0)
(0 0 0)
(0 0 0)
(0 0 0)
(0 0 0)
(0 0 0)
(0 0 0)
(0 0 0)
(0 0 0)
(0 0 0)
(0 0 0)
(0 0 0)
(0 0 0)
(0 0 0)
(0 0 0)
(0 0 0)
(0 0 0)
(0 0 0)
(0 0 0)
(0 0 0)
(0 0 0)
(0 0 0)
(0 0 0)
(0 0 0)
(0 0 0)
(0 0 0)
(0 0 0)
(0 0 0)
(0 0 0)
(0 0 0)
(0 0 0)
(0 0 0)
(0 0 0)
(0 0 0)
(0 0 0)
(0 0 0)
(0 0 0)
(0 0 0)
(0 0 0)
(0 0 0)
(0 0 0)
(0 0 0)
(0 0 0)
(0 0 0)
(0 0 0)
(0 0 0)
(0 0 0)
(0 0 0)
(0 0 0)
(0 0 0)
(0 0 0)
(0 0 0)
(0 0 0)
(0 0 0)
(0 0 0)
(0 0 0)
(0 0 0)
(0 0 0)
(0 0 0)
(0 0 0)
(0 0 0)
(0 0 0)
(0 0 0)
(0 0 0)
(0 0 0)
(0 0 0)
(0 0 0)
(0 0 0)
(0 0 0)
(0 0 0)
(0 0 0)
(0 0 0)
(0 0 0)
(0 0 0)
(0 0 0)
(0 0 0)
(0 0 0)
(0 0 0)
(0 0 0)
(0 0 0)
(0 0 0)
(0 0 0)
(0 0 0)
(0 0 0)
(0 0 0)
(0 0 0)
(0 0 0)
(0 0 0)
(0 0 0)
(0 0 0)
(0 0 0)
(0 0 0)
(0 0 0)
(0 0 0)
(0 0 0)
(0 0 0)
(0 0 0)
(0 0 0)
(0 0 0)
(0 0 0)
(0 0 0)
(0 0 0)
(0 0 0)
(0 0 0)
(0 0 0)
(0 0 0)
(0 0 0)
(0 0 0)
(0 0 0)
(0 0 0)
(0 0 0)
(0 0 0)
(0 0 0)
(0 0 0)
(0 0 0)
(0 0 0)
(0 0 0)
(0 0 0)
(0 0 0)
(0 0 0)
(0 0 0)
(0 0 0)
(0 0 0)
(0 0 0)
(0 0 0)
(0 0 0)
(0 0 0)
(0 0 0)
(0 0 0)
(0 0 0)
(0 0 0)
(0 0 0)
(0 0 0)
(0 0 0)
(0 0 0)
(0.0437644 0.0413735 -0.0439358)
(-0.0940085 0.0373956 -0.0334898)
(-0.00115679 0.0478217 -0.00344585)
(-0.0824431 0.0559021 0.0165138)
(-0.0436331 0.0507575 -0.0746178)
(-0.0288288 0.0757481 0.0351228)
(-0.0554636 0.0496483 0.0283706)
(-0.092513 -0.0100465 -0.0256112)
(0.0609698 0.00561738 -0.0555644)
(0.0335298 0.0411458 -0.0270682)
(0.0837413 0.112021 -0.0282741)
(0.158216 0.0259464 -0.0303349)
(0.266158 0.0956447 0.0297577)
(0.0981477 0.138631 0.0112507)
(-0.000286763 0.091423 0.0222061)
(0.146798 0.154334 0.0549433)
(0.0410889 0.100008 0.0340305)
(-0.0762229 0.0837867 0.0298169)
(-0.225032 0.108503 0.0283872)
(-0.0436646 0.0914103 0.0281874)
(-0.198725 0.166053 0.0223349)
(-0.143198 0.0847234 -0.059884)
(-0.00769611 0.0859849 -0.0625777)
(-0.169026 0.241333 -0.0783792)
(0.0130208 0.223584 -0.059339)
(0.05873 0.165806 -0.0128197)
(0.062172 0.108582 -0.0500215)
(0.0129232 0.024245 -0.0099536)
(0.053997 0.156349 -0.0118902)
(0.164709 0.1263 -0.0498946)
(0.283737 0.143618 0.013142)
(0.149218 0.192576 -0.0231553)
(0.233318 0.157295 -0.00778212)
(0.203118 0.0560111 0.0286858)
(0.0707098 0.0431701 0.0205431)
(0.226544 0.023464 -0.00512926)
(0.0801326 -0.085676 -0.0146108)
(-0.0266744 0.108295 0.0153623)
(-0.147258 0.183163 0.0321846)
(-0.0139905 0.0777607 0.00711075)
(-0.0651956 0.120566 0.0308858)
(-0.183024 0.349197 -0.0188929)
(-0.0109726 0.337789 0.0185812)
(-0.074148 0.189999 0.0433741)
(-0.0439039 0.207757 0.0559836)
(0.028468 0.175729 0.0371254)
(0.0139503 0.0890436 0.0174908)
(0.014882 0.0437938 0.00572789)
(0.00741157 0.00906358 -0.00709315)
(0.0251877 0.0744145 -0.00228427)
(0.033421 0.054771 -0.00417655)
(0.0829898 0.119881 -0.00183931)
(0.136357 0.100074 -0.0197651)
(0.0161876 0.100467 -0.0176711)
(-0.0796458 0.0345933 -0.0535533)
(0.115995 -0.0710754 -0.00761605)
(0.132403 -0.0764468 0.0125874)
(0.10501 0.0155332 -0.00417039)
(0.152451 0.0325555 0.018068)
(0.0862028 0.0323144 0.00533921)
(-0.001396 0.03803 0.0138987)
(0.0931694 0.0485072 -0.0279113)
(-0.0174993 0.00534899 0.00732653)
(-0.0486444 0.109395 0.0242214)
(-0.0929748 0.107392 0.0293392)
(-0.087639 0.0304686 0.0369107)
(-0.217201 -0.0155888 0.0400972)
(-0.0574825 -0.00310757 0.00496901)
(-0.00825687 0.0342163 -0.000200251)
(-0.119604 -0.0166084 -0.0209447)
(0.0194349 0.0236351 -0.00671574)
(-0.0132653 0.0552929 -0.020731)
(-0.0792742 -0.136059 -0.00509152)
(-0.0451585 -0.0670717 0.00489991)
(-0.107369 -0.161259 -0.0194582)
(0.0883871 -0.224032 0.00366744)
(0.176635 -0.114886 0.0224637)
(0.0525517 -0.170354 -0.0407237)
(0.201242 -0.118789 -0.0161848)
(0.0980482 0.117153 -0.0185815)
(-0.00315772 0.0215247 0.00873481)
(0.127227 -0.00546047 0.0208944)
(0.00858621 0.00683743 0.0140101)
(-0.0617077 -0.0231855 0.0213854)
(-0.155719 -0.0275118 0.036439)
(-0.00549311 -0.0241998 0.00299137)
(-0.00604222 -0.026017 -0.000695758)
(-0.0847402 0.00999549 -0.0467287)
(-0.0701442 -0.077442 -0.0482238)
(0.0559705 -0.0754094 -0.0570114)
(0.181274 -0.0747076 -0.0298103)
(0.0885178 -0.0338046 -0.0307547)
(0.11659 -0.0264713 0.0146579)
(0.0306445 -0.0120776 0.0313643)
(0.0694603 -0.017601 -0.00408328)
(0.0108964 -0.00480145 -0.00119342)
(-0.0626522 0.0761455 -0.16272)
(-0.111975 0.0855683 -0.236301)
(-0.0592656 0.0346716 -0.21615)
(-0.0676737 0.123174 -0.0651439)
(-0.0726272 0.106335 -0.0809258)
(-0.0319668 0.0149536 -0.308756)
(-0.0926795 0.105616 -0.24314)
(-0.0586983 0.0752545 -0.261929)
(-0.027197 0.0828627 -0.106581)
(-0.00263054 0.0745961 -0.134515)
(-0.0250312 -0.00703749 -0.305548)
(-0.033216 0.0420339 -0.269129)
(0.0124749 0.0362728 -0.281175)
(-0.00370463 0.0289386 -0.17448)
(0.0346394 0.0353496 -0.284356)
(0.0166684 0.0126838 -0.114064)
(-0.0607844 0.128688 -0.0452111)
(-0.00599518 0.124525 -0.0879793)
(0.0550022 0.076358 -0.026148)
(0.16592 0.12081 0.0549068)
(-0.0802039 0.108318 -0.118815)
(-0.0914349 0.133128 -0.149656)
(-0.0428688 0.121945 -0.0148957)
(0.0426528 0.14492 0.0663238)
(0.0265968 0.0899937 -0.174548)
(-0.0845487 0.212569 -0.185794)
(0.0121898 0.191614 -0.161324)
(0.000596423 0.10437 -0.304305)
(0.0277268 0.07177 -0.273555)
(-0.0481658 0.180334 -0.265568)
(-0.0215809 0.13575 -0.248756)
(0.079279 0.184158 -0.0370422)
(-0.00353719 0.0536705 -0.0838742)
(0.0617036 0.0235813 -0.159624)
(0.0242429 0.0738649 -0.0312949)
(0.0293101 0.146415 -0.00508459)
(0.0307157 0.050651 -0.158846)
(0.0164315 -0.00571602 -0.0991528)
(0.0765724 0.0101512 -0.032662)
(0.0060124 0.195238 0.1451)
(-0.0104172 0.127976 -0.0376466)
(-0.030144 0.0865421 0.0399557)
(-0.0341479 0.157605 0.0428928)
(0.0117408 0.101998 -0.0906042)
(0.0057109 0.147888 0.103333)
(-0.030193 0.0316985 0.06936)
(0.0149256 0.0396668 0.0307931)
(0.0145811 0.126873 0.140056)
(-0.0185685 0.0259378 0.13142)
(-0.0440222 0.145551 -0.0444448)
(-0.0929796 0.0469588 -0.0607882)
(-0.127815 0.179546 -0.0434762)
(-0.0326551 0.136995 -0.117026)
(-0.0950458 0.126745 -0.106576)
(-0.0204566 -0.00936795 0.00834144)
(0.0202422 0.0302315 0.062239)
(-0.0679687 -0.0230024 0.0886616)
(-0.0396216 -0.0127235 0.0798734)
(-0.0860027 -0.0471353 0.0137466)
(-0.0144265 0.102113 0.191234)
(-0.073047 0.0609288 0.154501)
(0.0324145 0.0624369 0.158562)
(-0.0260895 0.0500184 0.108196)
(-0.0623387 -0.111329 0.0207775)
(0.0339319 -0.117355 0.0298653)
(0.0585827 -0.110251 -0.0289927)
(-0.00242669 -0.0337324 0.228683)
(0.0250969 -0.0984548 0.0298367)
(0.0765182 -0.0659913 0.0240505)
(0.0600753 -0.0688252 -0.0724088)
(-0.036744 0.0390799 -0.0978135)
(-0.0835203 -0.0506461 -0.0930382)
(-0.0789553 -0.0390202 -0.0800309)
(0.0275348 -0.057586 -0.153169)
(-0.0236342 -0.018252 -0.23946)
(-0.126742 -0.0664793 -0.273308)
(-0.142897 -0.0802391 -0.284277)
(-0.100376 -0.00675329 -0.314371)
(-0.00897031 -0.0247351 0.0487515)
(0.0931553 -0.00723188 0.0542627)
(-0.0443737 0.0201697 0.0989235)
(0.0164626 -0.017508 -0.0444768)
(-0.0440904 0.00373259 0.0388011)
(0.0561205 -0.0345559 -0.112658)
(-0.0818378 0.0594502 -0.281011)
(-0.0566973 0.0346954 -0.310917)
(-0.0423304 0.0117153 -0.340966)
(-0.0656192 0.0573991 -0.293802)
(-0.0532438 0.0503571 -0.339904)
(-0.0368511 0.00485913 -0.355036)
(-0.0588253 0.0229751 -0.3166)
(-0.0513233 0.0116583 -0.370448)
(-0.0362589 0.0244707 -0.355826)
(-0.00399093 0.0138375 -0.357746)
(-0.0268998 -0.00730145 -0.351251)
(-0.0339806 -0.00206572 -0.392096)
(-0.0124772 -0.00056993 -0.389717)
(0.0247127 0.0153394 -0.349149)
(0.0097377 0.00587766 -0.382702)
(-0.0643162 0.133013 -0.0534094)
(-0.0743798 0.127549 -0.0680358)
(-0.0995518 0.104727 -0.189626)
(-0.0816568 0.113296 -0.0155766)
(-0.100217 0.146034 0.0623219)
(-0.0726727 0.07206 -0.168847)
(-0.109917 0.0648438 -0.163938)
(-0.130082 0.0862693 0.0186818)
(-0.164583 0.0737398 0.114099)
(0.0153472 0.0470001 -0.330768)
(-0.0283483 0.135759 -0.312182)
(-0.0394402 0.0831642 -0.29488)
(0.00260993 0.0331312 -0.397803)
(0.00828375 0.0284436 -0.359049)
(0.00170268 0.0933333 -0.346726)
(-0.0241822 0.0544553 -0.326979)
(-0.0189065 0.0161916 -0.135568)
(-0.0110064 0.0233913 -0.197602)
(-0.0121926 0.109151 -0.0872029)
(0.0040445 0.0446115 -0.0727253)
(0.0499045 0.0261866 -0.0271197)
(-0.0738252 0.130266 -0.0547589)
(0.00364737 0.0588786 -0.0909463)
(0.00263676 0.0265231 -0.0115706)
(-0.0506586 0.0713786 -0.0793283)
(0.00644165 0.0611053 -0.15999)
(-0.0364163 0.0513394 -0.132451)
(-0.0473556 0.0653409 -0.180031)
(-0.00859635 0.0595231 -0.229193)
(0.0442174 0.0838111 0.162562)
(0.0327135 0.0743373 0.160555)
(0.0101497 0.0477198 -0.0124696)
(0.0304411 0.0653036 0.119346)