# Probe 0 (0 0 0.01)
#       Probe             0
#        Time
       0.0001       5698.56
       0.0002       23.1921
       0.0003       45.2046
       0.0004       47.4124
       0.0005       49.8968
       0.0006       52.0469
       0.0007       53.7312
       0.0008       54.7356
       0.0009       55.1726
        0.001       55.0775
       0.0011       47.1135
       0.0012        43.547
       0.0013       41.0895
       0.0014       39.2051
       0.0015       37.7083
       0.0016       36.4651
       0.0017       35.4263
       0.0018       34.5616
       0.0019       33.8352
        0.002       33.2349
       0.0021        43.996
       0.0022       43.7952
       0.0023       43.6285
       0.0024       43.4813
       0.0025       43.3617
       0.0026       43.2722
       0.0027       43.2096
       0.0028       43.1699
       0.0029       43.1488
        0.003       43.1433
       0.0031        48.978
       0.0032       48.8248
       0.0033       48.8071
       0.0034       48.8137
       0.0035       48.8528
       0.0036       48.9092
       0.0037       48.9819
       0.0038       49.0653
       0.0039       49.1521
        0.004       49.2547
       0.0041       48.6039
       0.0042       48.9962
       0.0043       49.4431
       0.0044        49.858
       0.0045       50.2394
       0.0046       50.6108
       0.0047       50.9739
       0.0048       51.3285
       0.0049       51.6849
        0.005        52.036
       0.0051       50.3689
       0.0052       50.7345
       0.0053       51.3464
       0.0054       51.9572
       0.0055       52.5411
       0.0056       53.1345
       0.0057       53.7228
       0.0058       54.3008
       0.0059       54.8821
        0.006       55.4609
       0.0061        52.144
       0.0062        52.345
       0.0063       52.9063
       0.0064       53.4747
       0.0065       54.0692
       0.0066       54.6334
       0.0067       55.1666
       0.0068       55.7216
       0.0069       56.2566
        0.007       56.7626
       0.0071       55.2489
       0.0072       55.6809
       0.0073       56.4099
       0.0074       57.1935
       0.0075       57.9799
       0.0076       58.7697
       0.0077       59.5497
       0.0078       60.3092
       0.0079       61.0556
        0.008       61.7883
       0.0081       62.1791
       0.0082       63.3547
       0.0083       64.6727
       0.0084       65.9979
       0.0085       67.2926
       0.0086       68.5487
       0.0087       69.8588
       0.0088       71.1489
       0.0089       72.4221
        0.009       73.6226
       0.0091        75.785
       0.0092        78.001
       0.0093       80.1662
       0.0094        82.292
       0.0095       84.4164
       0.0096       86.5397
       0.0097       88.6583
       0.0098       90.7773
       0.0099       92.9157
         0.01       95.0833
       0.0101         103.3
       0.0102       109.107
       0.0103       115.041
       0.0104       121.077
       0.0105         127.2
       0.0106       133.398
       0.0107       139.715
       0.0108       146.153
       0.0109       152.743
        0.011       159.509
       0.0111        168.95
       0.0112       176.907
       0.0113       184.818
       0.0114       193.173
       0.0115       201.785
       0.0116       210.753
       0.0117       220.047
       0.0118       229.708
       0.0119       239.748
        0.012       250.137
       0.0121       263.682
       0.0122        276.69
       0.0123       290.165
       0.0124       303.789
       0.0125       317.701
       0.0126       331.751
       0.0127       345.865
       0.0128       359.948
       0.0129        373.57
        0.013        388.03
       0.0131       405.228
       0.0132       419.845
       0.0133       434.305
       0.0134       448.569
       0.0135       462.558
       0.0136       476.277
       0.0137       489.656
       0.0138       502.686
       0.0139       515.338
        0.014        527.66
       0.0141       538.861
       0.0142       549.714
       0.0143       560.347
       0.0144       570.753
       0.0145       581.017
       0.0146       591.158
       0.0147       601.192
       0.0148       611.212
       0.0149       621.234
        0.015        631.32
       0.0151       630.013
       0.0152        630.35
       0.0153       631.372
       0.0154       632.535
       0.0155       633.776
       0.0156       635.079
       0.0157        636.47
       0.0158       637.941
       0.0159       639.626
        0.016       641.281
       0.0161       629.463
       0.0162       618.949
       0.0163       608.571
       0.0164       598.341
       0.0165        588.24
       0.0166       578.367
       0.0167       568.632
       0.0168       559.071
       0.0169       549.598
        0.017       540.433
       0.0171       528.226
       0.0172       516.872
       0.0173       506.038
       0.0174       495.667
       0.0175       485.774
       0.0176       476.388
       0.0177       467.481
       0.0178       459.047
       0.0179       451.136
        0.018       443.707
       0.0181       437.565
       0.0182       432.394
       0.0183       427.827
       0.0184       423.868
       0.0185       420.507
       0.0186       417.792
       0.0187       415.709
       0.0188       414.285
       0.0189       413.514
        0.019       413.412
       0.0191       412.102
       0.0192       412.127
       0.0193       412.672
       0.0194       413.705
       0.0195       415.256
       0.0196       417.275
       0.0197       419.828
       0.0198       422.772
       0.0199       426.141
         0.02       430.019
       0.0201       433.116
       0.0202       436.995
       0.0203       441.164
       0.0204       445.631
       0.0205       450.295
       0.0206       455.124
       0.0207       460.151
       0.0208       465.402
       0.0209       470.904
        0.021       476.602
       0.0211       478.735
       0.0212       482.353
       0.0213       486.336
       0.0214       490.638
       0.0215       495.216
       0.0216       500.148
       0.0217       505.478
       0.0218       511.185
       0.0219       517.326
        0.022        523.95
       0.0221       519.711
       0.0222       517.541
       0.0223       515.652
       0.0224       513.927
       0.0225       512.323
       0.0226       510.792
       0.0227       509.417
       0.0228       508.227
       0.0229       507.093
        0.023       506.076
       0.0231       494.096
       0.0232       483.574
       0.0233       473.521
       0.0234        463.86
       0.0235       454.609
       0.0236       445.729
       0.0237       437.278
       0.0238       429.174
       0.0239        421.52
        0.024       414.252
       0.0241       405.352
       0.0242       397.973
       0.0243       391.293
       0.0244       385.287
       0.0245       379.942
       0.0246       375.199
       0.0247       371.159
       0.0248       367.775
       0.0249       365.009
        0.025       362.953
       0.0251        360.18
       0.0252        358.78
       0.0253        357.87
       0.0254        357.47
       0.0255       357.663
       0.0256       358.344
       0.0257       359.597
       0.0258       361.401
       0.0259       363.806
        0.026       366.783
       0.0261       367.607
       0.0262       369.638
       0.0263       372.029
       0.0264       374.791
       0.0265       377.909
       0.0266        381.42
       0.0267       385.265
       0.0268       389.506
       0.0269       394.141
        0.027       399.121
       0.0271       400.364
       0.0272       403.136
       0.0273       406.239
       0.0274       409.629
       0.0275       413.294
       0.0276       417.239
       0.0277       421.523
       0.0278       426.223
       0.0279        431.24
        0.028       436.712
       0.0281       431.809
       0.0282        428.82
       0.0283        426.05
       0.0284       423.452
       0.0285       421.007
       0.0286       418.793
       0.0287       416.761
       0.0288       414.925
       0.0289       413.377
        0.029        412.03
       0.0291       402.459
       0.0292        394.11
       0.0293        386.41
       0.0294       379.227
       0.0295       372.564
       0.0296       366.426
       0.0297       360.794
       0.0298       355.642
       0.0299       351.063
         0.03       346.965
       0.0301       339.458
       0.0302       334.091
       0.0303       329.305
       0.0304       325.133
       0.0305       321.537
       0.0306       318.615
       0.0307       316.228
       0.0308       314.452
       0.0309       313.297
        0.031        312.72
       0.0311       310.029
       0.0312       308.728
       0.0313       307.995
       0.0314         307.8
       0.0315       308.128
       0.0316       308.995
       0.0317       310.367
       0.0318       312.223
       0.0319       314.586
        0.032       317.527
       0.0321       318.618
       0.0322       320.954
       0.0323       323.616
       0.0324       326.633
       0.0325       330.016
       0.0326       333.708
       0.0327        337.77
       0.0328       342.229
       0.0329       347.116
        0.033        352.46
       0.0331       349.837
       0.0332       349.214
       0.0333        348.75
       0.0334        348.42
       0.0335       348.269
       0.0336       348.314
       0.0337       348.506
       0.0338       348.886
       0.0339       349.455
        0.034       350.244
       0.0341         342.2
       0.0342       335.806
       0.0343       329.878
       0.0344       324.381
       0.0345         319.3
       0.0346       314.641
       0.0347       310.322
       0.0348       306.455
       0.0349       302.959
        0.035       299.911
       0.0351       292.127
       0.0352        286.14
       0.0353       280.712
       0.0354       275.807
       0.0355       271.386
       0.0356       267.421
       0.0357       263.941
       0.0358       260.927
       0.0359       258.404
        0.036       256.328
       0.0361        251.36
       0.0362       247.835
       0.0363       244.796
       0.0364       242.211
       0.0365       240.052
       0.0366       238.303
       0.0367       236.951
       0.0368       235.983
       0.0369        235.37
        0.037       235.124
       0.0371       232.924
       0.0372       232.295
       0.0373       232.023
       0.0374       232.094
       0.0375       232.459
       0.0376       233.136
       0.0377       234.081
       0.0378       235.295
       0.0379       236.798
        0.038       238.593
       0.0381       235.865
       0.0382       234.264
       0.0383       232.913
       0.0384       231.745
       0.0385       230.766
       0.0386        229.99
       0.0387       229.332
       0.0388        228.83
       0.0389       228.488
        0.039       228.257
       0.0391       222.612
       0.0392       218.167
       0.0393       214.044
       0.0394       210.181
       0.0395       206.553
       0.0396        203.14
       0.0397       199.965
       0.0398       197.011
       0.0399        194.26
         0.04       191.714
       0.0401       185.958
       0.0402       181.659
       0.0403       177.805
       0.0404       174.332
       0.0405        171.19
       0.0406       168.377
       0.0407        165.87
       0.0408       163.654
       0.0409        161.71
        0.041        160.05
       0.0411        156.46
       0.0412       153.848
       0.0413       151.592
       0.0414       149.633
       0.0415       147.967
       0.0416       146.563
       0.0417       145.411
       0.0418       144.488
       0.0419       143.774
        0.042        143.28
       0.0421       141.664
       0.0422       140.997
       0.0423       140.574
       0.0424       140.355
       0.0425       140.351
       0.0426       140.561
       0.0427       140.957
       0.0428       141.542
       0.0429       142.329
        0.043       143.296
       0.0431       141.125
       0.0432       140.081
       0.0433       139.176
       0.0434       138.395
       0.0435       137.728
       0.0436       137.167
       0.0437       136.685
       0.0438        136.29
       0.0439       135.958
        0.044       135.683
       0.0441       132.836
       0.0442       130.813
       0.0443        129.01
       0.0444       127.399
       0.0445       125.962
       0.0446       124.695
       0.0447       123.563
       0.0448       122.573
       0.0449       121.746
        0.045       121.059
       0.0451         117.5
       0.0452       115.138
       0.0453       113.097
       0.0454        111.34
       0.0455       109.817
       0.0456       108.525
       0.0457       107.436
       0.0458       106.554
       0.0459       105.826
        0.046       105.273
       0.0461       103.741
       0.0462       102.832
       0.0463       102.096
       0.0464       101.541
       0.0465       101.142
       0.0466       100.888
       0.0467       100.776
       0.0468       100.798
       0.0469       100.967
        0.047       101.255
       0.0471       100.568
       0.0472       100.731
       0.0473       101.084
       0.0474       101.619
       0.0475       102.337
       0.0476        103.24
       0.0477       104.358
       0.0478       105.664
       0.0479       107.176
        0.048       108.908
       0.0481       108.665
       0.0482       109.417
       0.0483       110.292
       0.0484       111.281
       0.0485       112.389
       0.0486       113.598
       0.0487       114.894
       0.0488       116.303
       0.0489       117.795
        0.049       119.399
       0.0491        119.22
       0.0492       119.815
       0.0493        120.58
       0.0494       121.496
       0.0495       122.567
       0.0496       123.796
       0.0497       125.146
       0.0498         126.6
       0.0499       128.157
         0.05       129.823
       0.0501       128.813
       0.0502       129.133
       0.0503       129.647
       0.0504       130.375
       0.0505       131.275
       0.0506       132.321
       0.0507       133.484
       0.0508       134.709
       0.0509       136.026
        0.051       137.463
       0.0511       137.096
       0.0512        137.41
       0.0513       137.923
       0.0514       138.636
       0.0515       139.537
       0.0516       140.649
       0.0517       141.795
       0.0518        143.18
       0.0519       144.773
        0.052       146.553
       0.0521       147.575
       0.0522       149.616
       0.0523       151.757
       0.0524       154.171
       0.0525       156.766
       0.0526       159.566
       0.0527       162.529
       0.0528       165.788
       0.0529       169.261
        0.053       173.042
       0.0531       173.262
       0.0532       175.511
       0.0533       177.927
       0.0534       180.504
       0.0535       183.232
       0.0536       186.084
       0.0537       189.127
       0.0538       192.336
       0.0539       195.675
        0.054       199.199
       0.0541         198.4
       0.0542       198.764
       0.0543       199.297
       0.0544       200.018
       0.0545       200.932
       0.0546       202.045
       0.0547       203.363
       0.0548       204.928
       0.0549       206.761
        0.055       208.877
       0.0551       205.302
       0.0552       204.163
       0.0553       203.263
       0.0554       202.656
       0.0555       202.307
       0.0556       202.218
       0.0557       202.314
       0.0558       202.708
       0.0559       203.268
        0.056       204.099
       0.0561       201.978
       0.0562       200.099
       0.0563       198.458
       0.0564       197.121
       0.0565        196.04
       0.0566       195.251
       0.0567       194.751
       0.0568       194.542
       0.0569       194.638
        0.057       195.082
       0.0571       191.965
       0.0572       190.995
       0.0573       190.535
       0.0574       190.356
       0.0575       190.437
       0.0576       190.999
       0.0577       191.936
       0.0578       193.249
       0.0579       194.941
        0.058       197.012
       0.0581       195.807
       0.0582       195.804
       0.0583       196.026
       0.0584        196.47
       0.0585       197.129
       0.0586       198.005
       0.0587       199.111
       0.0588       200.421
       0.0589       201.927
        0.059       203.488
       0.0591       201.189
       0.0592       200.046
       0.0593       199.207
       0.0594       198.676
       0.0595       198.457
       0.0596       198.553
       0.0597       198.994
       0.0598       199.767
       0.0599       200.886
         0.06       202.346
       0.0601       198.706
       0.0602       196.737
       0.0603       195.041
       0.0604       193.656
       0.0605       192.521
       0.0606       191.677
       0.0607       191.048
       0.0608       190.629
       0.0609       190.416
        0.061       190.394
       0.0611       187.083
       0.0612       184.844
       0.0613       182.954
       0.0614       181.358
       0.0615       180.111
       0.0616       179.132
       0.0617        178.51
       0.0618       178.233
       0.0619       178.286
        0.062       178.772
       0.0621       176.031
       0.0622       174.841
       0.0623       174.067
       0.0624       173.636
       0.0625       173.559
       0.0626       173.788
       0.0627       174.316
       0.0628       175.169
       0.0629       176.321
        0.063       177.741
       0.0631       175.959
       0.0632       175.232
       0.0633       174.695
       0.0634       174.377
       0.0635       174.221
       0.0636         174.3
       0.0637       174.546
       0.0638       175.011
       0.0639       175.715
        0.064       176.628
       0.0641       174.436
       0.0642       173.533
       0.0643       172.922
       0.0644       172.634
       0.0645       172.654
       0.0646       172.975
       0.0647       173.573
       0.0648       174.503
       0.0649       175.728
        0.065       177.243
       0.0651       174.319
       0.0652       172.925
       0.0653        171.77
       0.0654       170.822
       0.0655       170.047
       0.0656       169.448
       0.0657        168.99
       0.0658       168.653
       0.0659        168.45
        0.066       168.371
       0.0661       164.894
       0.0662       162.735
       0.0663       160.988
       0.0664       159.644
       0.0665       158.674
       0.0666       158.079
       0.0667       157.866
       0.0668       158.041
       0.0669       158.619
        0.067       159.578
       0.0671        157.72
       0.0672       157.129
       0.0673       156.772
       0.0674       156.654
       0.0675       156.748
       0.0676       157.022
       0.0677       157.484
       0.0678       158.133
       0.0679       158.931
        0.068       159.892
       0.0681       157.441
       0.0682       155.998
       0.0683       154.772
       0.0684       153.769
       0.0685       153.019
       0.0686       152.503
       0.0687       152.268
       0.0688       152.335
       0.0689       152.718
        0.069       153.422
       0.0691        151.15
       0.0692        150.56
       0.0693       150.225
       0.0694       150.143
       0.0695       150.294
       0.0696       150.646
       0.0697         151.2
       0.0698       151.903
       0.0699       152.778
         0.07       153.784
       0.0701        151.41
       0.0702       150.052
       0.0703       148.898
       0.0704       147.947
       0.0705       147.109
       0.0706       146.382
       0.0707       145.782
       0.0708       145.321
       0.0709       145.039
        0.071       144.928
       0.0711       142.356
       0.0712       141.181
       0.0713       140.399
       0.0714       139.975
       0.0715       139.874
       0.0716       140.074
       0.0717       140.573
       0.0718       141.339
       0.0719       142.383
        0.072       143.652
       0.0721       141.686
       0.0722       140.929
       0.0723       140.315
       0.0724       139.834
       0.0725       139.456
       0.0726       139.164
       0.0727       138.978
       0.0728       138.867
       0.0729       138.828
        0.073       138.888
       0.0731       136.432
       0.0732       135.023
       0.0733        133.85
       0.0734       132.965
       0.0735       132.376
       0.0736       132.073
       0.0737        132.06
       0.0738       132.327
       0.0739       132.874
        0.074       133.687
       0.0741       132.034
       0.0742       131.569
       0.0743       131.231
       0.0744        131.01
       0.0745       130.896
       0.0746       130.872
       0.0747       130.942
       0.0748       131.071
       0.0749       131.263
        0.075       131.523
       0.0751       129.051
       0.0752        127.72
       0.0753       126.617
       0.0754       125.741
       0.0755       125.085
       0.0756       124.659
       0.0757       124.461
       0.0758       124.535
       0.0759       124.867
        0.076       125.461
       0.0761       124.084
       0.0762       123.918
       0.0763       123.961
       0.0764       124.195
       0.0765       124.568
       0.0766       125.058
       0.0767       125.654
       0.0768       126.334
       0.0769       127.085
        0.077       127.887
       0.0771       125.653
       0.0772       124.352
       0.0773       123.209
       0.0774       122.214
       0.0775       121.325
       0.0776       120.551
       0.0777       119.883
       0.0778       119.342
       0.0779       118.966
        0.078       118.745
       0.0781        117.04
       0.0782       116.423
       0.0783       116.025
       0.0784       115.836
       0.0785        115.82
       0.0786       115.953
       0.0787       116.223
       0.0788       116.575
       0.0789       117.019
        0.079       117.533
       0.0791       115.643
       0.0792       114.655
       0.0793       113.757
       0.0794       112.954
       0.0795       112.246
       0.0796        111.61
       0.0797       111.045
       0.0798       110.564
       0.0799       110.168
         0.08        109.86
       0.0801       108.212
       0.0802       107.636
       0.0803       107.322
       0.0804        107.26
       0.0805       107.391
       0.0806        107.73
       0.0807       108.259
       0.0808        108.96
       0.0809       109.832
        0.081       110.835
       0.0811        109.87
       0.0812       109.837
       0.0813        109.87
       0.0814       109.948
       0.0815       110.025
       0.0816       110.085
       0.0817        110.11
       0.0818       110.151
       0.0819       110.155
        0.082       110.133
       0.0821       108.067
       0.0822       106.824
       0.0823       105.815
       0.0824       105.008
       0.0825       104.397
       0.0826       103.985
       0.0827       103.769
       0.0828       103.738
       0.0829       103.878
        0.083       104.167
       0.0831       103.075
       0.0832       102.872
       0.0833       102.747
       0.0834       102.673
       0.0835        102.63
       0.0836       102.597
       0.0837       102.552
       0.0838       102.485
       0.0839        102.39
        0.084       102.244
       0.0841        100.23
       0.0842       99.0251
       0.0843       98.0092
       0.0844       97.1581
       0.0845       96.4384
       0.0846       95.8736
       0.0847       95.4356
       0.0848       95.1402
       0.0849       94.9813
        0.085       94.9537
       0.0851       94.2108
       0.0852       94.2931
       0.0853       94.4977
       0.0854       94.8013
       0.0855       95.1719
       0.0856       95.5849
       0.0857       96.0184
       0.0858       96.4893
       0.0859        96.939
        0.086       97.4067
       0.0861       96.1561
       0.0862       95.6648
       0.0863       95.2516
       0.0864       94.8669
       0.0865        94.501
       0.0866       94.1526
       0.0867       93.7978
       0.0868       93.4499
       0.0869       93.1247
        0.087       92.8026
       0.0871       91.5299
       0.0872       91.1073
       0.0873       90.8594
       0.0874       90.7732
       0.0875       90.7996
       0.0876       90.9282
       0.0877       91.1275
       0.0878       91.3664
       0.0879       91.6646
        0.088       91.9739
       0.0881         90.84
       0.0882       90.4085
       0.0883       90.0326
       0.0884       89.6785
       0.0885       89.3402
       0.0886       88.9962
       0.0887       88.6461
       0.0888        88.292
       0.0889       87.9529
        0.089        87.615
       0.0891       86.3999
       0.0892       85.8926
       0.0893       85.5525
       0.0894       85.3561
       0.0895       85.3045
       0.0896       85.3418
       0.0897       85.4751
       0.0898       85.6786
       0.0899       85.9534
         0.09        86.301
       0.0901       85.3966
       0.0902       85.2261
       0.0903       85.0939
       0.0904       84.9987
       0.0905       84.9025
       0.0906       84.7679
       0.0907       84.6183
       0.0908        84.423
       0.0909       84.1844
        0.091       83.8813
       0.0911        82.597
       0.0912        82.022
       0.0913       81.5513
       0.0914        81.168
       0.0915       80.8533
       0.0916       80.5986
       0.0917       80.4035
       0.0918       80.2675
       0.0919       80.1922
        0.092       80.1647
       0.0921       79.6348
       0.0922       79.6965
       0.0923       79.8048
       0.0924       79.9627
       0.0925       80.1317
       0.0926       80.2976
       0.0927       80.4361
       0.0928       80.5188
       0.0929       80.5617
        0.093       80.5489
       0.0931       79.2284
       0.0932       78.6172
       0.0933       78.0979
       0.0934       77.6604
       0.0935       77.2621
       0.0936       76.9028
       0.0937       76.5729
       0.0938       76.2697
       0.0939       75.9987
        0.094       75.7683
       0.0941       75.2647
       0.0942       75.2091
       0.0943       75.2379
       0.0944       75.3459
       0.0945       75.4841
       0.0946       75.6251
       0.0947        75.739
       0.0948       75.8863
       0.0949       76.0332
        0.095       76.1486
       0.0951       75.1443
       0.0952       74.7983
       0.0953       74.4725
       0.0954       74.1509
       0.0955       73.8432
       0.0956       73.5041
       0.0957       73.1014
       0.0958       72.7374
       0.0959       72.3214
        0.096       71.8783
       0.0961        71.137
       0.0962       70.8251
       0.0963        70.613
       0.0964       70.4806
       0.0965       70.4166
       0.0966       70.4083
       0.0967       70.4523
       0.0968       70.5272
       0.0969       70.6264
        0.097       70.7573
       0.0971       70.2761
       0.0972       70.3305
       0.0973         70.38
       0.0974       70.4197
       0.0975       70.4449
       0.0976       70.4433
       0.0977       70.4197
       0.0978       70.3461
       0.0979       70.2296
        0.098       70.0741
       0.0981       69.1483
       0.0982       68.7139
       0.0983       68.3647
       0.0984       68.0735
       0.0985       67.8534
       0.0986       67.6431
       0.0987       67.4613
       0.0988       67.3067
       0.0989        67.178
        0.099       67.0792
       0.0991        66.717
       0.0992       66.7411
       0.0993        66.788
       0.0994       66.8543
       0.0995        66.905
       0.0996       66.9399
       0.0997       66.9405
       0.0998       66.8942
       0.0999       66.8031
          0.1       66.6599
       0.1001       65.8293
       0.1002       65.4117
       0.1003       65.0346
       0.1004        64.686
       0.1005       64.3653
       0.1006        64.049
       0.1007       63.7434
       0.1008       63.4522
       0.1009       63.1785
        0.101       62.9169
       0.1011       62.1663
       0.1012       62.0291
       0.1013       61.9764
       0.1014       61.9697
       0.1015       62.0037
       0.1016       62.0542
       0.1017       62.1105
       0.1018       62.1726
       0.1019       62.2374
        0.102       62.2867
       0.1021       61.7102
       0.1022       61.7007
       0.1023       61.6883
       0.1024       61.6682
       0.1025       61.6322
       0.1026       61.5633
       0.1027       61.4758
       0.1028        61.359
       0.1029       61.2343
        0.103       61.0808
       0.1031       60.5982
       0.1032       60.3978
       0.1033       60.2478
       0.1034       60.1228
       0.1035       60.0242
       0.1036       59.9054
       0.1037       59.7909
       0.1038       59.6806
       0.1039       59.5754
        0.104       59.4595
       0.1041       58.9699
       0.1042       58.9424
       0.1043       58.9285
       0.1044       58.9195
       0.1045       58.8925
       0.1046       58.8424
       0.1047       58.7745
       0.1048       58.6783
       0.1049       58.5503
        0.105       58.3923
       0.1051       57.8827
       0.1052        57.586
       0.1053       57.3398
       0.1054       57.1175
       0.1055       56.9129
       0.1056       56.7173
       0.1057       56.5188
       0.1058       56.3251
       0.1059       56.1356
        0.106       55.9393
       0.1061       55.5677
       0.1062        55.487
       0.1063       55.4336
       0.1064       55.4064
       0.1065       55.4009
       0.1066       55.4077
       0.1067       55.4001
       0.1068       55.4064
       0.1069       55.3973