# Probe 0 (0 0 0.01)
#       Probe             0
#        Time
       0.0001             (0.0262924 0.0105843 1.33797)
       0.0002             (0.0297651 0.0141853 1.34944)
       0.0003             (0.0280006 0.0140155 1.35638)
       0.0004             (0.0254162 0.01288 1.36715)
       0.0005             (0.0218234 0.0110568 1.39575)
       0.0006             (0.017465 0.00841948 1.45166)
       0.0007             (0.0126348 0.00494681 1.54146)
       0.0008             (0.00780953 0.00106361 1.67246)
       0.0009             (0.00273036 -0.00370868 1.85751)
        0.001             (-0.00266482 -0.00890713 2.11982)
       0.0011             (-0.00485749 -0.010326 2.13514)
       0.0012             (-0.00681591 -0.0114542 2.15451)
       0.0013             (-0.0082261 -0.0122768 2.17328)
       0.0014             (-0.00936147 -0.0129229 2.19044)
       0.0015             (-0.0103015 -0.0133834 2.20594)
       0.0016             (-0.0110213 -0.013764 2.22007)
       0.0017             (-0.0116305 -0.0140612 2.23296)
       0.0018             (-0.0121174 -0.0143001 2.24479)
       0.0019             (-0.0125245 -0.014499 2.25565)
        0.002             (-0.0128763 -0.014668 2.26565)
       0.0021             (-0.0127615 -0.0143833 2.26941)
       0.0022             (-0.012687 -0.0141318 2.27182)
       0.0023             (-0.0126454 -0.0139544 2.27418)
       0.0024             (-0.0126088 -0.0138177 2.27664)
       0.0025             (-0.0125656 -0.0137038 2.27918)
       0.0026             (-0.0125168 -0.0136003 2.28179)
       0.0027             (-0.0124621 -0.0135076 2.28445)
       0.0028             (-0.0124048 -0.0134243 2.28714)
       0.0029             (-0.0123453 -0.0133466 2.28985)
        0.003             (-0.0122829 -0.0132728 2.29258)
       0.0031             (-0.0121405 -0.013239 2.30242)
       0.0032             (-0.0119064 -0.0131445 2.31299)
       0.0033             (-0.0116146 -0.0129933 2.32367)
       0.0034             (-0.0112929 -0.0128043 2.33438)
       0.0035             (-0.0109489 -0.0125822 2.34504)
       0.0036             (-0.0105853 -0.0123472 2.35567)
       0.0037             (-0.0102258 -0.0121008 2.36632)
       0.0038             (-0.0098635 -0.0118459 2.37686)
       0.0039             (-0.00949862 -0.0115854 2.38732)
        0.004             (-0.00913495 -0.0113299 2.39777)
       0.0041             (-0.00834923 -0.0107144 2.40254)
       0.0042             (-0.0075545 -0.0101381 2.40656)
       0.0043             (-0.00678978 -0.00954818 2.41033)
       0.0044             (-0.00602929 -0.00897826 2.41399)
       0.0045             (-0.00526651 -0.00840742 2.41757)
       0.0046             (-0.00452147 -0.00786252 2.42109)
       0.0047             (-0.00378759 -0.00733392 2.42455)
       0.0048             (-0.00300548 -0.0068164 2.42795)
       0.0049             (-0.00223104 -0.00629964 2.43133)
        0.005             (-0.00146652 -0.0057908 2.43468)
       0.0051             (-0.00100444 -0.00559349 2.4404)
       0.0052             (-0.000698706 -0.00549551 2.44677)
       0.0053             (-0.000447393 -0.00540324 2.45328)
       0.0054             (-0.000189398 -0.0052951 2.45982)
       0.0055             (3.85471e-05 -0.00517097 2.46636)
       0.0056             (0.000242101 -0.00500476 2.47289)
       0.0057             (0.000446404 -0.00484384 2.4794)
       0.0058             (0.000654839 -0.00469319 2.48588)
       0.0059             (0.000872333 -0.00454105 2.49234)
        0.006             (0.0010974 -0.00437267 2.49878)
       0.0061             (0.000551726 -0.00471845 2.50362)
       0.0062             (6.97472e-05 -0.00503718 2.50837)
       0.0063             (-0.000328129 -0.00529183 2.51305)
       0.0064             (-0.0006791 -0.00552497 2.51765)
       0.0065             (-0.000989344 -0.00574515 2.52215)
       0.0066             (-0.00131845 -0.00595086 2.52659)
       0.0067             (-0.00163273 -0.00615746 2.53092)
       0.0068             (-0.00192797 -0.00636655 2.53513)
       0.0069             (-0.00222526 -0.00657135 2.5392)
        0.007             (-0.00253009 -0.00677323 2.54314)
       0.0071             (-0.00265234 -0.00697046 2.5422)
       0.0072             (-0.00270538 -0.0070841 2.54051)
       0.0073             (-0.0027223 -0.00717318 2.53862)
       0.0074             (-0.00273575 -0.00726008 2.53664)
       0.0075             (-0.00274499 -0.00734017 2.53456)
       0.0076             (-0.00276508 -0.00742371 2.53237)
       0.0077             (-0.00278442 -0.00752132 2.53006)
       0.0078             (-0.00281629 -0.00762231 2.52763)
       0.0079             (-0.00285126 -0.00771827 2.52507)
        0.008             (-0.00287599 -0.00781094 2.52237)
       0.0081             (-0.00241034 -0.00741991 2.51772)
       0.0082             (-0.00187332 -0.00696934 2.51291)
       0.0083             (-0.00138418 -0.00652529 2.50815)
       0.0084             (-0.000867967 -0.00605307 2.50324)
       0.0085             (-0.000324204 -0.00562184 2.49827)
       0.0086             (0.000212659 -0.00517075 2.49336)
       0.0087             (0.000733126 -0.00470104 2.48819)
       0.0088             (0.00119602 -0.00423043 2.48286)
       0.0089             (0.00165386 -0.00378183 2.47748)
        0.009             (0.00213835 -0.00338468 2.47217)
       0.0091             (0.00298992 -0.00272468 2.46776)
       0.0092             (0.00384664 -0.00203463 2.46373)
       0.0093             (0.00469881 -0.00137482 2.46)
       0.0094             (0.00559339 -0.000719913 2.45648)
       0.0095             (0.00645394 -6.26e-05 2.45308)
       0.0096             (0.00728611 0.000609556 2.4498)
       0.0097             (0.00813595 0.0012756 2.44664)
       0.0098             (0.00900908 0.00195973 2.44366)
       0.0099             (0.0097985 0.00264705 2.44102)
         0.01             (0.0106767 0.00327671 2.43857)
       0.0101             (0.0116472 0.0040758 2.43455)
       0.0102             (0.012556 0.00484715 2.43059)
       0.0103             (0.0134455 0.0055948 2.42721)
       0.0104             (0.014316 0.00635248 2.42433)
       0.0105             (0.0152528 0.00715042 2.42198)
       0.0106             (0.0162591 0.00801845 2.42011)
       0.0107             (0.0173045 0.00896308 2.41893)
       0.0108             (0.0183861 0.0099222 2.41845)
       0.0109             (0.0195262 0.0109138 2.41867)
        0.011             (0.0207123 0.0119546 2.4196)
       0.0111             (0.0256487 0.0156143 2.38724)
       0.0112             (0.0306519 0.0194894 2.35538)
       0.0113             (0.0356267 0.0231972 2.326)
       0.0114             (0.0408145 0.0268981 2.29804)
       0.0115             (0.0460658 0.0309893 2.27232)
       0.0116             (0.0515241 0.03513 2.24822)
       0.0117             (0.0570584 0.0393304 2.22569)
       0.0118             (0.0627434 0.0435709 2.20479)
       0.0119             (0.0686191 0.0479478 2.18553)
        0.012             (0.0746774 0.0522929 2.16787)
       0.0121             (0.0801703 0.0562469 2.1416)
       0.0122             (0.0857022 0.0601326 2.11642)
       0.0123             (0.0911773 0.0639316 2.0931)
       0.0124             (0.0964331 0.0675901 2.07201)
       0.0125             (0.101357 0.0709641 2.05327)
       0.0126             (0.10604 0.0740686 2.03669)
       0.0127             (0.110486 0.0768514 2.02288)
       0.0128             (0.114665 0.0793196 2.01152)
       0.0129             (0.118751 0.0816843 2.00118)
        0.013             (0.122689 0.0840267 1.99364)
       0.0131             (0.124347 0.0845616 1.98537)
       0.0132             (0.125145 0.0842152 1.97883)
       0.0133             (0.125462 0.0835983 1.9741)
       0.0134             (0.125273 0.082626 1.9711)
       0.0135             (0.124531 0.0812993 1.96978)
       0.0136             (0.123368 0.0797102 1.97007)
       0.0137             (0.12188 0.0778782 1.97185)
       0.0138             (0.120111 0.0756842 1.97501)
       0.0139             (0.117989 0.0731923 1.97954)
        0.014             (0.115439 0.0703903 1.98535)
       0.0141             (0.110588 0.0660203 1.99745)
       0.0142             (0.105613 0.0617474 2.0115)
       0.0143             (0.100614 0.0575587 2.02641)
       0.0144             (0.0956163 0.0535056 2.04195)
       0.0145             (0.0907721 0.0496829 2.05814)
       0.0146             (0.0860629 0.0460214 2.07503)
       0.0147             (0.0814804 0.0424875 2.09264)
       0.0148             (0.07696 0.0390988 2.11106)
       0.0149             (0.0725235 0.035839 2.13026)
        0.015             (0.0682777 0.0327137 2.15025)
       0.0151             (0.0623804 0.0288125 2.16728)
       0.0152             (0.05789 0.0259085 2.18728)
       0.0153             (0.0537826 0.0232658 2.21043)
       0.0154             (0.0499281 0.0208075 2.23519)
       0.0155             (0.0463391 0.0184728 2.26101)
       0.0156             (0.0429397 0.0163008 2.28769)
       0.0157             (0.0396431 0.0142541 2.31506)
       0.0158             (0.036504 0.0122466 2.34316)
       0.0159             (0.033522 0.0103193 2.37162)
        0.016             (0.0305054 0.00845914 2.40046)
       0.0161             (0.0285002 0.00754875 2.42747)
       0.0162             (0.026316 0.00644651 2.45634)
       0.0163             (0.0239018 0.00513018 2.48616)
       0.0164             (0.021239 0.00361067 2.51658)
       0.0165             (0.0182761 0.00189478 2.54743)
       0.0166             (0.0151137 6.21246e-05 2.57881)
       0.0167             (0.0116218 -0.00195757 2.6106)
       0.0168             (0.00796736 -0.00405452 2.64283)
       0.0169             (0.00424685 -0.00642333 2.67543)
        0.017             (0.000497394 -0.0088376 2.70872)
       0.0171             (-0.000248765 -0.00924154 2.73221)
       0.0172             (-0.000372328 -0.00925376 2.75346)
       0.0173             (-0.000329921 -0.00907676 2.77401)
       0.0174             (-0.000222823 -0.00879821 2.79445)
       0.0175             (-3.05237e-05 -0.00836947 2.81499)
       0.0176             (0.000244888 -0.00780607 2.8357)
       0.0177             (0.00064385 -0.00705735 2.85689)
       0.0178             (0.00120607 -0.00634116 2.87858)
       0.0179             (0.0019159 -0.0054907 2.90081)
        0.018             (0.00281466 -0.00444483 2.92358)
       0.0181             (0.0037612 -0.00404479 2.93423)
       0.0182             (0.00472441 -0.00379613 2.93957)
       0.0183             (0.00600228 -0.00346618 2.9421)
       0.0184             (0.00750339 -0.002974 2.94322)
       0.0185             (0.0092579 -0.00224175 2.94363)
       0.0186             (0.0113679 -0.00129943 2.94385)
       0.0187             (0.0138058 -0.000114918 2.94416)
       0.0188             (0.0166055 0.00127715 2.94475)
       0.0189             (0.0197362 0.00278732 2.94578)
        0.019             (0.023238 0.00446922 2.94734)
       0.0191             (0.0268979 0.00683561 2.94617)
       0.0192             (0.0310487 0.00978841 2.94519)
       0.0193             (0.0356161 0.013003 2.94426)
       0.0194             (0.0405304 0.0164317 2.94313)
       0.0195             (0.0457976 0.0200149 2.94171)
       0.0196             (0.0513799 0.023711 2.93999)
       0.0197             (0.0572883 0.0274746 2.93799)
       0.0198             (0.0634958 0.0312207 2.93553)
       0.0199             (0.0699717 0.0351188 2.93443)
         0.02             (0.0767144 0.0390842 2.93248)
       0.0201             (0.082418 0.0422933 2.91463)
       0.0202             (0.0872798 0.0449004 2.88834)
       0.0203             (0.0916553 0.0473032 2.85729)
       0.0204             (0.0960436 0.049535 2.82342)
       0.0205             (0.100214 0.0517491 2.78844)
       0.0206             (0.104241 0.0538689 2.75338)
       0.0207             (0.108142 0.0558999 2.71886)
       0.0208             (0.112158 0.0578483 2.6854)
       0.0209             (0.116338 0.059604 2.6536)
        0.021             (0.120293 0.0611598 2.62398)
       0.0211             (0.12123 0.0605245 2.60037)
       0.0212             (0.121285 0.0591226 2.58033)
       0.0213             (0.121005 0.0574124 2.56345)
       0.0214             (0.120597 0.0556986 2.5491)
       0.0215             (0.120229 0.0540447 2.53696)
       0.0216             (0.120182 0.0526747 2.52692)
       0.0217             (0.120559 0.0514853 2.51873)
       0.0218             (0.121397 0.0504776 2.51245)
       0.0219             (0.122665 0.0498053 2.50784)
        0.022             (0.124335 0.0494967 2.50498)
       0.0221             (0.122281 0.0476827 2.51379)
       0.0222             (0.118241 0.0453503 2.52625)
       0.0223             (0.113049 0.0425747 2.54161)
       0.0224             (0.107061 0.0394369 2.55963)
       0.0225             (0.100353 0.035985 2.58018)
       0.0226             (0.0929326 0.03212 2.60304)
       0.0227             (0.0848084 0.0278685 2.62798)
       0.0228             (0.0760749 0.0231159 2.65526)
       0.0229             (0.0665413 0.0179096 2.68473)
        0.023             (0.0562037 0.0121399 2.71622)
       0.0231             (0.0467405 0.0075345 2.74374)
       0.0232             (0.0378978 0.00379994 2.76653)
       0.0233             (0.0293142 0.000353243 2.78551)
       0.0234             (0.021145 -0.00259551 2.80165)
       0.0235             (0.0131302 -0.005287 2.81539)
       0.0236             (0.00554743 -0.00768555 2.82723)
       0.0237             (-0.00177273 -0.00980322 2.83733)
       0.0238             (-0.0086281 -0.0114656 2.846)
       0.0239             (-0.0150743 -0.0127035 2.85318)
        0.024             (-0.0209237 -0.0134194 2.85901)
       0.0241             (-0.0241638 -0.0128344 2.86258)
       0.0242             (-0.0249569 -0.0110089 2.86248)
       0.0243             (-0.0239319 -0.0081354 2.85937)
       0.0244             (-0.0214528 -0.00442237 2.8538)
       0.0245             (-0.017684 0.00017793 2.84596)
       0.0246             (-0.0128276 0.00549001 2.83603)
       0.0247             (-0.00686631 0.0115169 2.82405)
       0.0248             (0.000157657 0.0183418 2.81016)
       0.0249             (0.00834988 0.0257356 2.79477)
        0.025             (0.0173454 0.0336955 2.7773)
       0.0251             (0.0243886 0.039959 2.75183)
       0.0252             (0.0305446 0.0449598 2.72293)
       0.0253             (0.035847 0.0489824 2.6915)
       0.0254             (0.0405371 0.052308 2.65802)
       0.0255             (0.0446318 0.0553679 2.62559)
       0.0256             (0.0482243 0.0578641 2.59094)
       0.0257             (0.0514665 0.0600439 2.5541)
       0.0258             (0.0543722 0.0616462 2.51584)
       0.0259             (0.0568403 0.0629032 2.47601)
        0.026             (0.0588583 0.0637593 2.43492)
       0.0261             (0.060395 0.0644696 2.38986)
       0.0262             (0.061452 0.0647844 2.34267)
       0.0263             (0.062112 0.0647417 2.29435)
       0.0264             (0.0625144 0.0643949 2.24564)
       0.0265             (0.0624425 0.0638772 2.19686)
       0.0266             (0.062286 0.0631923 2.14803)
       0.0267             (0.0619644 0.0622102 2.09976)
       0.0268             (0.0615527 0.0610752 2.05229)
       0.0269             (0.0610394 0.059844 2.00586)
        0.027             (0.0604542 0.0584608 1.96045)
       0.0271             (0.0588274 0.056225 1.91862)
       0.0272             (0.0567543 0.0534303 1.87936)
       0.0273             (0.05434 0.050336 1.84247)
       0.0274             (0.051731 0.0470276 1.80779)
       0.0275             (0.0488742 0.0436778 1.77518)
       0.0276             (0.0457713 0.0402595 1.74422)
       0.0277             (0.0425181 0.0367318 1.71498)
       0.0278             (0.0393538 0.0333125 1.68743)
       0.0279             (0.0361133 0.0300336 1.66149)
        0.028             (0.0328807 0.0269908 1.63712)
       0.0281             (0.0273028 0.0226458 1.61546)
       0.0282             (0.0205848 0.017767 1.59613)
       0.0283             (0.0133579 0.0125814 1.57855)
       0.0284             (0.00596969 0.00721461 1.56225)
       0.0285             (-0.00131941 0.00184409 1.54748)
       0.0286             (-0.00838177 -0.00317229 1.53425)
       0.0287             (-0.0151741 -0.00775881 1.5222)
       0.0288             (-0.0217171 -0.0119663 1.51114)
       0.0289             (-0.0279652 -0.0160296 1.50095)
        0.029             (-0.0338633 -0.020089 1.49144)
       0.0291             (-0.038459 -0.022718 1.48646)
       0.0292             (-0.0421851 -0.0243951 1.48395)
       0.0293             (-0.0450521 -0.0254807 1.4833)
       0.0294             (-0.047361 -0.0259158 1.484)
       0.0295             (-0.0491642 -0.0258232 1.48549)
       0.0296             (-0.0503532 -0.025216 1.48775)
       0.0297             (-0.0510216 -0.024017 1.49063)
       0.0298             (-0.0510689 -0.022452 1.49397)
       0.0299             (-0.0504395 -0.020319 1.49776)
         0.03             (-0.0489402 -0.0176483 1.50197)
       0.0301             (-0.046565 -0.0147231 1.50616)
       0.0302             (-0.0433678 -0.0113114 1.50999)
       0.0303             (-0.039514 -0.00746616 1.51376)
       0.0304             (-0.0350168 -0.00331879 1.51765)
       0.0305             (-0.0298654 0.00108923 1.52183)
       0.0306             (-0.02408 0.00573127 1.52634)
       0.0307             (-0.0177802 0.0106213 1.53112)
       0.0308             (-0.0110695 0.0157296 1.5361)
       0.0309             (-0.00378418 0.0210929 1.54122)
        0.031             (0.00407177 0.0268024 1.54652)
       0.0311             (0.0107081 0.0311777 1.54891)
       0.0312             (0.0168341 0.0348381 1.54975)
       0.0313             (0.0227419 0.037952 1.54966)
       0.0314             (0.0285215 0.0406337 1.54886)
       0.0315             (0.0342216 0.0429973 1.54747)
       0.0316             (0.0398512 0.0451695 1.54544)
       0.0317             (0.0454215 0.0470902 1.54292)
       0.0318             (0.0508784 0.0487831 1.53995)
       0.0319             (0.0562185 0.0502078 1.53659)
        0.032             (0.0613966 0.0513534 1.53283)
       0.0321             (0.0660581 0.0523476 1.52808)
       0.0322             (0.070214 0.0530099 1.52245)
       0.0323             (0.0738115 0.053409 1.51614)
       0.0324             (0.0769034 0.0534974 1.50941)
       0.0325             (0.0795904 0.0534307 1.5024)
       0.0326             (0.0817469 0.0531991 1.49521)
       0.0327             (0.0835733 0.0528098 1.48779)
       0.0328             (0.0852056 0.0521167 1.48022)
       0.0329             (0.0868333 0.0512409 1.47265)
        0.033             (0.0884611 0.0503029 1.46513)
       0.0331             (0.0883636 0.0484739 1.45838)
       0.0332             (0.0874964 0.046317 1.45266)
       0.0333             (0.0860874 0.043946 1.44809)
       0.0334             (0.0842733 0.041372 1.44461)
       0.0335             (0.0821783 0.038653 1.44214)
       0.0336             (0.0799568 0.0358249 1.44066)
       0.0337             (0.0776777 0.0329965 1.44015)
       0.0338             (0.0753238 0.030193 1.44059)
       0.0339             (0.0729772 0.0274404 1.44199)
        0.034             (0.0706991 0.0246948 1.44429)
       0.0341             (0.0680761 0.0217887 1.44727)
       0.0342             (0.0654931 0.0189083 1.45083)
       0.0343             (0.0630755 0.0161655 1.45485)
       0.0344             (0.0609126 0.0136705 1.45915)
       0.0345             (0.0590243 0.0114542 1.46349)
       0.0346             (0.0574588 0.00949376 1.46811)
       0.0347             (0.0562663 0.0078219 1.47303)
       0.0348             (0.0554539 0.00641034 1.47828)
       0.0349             (0.0551579 0.00527381 1.48384)
        0.035             (0.0553521 0.00442153 1.48973)
       0.0351             (0.0561522 0.00461872 1.4954)
       0.0352             (0.0575666 0.00555468 1.50074)
       0.0353             (0.0595828 0.00696122 1.50592)
       0.0354             (0.0620516 0.00874524 1.51079)
       0.0355             (0.0649523 0.0108147 1.51538)
       0.0356             (0.0682671 0.0131441 1.51973)
       0.0357             (0.0720028 0.0156711 1.5238)
       0.0358             (0.0761411 0.0183671 1.52762)
       0.0359             (0.0806269 0.0212731 1.5311)
        0.036             (0.0854683 0.0243571 1.53437)
       0.0361             (0.0896254 0.0266343 1.53631)
       0.0362             (0.0935721 0.0284582 1.53738)
       0.0363             (0.0975517 0.0300113 1.53781)
       0.0364             (0.101601 0.0313454 1.53763)
       0.0365             (0.10575 0.0325407 1.53691)
       0.0366             (0.10998 0.0336144 1.53554)
       0.0367             (0.114351 0.0345435 1.53371)
       0.0368             (0.118801 0.0353203 1.53133)
       0.0369             (0.123417 0.0359502 1.52858)
        0.037             (0.128181 0.036421 1.52549)
       0.0371             (0.132209 0.0364406 1.52175)
       0.0372             (0.135919 0.036183 1.51765)
       0.0373             (0.139436 0.0357387 1.51335)
       0.0374             (0.142808 0.0352109 1.50892)
       0.0375             (0.146143 0.0345135 1.50445)
       0.0376             (0.149499 0.0336925 1.50003)
       0.0377             (0.15289 0.0327488 1.49569)
       0.0378             (0.156339 0.0317287 1.49139)
       0.0379             (0.159894 0.0306509 1.48718)
        0.038             (0.163565 0.0296037 1.48306)
       0.0381             (0.165667 0.0282753 1.47846)
       0.0382             (0.166931 0.0268448 1.47378)
       0.0383             (0.167591 0.0253292 1.46912)
       0.0384             (0.167805 0.0237963 1.46466)
       0.0385             (0.16769 0.0222648 1.46054)
       0.0386             (0.167331 0.0207599 1.45675)
       0.0387             (0.166837 0.0192395 1.45322)
       0.0388             (0.166258 0.0177432 1.45009)
       0.0389             (0.165626 0.0163149 1.44731)
        0.039             (0.164977 0.0149375 1.44486)
       0.0391             (0.163681 0.0135434 1.442)
       0.0392             (0.162177 0.0121585 1.43925)
       0.0393             (0.160558 0.0108356 1.43665)
       0.0394             (0.158948 0.00960423 1.43421)
       0.0395             (0.157382 0.00844223 1.43194)
       0.0396             (0.155911 0.00735643 1.42985)
       0.0397             (0.154571 0.0063723 1.42796)
       0.0398             (0.153395 0.00548594 1.4262)
       0.0399             (0.152382 0.0046964 1.42464)
         0.04             (0.151542 0.00401729 1.42328)
       0.0401             (0.150322 0.00354362 1.42197)
       0.0402             (0.14912 0.00332693 1.4209)
       0.0403             (0.148001 0.00331229 1.42007)
       0.0404             (0.147028 0.00347916 1.41947)
       0.0405             (0.146258 0.00381683 1.41912)
       0.0406             (0.145721 0.00430899 1.41902)
       0.0407             (0.145442 0.00493897 1.41916)
       0.0408             (0.145453 0.0057042 1.41956)
       0.0409             (0.145768 0.00659961 1.42024)
        0.041             (0.146394 0.00762823 1.4212)
       0.0411             (0.146831 0.00853359 1.42232)
       0.0412             (0.147312 0.00942753 1.42341)
       0.0413             (0.147914 0.0103227 1.42453)
       0.0414             (0.148679 0.0112232 1.42568)
       0.0415             (0.149638 0.0121241 1.4269)
       0.0416             (0.150806 0.0130221 1.42818)
       0.0417             (0.152201 0.0139146 1.42952)
       0.0418             (0.153824 0.0147918 1.43093)
       0.0419             (0.155688 0.0156409 1.4324)
        0.042             (0.157795 0.0164612 1.43394)
       0.0421             (0.159591 0.0170371 1.43517)
       0.0422             (0.161285 0.0174128 1.43612)
       0.0423             (0.162932 0.0176503 1.43686)
       0.0424             (0.164571 0.017794 1.43743)
       0.0425             (0.166236 0.01786 1.43781)
       0.0426             (0.167957 0.0178756 1.43804)
       0.0427             (0.169747 0.0178378 1.43812)
       0.0428             (0.171619 0.0177746 1.4381)
       0.0429             (0.173583 0.0176825 1.43799)
        0.043             (0.175659 0.0175796 1.43782)
       0.0431             (0.17694 0.0172537 1.43744)
       0.0432             (0.17787 0.0168513 1.43694)
       0.0433             (0.178537 0.0164255 1.43638)
       0.0434             (0.179013 0.0159991 1.43579)
       0.0435             (0.17935 0.0155896 1.43518)
       0.0436             (0.179589 0.0152143 1.43459)
       0.0437             (0.17976 0.014884 1.43401)
       0.0438             (0.179886 0.0146051 1.43346)
       0.0439             (0.179985 0.0143935 1.43295)
        0.044             (0.180054 0.014248 1.43248)
       0.0441             (0.179687 0.014154 1.43199)
       0.0442             (0.17908 0.0141158 1.43155)
       0.0443             (0.178291 0.014121 1.43117)
       0.0444             (0.177371 0.014167 1.43084)
       0.0445             (0.176372 0.0142574 1.43057)
       0.0446             (0.175325 0.0143907 1.43036)
       0.0447             (0.174254 0.0145678 1.4302)
       0.0448             (0.173185 0.0147896 1.43012)
       0.0449             (0.172137 0.0150649 1.4301)
        0.045             (0.171125 0.015389 1.43015)
       0.0451             (0.169794 0.0157096 1.43005)
       0.0452             (0.168367 0.0160869 1.42992)
       0.0453             (0.166887 0.0165209 1.42978)
       0.0454             (0.165406 0.0170103 1.42966)
       0.0455             (0.163952 0.0175597 1.42957)
       0.0456             (0.162547 0.0181725 1.4295)
       0.0457             (0.161234 0.0188464 1.42946)
       0.0458             (0.16002 0.0195721 1.42946)
       0.0459             (0.158897 0.0203599 1.4295)
        0.046             (0.157874 0.0212054 1.42961)
       0.0461             (0.15674 0.0220261 1.42963)
       0.0462             (0.155647 0.0228621 1.42967)
       0.0463             (0.154644 0.0237248 1.42973)
       0.0464             (0.153743 0.0246106 1.42983)
       0.0465             (0.15293 0.0255236 1.42996)
       0.0466             (0.152216 0.0264579 1.43014)
       0.0467             (0.151611 0.0274163 1.43035)
       0.0468             (0.151122 0.0283947 1.4306)
       0.0469             (0.150765 0.0293843 1.43087)
        0.047             (0.150544 0.0303947 1.43116)
       0.0471             (0.150143 0.0312852 1.43138)
       0.0472             (0.149711 0.0320873 1.43167)
       0.0473             (0.149285 0.0328309 1.43203)
       0.0474             (0.148889 0.0335276 1.43243)
       0.0475             (0.148545 0.034189 1.4329)
       0.0476             (0.148277 0.0348158 1.43344)
       0.0477             (0.148081 0.0354193 1.43405)
       0.0478             (0.147969 0.0360069 1.43473)
       0.0479             (0.147944 0.0365827 1.43548)
        0.048             (0.148005 0.0371468 1.4363)
       0.0481             (0.147749 0.0375024 1.4368)
       0.0482             (0.147347 0.0377376 1.4372)
       0.0483             (0.146832 0.0378901 1.43754)
       0.0484             (0.146234 0.0379841 1.43782)
       0.0485             (0.14557 0.0380403 1.43809)
       0.0486             (0.144856 0.0380763 1.43837)
       0.0487             (0.144109 0.0380903 1.43866)
       0.0488             (0.143332 0.0380896 1.43896)
       0.0489             (0.142526 0.0380903 1.43932)
        0.049             (0.141705 0.0380652 1.43969)
       0.0491             (0.140452 0.0380961 1.43999)
       0.0492             (0.138946 0.0381612 1.44019)
       0.0493             (0.13723 0.0382429 1.44032)
       0.0494             (0.135361 0.038351 1.44039)
       0.0495             (0.13338 0.0384716 1.44041)
       0.0496             (0.131334 0.0386128 1.44041)
       0.0497             (0.12926 0.0387696 1.44039)
       0.0498             (0.127198 0.0389507 1.44036)
       0.0499             (0.12518 0.0391562 1.44034)
         0.05             (0.123247 0.0393887 1.44034)
       0.0501             (0.120891 0.0396172 1.44034)
       0.0502             (0.118375 0.0398769 1.4403)
       0.0503             (0.115789 0.0401796 1.44025)
       0.0504             (0.113181 0.0405018 1.44018)
       0.0505             (0.110578 0.0408663 1.44013)
       0.0506             (0.108023 0.041256 1.44009)
       0.0507             (0.105544 0.0416883 1.44011)
       0.0508             (0.103177 0.0421457 1.44019)
       0.0509             (0.100939 0.0426407 1.44035)
        0.051             (0.0988367 0.043164 1.44063)
       0.0511             (0.0967604 0.043702 1.4409)
       0.0512             (0.09477 0.0442588 1.44116)
       0.0513             (0.0928613 0.0448332 1.44142)
       0.0514             (0.0910399 0.0454321 1.4417)
       0.0515             (0.0893243 0.0460496 1.44197)
       0.0516             (0.087706 0.0466864 1.44226)
       0.0517             (0.0862046 0.047342 1.44256)
       0.0518             (0.0848268 0.0480152 1.44288)
       0.0519             (0.0835685 0.0487056 1.44321)
        0.052             (0.0824613 0.0494131 1.44357)
       0.0521             (0.0810506 0.0499878 1.44383)
       0.0522             (0.0794627 0.0504933 1.44403)
       0.0523             (0.0778053 0.0509682 1.44421)
       0.0524             (0.0761219 0.0514152 1.44437)
       0.0525             (0.0744677 0.0518433 1.44453)
       0.0526             (0.0728868 0.0522449 1.44471)
       0.0527             (0.0714747 0.0526339 1.44489)
       0.0528             (0.0701801 0.0530076 1.4451)
       0.0529             (0.069076 0.0533726 1.44531)
        0.053             (0.0681061 0.053733 1.44555)
       0.0531             (0.0668944 0.0539524 1.44562)
       0.0532             (0.0655718 0.0540814 1.4456)