/*--------------------------------*- C++ -*----------------------------------*\
| =========                 |                                                 |
| \\      /  F ield         | OpenFOAM: The Open Source CFD Toolbox           |
|  \\    /   O peration     | Version:  5.x                                   |
|   \\  /    A nd           | Web:      www.OpenFOAM.org                      |
|    \\/     M anipulation  |                                                 |
\*---------------------------------------------------------------------------*/
FoamFile
{
    version     2.0;
    format      ascii;
    class       volScalarField;
    location    "0.8";
    object      voidfraction;
}
// * * * * * * * * * * * * * * * * * * * * * * * * * * * * * * * * * * * * * //

dimensions      [0 0 0 0 0 0 0];

internalField   nonuniform List<scalar> 
10571
(
0.902363
0.653296
0.919645
0.711749
0.506133
0.634984
0.713205
0.79891
0.700159
0.627639
0.768715
0.95636
0.904174
0.946375
0.585494
0.494996
0.697986
0.78374
0.771778
0.511333
0.482504
0.52063
0.497032
0.461645
0.788824
0.917804
0.918816
0.965645
0.955781
0.688104
0.569583
0.778205
0.666722
0.509815
0.671879
0.8139
0.682995
0.797824
0.621944
0.435228
0.612188
0.715196
0.698353
0.505221
0.459976
0.547516
0.435497
0.437543
0.921778
0.645999
0.882012
0.853682
0.971074
0.980769
0.69602
0.838395
0.917467
0.513282
0.970789
0.942707
0.697239
0.803941
0.905037
0.63964
0.967829
0.883699
0.803573
0.663833
0.526295
0.915888
0.817633
0.595163
0.803089
0.87798
0.943874
0.97777
0.757832
0.985265
0.950803
0.94405
0.974491
0.849604
0.960986
0.996872
0.932862
0.859029
0.983134
0.855356
0.983259
0.971168
0.975064
0.982935
0.847358
0.971487
0.945604
0.974523
0.51784
0.958504
0.94027
0.982967
0.927716
0.983121
0.977005
0.963252
0.973836
0.893592
0.959867
0.996014
0.983136
0.98406
0.988529
0.950773
0.992304
0.982135
0.984385
0.988804
0.91959
0.971118
0.975001
0.985142
0.909406
0.984261
0.983804
0.982528
0.969828
0.995338
0.97846
0.982929
0.976651
0.962968
0.411684
0.972069
0.994319
0.990679
0.993016
0.987104
0.968763
0.402974
0.991009
0.981285
0.984041
0.991683
0.979317
0.966585
0.966174
0.986957
0.976915
0.987285
0.987444
0.944153
0.977923
0.99314
0.978071
0.975082
0.978872
0.992414
0.995208
0.968879
0.983931
0.973582
0.989441
0.986317
0.993539
0.997114
0.974286
0.948916
0.979559
0.985477
0.996123
0.997619
0.976419
0.978316
0.986502
0.994504
0.993838
0.984305
0.988557
0.990866
0.981919
0.961557
0.971708
0.985724
0.991156
1
0.976577
0.972021
0.959356
0.976528
0.987697
0.991867
0.999472
0.973293
0.986661
0.987512
0.989918
0.999459
1
0.995934
0.994202
0.990574
0.993734
0.989918
0.993318
0.992111
0.99147
0.992227
0.9847
0.979428
0.992977
0.995957
1
0.989883
0.989648
0.986619
0.977132
0.991721
0.996445
1
0.988722
0.996681
0.994086
0.992695
1
0.997754
0.99846
0.99594
0.994833
0.995575
0.99892
0.998071
0.997953
0.993344
0.993021
0.992727
0.995488
0.992546
0.9989
0.996009
0.99642
0.992774
0.996203
0.99534
0.995669
0.997929
0.997928
0.998689
1
0.997212
0.997071
1
0.99989
0.99944
0.997606
0.996147
0.995042
0.998716
0.996656
0.996648
0.997112
0.998871
0.99989
0.99459
0.997565
0.996855
0.997683
0.997392
0.993385
0.998323
0.998984
0.99549
0.997977
0.998877
0.998611
0.995169
0.996812
0.997312
0.999022
0.996283
0.996576
0.996926
0.998538
0.997339
0.997578
0.995158
1
0.999222
0.998264
0.99833
0.998331
0.997915
1
0.998546
0.999058
0.997731
1
0.9988
1
0.99797
0.99989
0.992496
0.99791
1
0.997386
0.99848
0.998542
0.997425
0.99788
0.997287
1
0.996856
0.998669
0.998366
0.998525
1
1
0.999128
0.999046
1
0.99993
0.999845
0.999064
1
0.99989
0.997032
0.999831
0.999966
0.997837
0.998041
0.998207
0.99881
0.998639
0.997441
0.996811
0.99902
0.998727
0.9988
0.998513
0.999123
0.997264
0.999221
0.998864
0.999065
0.9979
0.998877
0.999789
1
0.996921
0.998376
0.997269
0.998041
0.999399
0.997062
0.998489
0.996945
0.998203
0.999845
0.995272
0.99902
0.997923
0.997514
0.998898
0.999093
0.999158
0.998579
0.99928
1
0.99867
0.999923
1
1
0.998461
1
0.998685
0.996419
0.994773
0.998075
0.999
0.998641
0.998655
0.999263
0.996921
0.99804
0.999135
0.998389
0.998358
0.999123
1
0.999536
0.999208
0.998064
1
0.997755
0.99997
0.99867
0.996811
0.998376
0.999966
0.996082
0.997506
0.998042
0.998936
0.998331
0.9987
0.997596
1
1
0.99875
0.998707
0.998727
0.999123
1
0.99914
0.99945
1
0.997969
0.999768
1
1
1
0.999048
1
0.997264
0.997957
0.997839
0.998497
0.997617
0.997981
1
1
0.997736
0.998835
0.998916
0.998739
0.999123
0.998226
0.998999
0.999373
1
1
0.998877
0.999124
1
0.992525
0.99832
0.997438
0.999358
0.995284
0.994665
0.998894
0.998987
0.998441
0.998876
1
0.997364
0.999181
0.999322
0.998744
0.999395
1
0.999689
0.998945
0.998832
1
0.998877
1
1
0.992854
0.998208
0.998214
1
0.997417
0.998143
0.999039
0.997928
0.997807
0.997016
1
0.99902
0.999442
0.999109
0.999339
0.999123
1
0.999342
0.999879
0.998264
1
0.999768
1
1
0.997911
0.998376
0.999022
0.998919
0.995945
0.997265
0.999149
0.999209
0.998607
0.999263
0.996812
0.998378
0.999554
0.998877
0.998735
0.999093
1
0.999568
0.999531
0.999032
1
1
0.99849
0.99797
0.990435
0.996752
0.994337
0.998412
0.997176
0.998987
0.999298
0.998192
0.999087
1
1
0.99973
0.999531
0.999102
0.999412
1
0.999128
0.999766
0.999648
1
1
1
1
1
0.996812
0.994624
0.997101
0.998446
0.996515
0.998042
0.9986
0.998929
0.999338
1
1
0.998074
0.999108
0.999164
0.999222
1
1
0.99975
0.999369
0.999032
1
1
1
1
0.997911
0.996752
0.998989
0.997399
0.99964
0.998042
0.99921
0.999493
0.999487
1
1
0.997668
0.999219
0.999566
0.999404
0.99994
1
0.999649
0.999495
0.998965
1
1
0.999124
1
0.997911
0.996977
0.998045
0.998007
0.999129
0.998953
0.998981
0.999244
0.99933
1
0.996812
1
0.999562
0.999551
0.999043
1
1
0.999649
0.999766
1
0.99867
0.998877
1
1
0.996921
0.998712
0.995753
0.99642
0.998949
0.999325
0.998745
0.999777
0.999414
0.999263
1
0.99902
0.999888
0.999439
0.999558
1
1
0.999883
0.999976
1
1
0.998955
1
0.9993
0.994062
0.997536
0.996899
0.996791
0.999099
0.996286
0.99889
0.99934
0.999523
1
1
0.99804
0.999585
0.999864
0.99972
1
0.999128
0.99941
0.999398
1
1
1
0.998249
1
0.996811
0.995521
0.998685
1
0.999129
0.997501
0.998638
0.998887
1
1
1
0.998378
0.999396
0.999775
0.999765
1
1
0.999544
0.999806
1
1
1
1
1
1
0.998376
0.997944
1
1
0.999966
0.9995
0.999351
0.999766
1
1
0.999054
0.99955
0.999775
0.999647
1
1
0.999883
0.999414
0.998064
1
1
1
1
1
0.997984
1
1
1
0.995442
0.999359
0.999332
0.999766
1
0.996812
0.999358
0.999673
0.999849
0.999882
0.998247
0.998948
0.999766
0.999883
1
1
1
1
1
0.99989
0.998376
0.999798
1
1
0.996724
0.999298
0.999889
1
0.998876
1
0.99804
0.999773
0.999926
1
1
0.998557
0.999883
0.999766
1
1
0.998877
1
1
1
1
1
0.999358
1
0.996725
0.999569
1
1
1
1
0.999966
0.999665
0.999551
0.999882
1
0.998256
1
1
1
1
1
1
1
1
0.998376
1
1
1
0.998717
0.99934
0.999823
1
1
1
0.999662
0.999777
0.999663
0.999882
1
1
0.999649
1
1
1
1
1
1
1
0.998376
1
1
1
0.999021
0.999573
0.9998
1
1
1
1
0.999554
0.999663
1
1
1
1
0.999883
1
1
1
1
1
1
1
1
1
1
0.999021
0.999889
0.999962
1
1
1
1
0.999777
0.999888
1
1
1
0.99977
0.999883
1
1
1
1
1
1
1
1
1
1
0.998818
0.999596
0.999889
1
1
1
0.999358
1
1
0.999882
1
1
0.999996
1
1
1
1
1
1
1
0.998376
1
1
1
1
0.999889
1
1
1
1
1
0.999881
1
0.999882
1
1
0.999891
1
1
1
1
1
1
1
1
1
1
1
1
0.999889
1
1
1
1
1
0.999888
1
1
1
1
1
1
1
1
1
1
1
1
1
1
1
1
1
1
1
1
1
1
1
1
1
1
1
1
1
1
1
1
1
1
1
1
1
1
1
1
1
1
1
1
1
1
1
1
1
1
1
1
1
1
1
1
1
1
1
1
1
1
1
1
1
1
1
1
1
1
1
1
1
1
1
1
1
1
1
1
1
1
1
1
1
1
1
1
1
1
1
1
1
1
1
1
1
1
1
1
1
1
1
1
1
1
1
1
1
1
1
1
1
1
1
1
1
1
1
1
1
1
1
1
1
1
1
1
1
1
1
1
1
1
1
1
1
1
1
1
1
1
1
1
1
1
1
1
1
1
1
1
1
1
1
1
1
1
1
1
1
1
1
1
1
1
1
1
1
1
1
1
1
1
1
1
1
1
1
1
1
1
1
1
1
1
1
1
1
1
1
1
1
1
1
1
1
1
1
1
1
1
1
1
1
1
1
1
1
1
1
1
1
1
1
1
1
1
1
1
1
1
1
1
1
1
1
1
1
1
1
1
1
1
1
1
1
1
1
1
1
1
1
1
1
1
1
1
1
1
1
1
1
1
1
1
1
1
1
1
1
1
1
1
1
1
1
1
1
1
1
1
1
1
1
1
1
1
1
1
1
1
1
1
1
1
1
1
1
1
1
1
1
1
1
1
1
1
1
1
1
1
1
1
1
1
1
1
1
1
1
1
1
1
1
1
1
1
1
1
1
1
1
1
1
1
1
1
1
1
1
1
1
1
1
1
1
1
1
1
1
1
1
1
1
1
1
1
1
1
1
1
1
1
1
1
1
1
1
1
1
1
1
1
1
1
1
1
1
1
1
1
1
1
1
1
1
1
1
1
1
1
1
1
1
1
1
1
1
1
1
1
1
1
1
1
1
1
1
1
1
1
1
1
1
1
1
1
1
1
1
1
1
1
1
1
1
1
1
1
1
1
1
1
1
1
1
1
1
1
1
1
1
1
1
1
1
1
1
1
1
1
1
1
1
1
1
1
1
1
1
1
1
1
1
1
1
1
1
1
1
1
1
1
1
1
1
1
1
1
1
1
1
1
1
1
1
1
1
1
1
1
1
1
1
1
1
1
1
1
1
1
1
1
1
1
1
1
1
1
1
1
1
1
1
1
1
1
1
1
1
1
1
1
1
1
1
1
1
1
1
1
1
1
1
1
1
1
1
1
1
1
1
1
1
1
1
1
1
1
1
1
1
1
1
1
1
1
1
1
1
1
1
1
1
1
1
1
1
1
1
1
1
1
1
1
1
1
1
1
1
1
1
1
1
1
1
1
1
1
1
1
1
1
1
1
1
1
1
1
1
1
1
1
1
1
1
1
1
1
1
1
1
1
1
1
1
1
1
1
1
1
1
1
1
1
1
1
1
1
1
1
1
1
1
1
1
1
1
1
1
1
1
1
1
1
1
1
1
1
1
1
1
1
1
1
1
1
1
1
1
1
1
1
1
1
1
1
1
1
1
1
1
1
1
1
1
1
1
1
1
1
1
1
1
1
1
1
1
1
1
1
1
1
1
1
1
1
1
1
1
1
1
1
1
1
1
1
1
1
1
1
1
1
1
1
1
1
1
1
1
1
1
1
1
1
1
1
1
1
1
1
1
1
1
1
1
1
1
1
1
1
1
1
1
1
1
1
1
1
1
1
1
1
1
1
1
1
1
1
1
1
1
1
1
1
1
1
1
1
1
1
1
1
1
1
1
1
1
1
1
1
1
1
1
1
1
1
1
1
1
1
1
1
1
1
1
1
1
1
1
1
1
1
1
1
1
1
1
1
1
1
1
1
1
1
1
1
1
1
1
1
1
1
1
1
1
1
1
1
1
1
1
1
1
1
1
1
1
1
1
1
1
1
1
1
1
1
1
1
1
1
1
1
1
1
1
1
1
1
1
1
1
1
1
1
1
1
1
1
1
1
1
1
1
1
1
1
1
1
1
1
1
1
1
1
1
1
1
1
1
1
1
1
1
1
1
1
1
1
1
1
1
1
1
1
1
1
1
1
1
1
1
1
1
1
1
1
0.478337
0.617359
0.637029
0.607886
0.627467
0.622619
0.64842
0.616172
0.66389
0.579532
0.506837
0.782516
0.607227
0.55665
0.841886
0.561828
0.900385
0.902899
0.763661
0.947752
0.872173
0.622862
0.552515
0.735943
0.718451
0.674317
0.820176
0.813734
0.712674
0.798092
0.619259
0.828489
0.655411
0.552548
0.786247
0.683806
0.761455
0.896621
0.863425
0.972225
0.91274
0.830112
0.805511
0.902949
0.861193
0.703229
0.699202
0.722009
0.753301
0.668653
0.761802
0.922743
0.945313
0.874707
0.967078
0.92111
0.916547
0.947254
0.982245
0.983228
0.914693
0.979009
0.906504
0.858486
0.792627
0.820538
0.73101
0.679634
0.757449
0.686351
0.736836
0.797403
0.898568
0.737604
0.719604
0.874431
0.912985
0.755995
0.75269
0.899218
0.886079
0.779625
0.719067
0.742334
0.634258
0.695984
0.580564
0.639522
0.640928
0.741434
0.686134
0.8002
0.670142
0.708473
0.759491
0.607753
0.859321
0.977814
0.985944
0.972569
0.963608
0.993106
0.96907
0.974128
0.831895
0.689492
0.914299
0.908129
0.919311
0.551371
0.940672
0.466516
0.727026
0.791003
0.570654
0.752783
0.936907
0.909256
0.748037
0.596463
0.472996
0.562146
0.579239
0.791648
0.434095
0.624533
0.480193
0.619526
0.45242
0.521062
0.613176
0.566068
0.579644
0.418646
0.483227
0.570917
0.585928
0.527915
0.488617
0.531197
0.813778
0.768857
0.407829
0.482536
0.503374
0.536636
0.498737
0.448959
0.521462
0.479421
0.707664
0.4597
0.767657
0.501416
0.509477
0.612882
0.723635
0.506079
0.503782
0.477954
0.496346
0.47809
0.46211
0.443609
0.455652
0.438139
0.45401
0.479836
0.419713
0.500259
0.615254
0.452103
0.453303
0.465687
0.499806
0.566538
0.454011
0.463939
0.454453
0.428184
0.978163
0.987272
0.983599
0.948489
0.951417
0.984686
0.970252
0.921279
0.922073
0.91316
0.72207
0.835658
0.922141
0.9579
0.974463
0.620241
0.787088
0.900503
0.696836
0.650535
0.693194
0.851395
0.702681
0.648559
0.527879
0.704528
0.471856
0.978094
0.635987
0.847351
0.531523
0.451264
0.469521
0.883022
0.842313
0.846124
0.955429
0.987076
0.95109
0.451686
0.569355
0.506058
0.494671
0.586337
0.656747
0.543798
0.943959
0.902214
0.804195
0.574765
0.487903
0.468848
0.577958
0.476754
0.449315
0.739305
0.680018
0.900339
0.777846
0.692269
0.752878
0.960385
0.901959
0.427567
0.438937
0.433166
0.472756
0.423526
0.41945
0.434074
0.4614
0.652793
0.914284
0.460574
0.431381
0.842133
0.709107
0.646717
0.447696
0.433192
0.503872
0.435514
0.482609
0.432326
0.995374
0.954632
0.964881
0.986745
0.964901
0.954778
0.976447
0.989632
0.793297
0.929594
0.885963
0.940663
0.940723
0.992401
0.913043
0.936723
0.945423
0.875741
0.8881
0.842728
0.718568
0.650588
0.914733
0.825528
0.574434
0.925941
0.656839
0.871532
0.564505
0.961813
0.868363
0.48892
0.747009
0.969998
0.975275
0.954085
0.972895
0.961802
0.976788
0.739909
0.683098
0.690229
0.896948
0.870583
0.97705
0.972973
0.991768
0.985525
0.97265
0.70191
0.47153
0.766166
0.819042
0.521334
0.99385
0.990543
0.918071
0.977953
0.972543
0.993663
0.982822
0.989741
0.979493
0.507726
0.59568
0.564416
0.970429
0.880111
0.95814
0.930167
0.650958
0.970315
0.967065
0.844591
0.939037
0.961033
0.908086
0.948379
0.684386
0.852514
0.914758
0.957763
0.955505
0.946564
0.660677
0.693754
0.96879
0.700886
0.894302
0.751435
0.689702
0.711978
0.947268
0.880418
0.629453
0.84491
0.742704
0.616618
0.503154
0.96402
0.97117
0.817829
0.957727
0.971947
0.933879
0.936065
0.975142
0.989313
0.748311
0.97732
0.939619
0.793339
0.876136
0.979553
0.938754
0.852782
0.849887
0.9719
0.982197
0.9815
0.970638
0.96295
0.978724
0.907534
0.870508
0.876172
0.926197
0.906242
0.982733
0.969759
0.955585
0.979927
0.972247
0.867424
0.678791
0.91198
0.885759
0.82977
0.986967
0.983053
0.992942
0.992301
0.980874
0.991647
0.992689
0.990946
0.981696
0.964154
0.97473
0.962989
0.987533
0.972571
0.983018
0.986535
0.879531
0.970634
0.975585
0.94285
0.962701
0.965972
0.96403
0.955883
0.968718
0.965885
0.960749
0.978068
0.971579
0.988583
0.913369
0.974001
0.514466
0.833032
0.732478
0.697075
0.949378
0.896337
0.701778
0.606581
0.773633
0.87618
0.839089
0.68433
0.937796
0.97186
0.977779
0.962922
0.978404
0.985689
0.971493
0.974355
0.980126
0.980242
0.939133
0.97719
0.940875
0.970775
0.958639
0.978429
0.94869
0.880385
0.942093
0.979374
0.980978
0.98477
0.984867
0.952167
0.980375
0.9547
0.924496
0.942022
0.95517
0.910938
0.983523
0.970883
0.965363
0.980762
0.97723
0.86183
0.922257
0.962391
0.905929
0.961802
0.97447
0.977398
0.993112
0.981326
0.986078
0.989987
0.989608
0.994544
0.986528
0.970867
0.988386
0.981372
0.989692
0.970632
0.983685
0.989933
0.963898
0.977332
0.971803
0.973848
0.955222
0.974522
0.962775
0.958402
0.973559
0.953033
0.955869
0.967529
0.955554
0.986186
0.961662
0.975881
0.924569
0.973254
0.956173
0.97559
0.983123
0.974163
0.960051
0.959848
0.966468
0.972659
0.971942
0.9623
0.991699
0.982863
0.979031
0.980523
0.986649
0.979518
0.9837
0.984777
0.995857
0.987102
0.979436
0.973656
0.962879
0.977318
0.979029
0.96671
0.978045
0.965774
0.980416
0.977666
0.979107
0.982341
0.983433
0.978337
0.985672
0.828989
0.97152
0.700742
0.972974
0.975877
0.982336
0.98105
0.403993
0.404934
0.391705
0.84726
0.691995
0.791997
0.665058
0.97476
0.968051
0.975478
0.97297
0.96495
0.685157
0.974065
0.700786
0.991533
0.969237
0.993729
0.934536
0.385221
0.403503
0.396461
0.723479
0.560741
0.685281
0.478294
0.974398
0.973071
0.989047
0.989537
0.980382
0.983819
0.981087
0.977948
0.971933
0.981883
0.9865
0.99096
0.986238
0.987432
0.983073
0.995355
0.992909
0.972083
0.973202
0.948434
0.975855
0.967357
0.962227
0.984086
0.979236
0.949079
0.972177
0.98653
0.973551
0.98823
0.979087
0.989265
0.983948
0.979716
0.984462
1
0.991755
0.988521
0.978633
0.983382
0.986369
0.990152
0.984668
0.974786
0.9936
0.978334
0.98321
0.99011
0.990284
0.991009
0.986557
0.988192
0.987541
0.988696
0.98891
0.963097
0.980775
0.988307
0.990355
0.983792
0.983793
0.991642
0.997032
0.996085
0.999902
0.999918
0.996578
1
0.998384
0.979949
0.990213
0.981067
0.976967
0.970748
0.987913
0.994828
0.987639
0.997378
0.994397
0.998069
0.990924
0.998491
0.987907
0.997059
0.990494
0.999178
0.998296
1
0.995889
0.974273
0.980403
0.975807
0.975333
0.973857
0.994984
0.992343
0.997128
0.99581
0.996545
0.991308
1
0.986288
0.994996
0.952189
0.998895
0.999298
0.999717
0.999706
0.97342
0.979838
0.961325
0.976542
0.960943
0.969773
0.951382
0.96619
0.976504
0.995664
0.988317
0.994405
0.991205
0.994522
0.992119
0.996647
0.995098
0.994739
0.99431
0.992926
1
1
0.988945
0.97691
0.983777
0.980794
0.979013
0.988459
0.987379
0.988047
0.992538
0.997946
0.985064
0.990453
0.989315
0.995329
0.997978
0.99978
0.991793
0.995154
1
0.996516
0.994609
0.993516
0.990399
0.99934
0.996849
0.992488
0.99548
0.993249
0.987182
0.984046
0.991339
0.989747
0.988793
0.994567
0.991729
0.993949
0.988891
0.989176
0.984709
0.988005
0.997925
0.988393
0.992426
0.990853
0.995487
0.997635
0.994485
1
1
1
1
1
0.979019
0.980755
0.968768
0.984826
0.991093
0.987762
0.998643
0.987737
0.999048
0.995801
0.999131
0.994216
0.998993
1
0.999193
0.998058
1
1
1
1
0.972848
0.968203
0.979876
0.983091
0.984586
0.998826
0.991478
0.997987
0.992884
0.996787
0.998138
1
1
1
1
1
1
1
1
0.990931
0.987233
0.980264
0.989255
0.989554
0.986315
0.988119
0.992012
0.992401
0.993618
0.995682
0.993677
0.983627
0.996505
0.993755
0.994525
1
0.997241
1
1
1
1
0.989855
0.997621
0.995075
0.996817
0.998877
0.999698
1
0.996548
1
0.997161
0.995422
0.996818
0.997973
0.997978
0.995957
0.998901
0.998645
1
0.994722
0.997755
0.997304
0.997212
0.993454
0.994173
0.99797
0.996359
0.990592
0.997908
0.996377
0.996238
0.995655
0.993175
0.99316
0.998432
0.995595
0.995232
0.993096
0.990673
0.99297
0.99343
0.993881
0.99922
0.992261
0.995364
1
0.997113
0.992258
0.992412
0.988368
0.991329
0.987794
0.988307
1
0.996775
0.999032
0.993569
1
0.995249
0.998579
1
1
1
1
1
1
1
0.987212
0.994384
0.985595
0.995091
0.991673
1
0.99794
1
0.994954
0.998853
0.997204
1
1
1
1
1
1
1
1
0.99414
0.998047
0.991518
0.991899
0.99564
0.995158
0.994324
0.994037
0.997608
0.995302
0.995571
0.997519
0.994972
0.998849
0.997892
0.995186
1
0.99979
0.997971
0.997643
1
0.996399
0.996979
1
0.995499
0.996818
0.998248
0.996625
1
0.997969
0.997282
0.998676
0.996811
1
0.999182
1
0.997755
0.995912
0.996515
0.996166
0.99967
0.997698
0.996322
1
0.996653
0.999303
0.99596
0.997693
0.995619
0.996223
0.996752
0.998083
0.997586
0.998861
0.996802
0.995516
0.997906
0.996542
0.996686
0.993948
0.992989
0.995276
0.99469
0.998877
0.993622
0.995578
0.994542
1
0.996608
0.999074
0.997886
0.998057
0.995855
1
0.995909
0.997018
0.997911
0.997909
0.998567
0.997885
0.997246
0.999141
0.999384
0.996987
0.997628
0.99986
0.998119
0.998706
0.99894
0.998256
0.998087
0.998594
0.996216
0.998807
0.998536
0.998365
0.998996
0.998868
0.998843
1
0.999931
0.997971
0.997971
0.996888
1
0.997677
0.99858
1
1
0.998903
0.998732
1
0.999781
1
1
1
1
0.999961
0.998819
0.996811
0.996672
0.996548
0.995305
0.995355
1
0.998274
1
0.994841
0.994633
0.99596
0.99596
0.996225
0.998331
0.999382
0.999048
0.999041
0.999136
0.997461
0.998259
0.995218
0.999122
0.996035
0.995788
0.997167
0.999063
0.995958
0.997279
0.995781
0.996811
0.996941
1
0.996921
0.998243
0.998816
0.999019
0.995932
0.995614
0.994616
0.995213
0.997599
0.996811
0.997334
0.997754
0.995425
0.999611
0.996736
0.998792
0.996053
0.997977
1
0.998944
0.998369
0.996942
0.998256
0.997131
0.998369
0.999697
1
0.997963
1
0.998398
0.997897
0.998997
1
0.996648
0.996082
0.997971
0.997402
0.999341
1
0.997372
1
0.998838
0.997476
0.999124
1
1
0.99958
0.997979
1
0.993623
0.998646
1
0.993513
0.995744
0.998244
0.998183
1
0.996921
0.999122
0.995897
0.997978
0.996654
1
0.997214
0.996525
0.998272
0.997592
0.996696
0.998263
0.998838
1
0.998371
0.995751
0.99997
0.997987
0.993876
0.995783
0.995645
1
0.994127
0.997755
0.99989
0.997365
0.997794
1
1
1
0.99362
0.997481
0.995614
0.996809
0.99691
0.997832
1
1
1
1
0.997292
0.998247
0.996813
0.995511
1
1
0.998087
1
0.998244
0.999128
0.997131
1
1
0.998232
0.997538
0.999435
0.998064
0.998231
0.998054
0.997288
0.996011
0.998461
0.99965
0.997342
0.996817
0.998413
0.999728
0.998902
0.997018
0.996817
1
0.996863
0.997915
0.99594
1
1
0.993733
0.997756
0.998244
1
1
1
0.998243
0.995974
0.993843
0.997456
0.998839
0.997839
0.995956
0.99791
0.99596
0.998263
0.999166
0.999056
0.99804
0.999041
0.998272
0.998731
0.997977
0.998089
0.999123
0.996786
0.995111
0.998089
0.999123
0.998741
0.996292
0.995936
1
0.998698
0.996594
0.997031
0.999425
0.999123
1
0.998876
0.999122
1
0.999121
1
0.99978
0.999091
1
1
0.998877
0.998246
1
0.998877
1
1
0.999044
0.998369
1
0.998527
0.99812
1
1
0.999115
0.998814
0.998361
0.998998
0.999115
0.998237
0.996722
0.99804
1
0.997971
0.997312
1
1
0.998248
0.996817
0.998644
1
0.999456
0.997908
0.999451
1
0.997979
1
1
1
0.995912
1
0.996672
0.999697
0.998274
0.997639
1
0.999818
0.995587
0.997908
0.998187
0.998677
1
0.997214
0.99714
0.999675
1
0.998263
0.999136
0.999056
0.99837
0.998089
0.998427
0.997506
1
0.996145
0.996248
0.998531
0.997971
0.998878
1
0.998244
0.997755
1
0.998244
0.998547
1
0.996627
0.99882
0.993619
0.999121
0.998877
1
0.999121
0.998877
0.996813
0.999264
0.999123
1
0.99849
1
1
0.999044
1
0.999122
0.99982
0.999077
1
0.997367
1
0.999118
1
0.998063
0.999115
1
1
0.995239
1
1
0.999124
0.993854
0.997909
0.999003
1
1
0.999451
0.999909
0.998877
1
1
0.997979
0.991916
1
0.996595
0.996488
1
0.997369
0.997335
0.998395
0.998142
1
0.997365
0.998877
0.997281
0.995259
1
1
0.998263
0.999136
1
0.998376
0.999131
0.999136
0.999056
0.994043
0.999044
0.995794
0.997086
0.999382
0.999374
0.998638
1
0.998741
1
0.99978
1
0.998878
1
0.998244
0.998669
1
0.997364
0.99882
1
0.997849
0.998916
1
0.999121
0.997522
0.993626
0.99667
0.999153
0.99989
0.9988
1
1
0.998813
0.993419
0.999122
0.998256
0.999044
0.998369
0.998214
1
1
1
1
0.997346
1
1
0.99811
1
1
0.999185
0.997695
1
0.99997
0.999122
1
1
0.999849
0.999923
0.998025
0.9993
0.993937
0.997212
0.994722
0.99733
0.998244
0.995712
0.995744
0.999425
0.997486
0.995742
0.994832
0.999788
0.99462
0.998675
0.997839
0.99798
0.99798
0.998832
0.999434
1
1
0.998892
0.996455
1
0.996797
0.998056
0.997368
0.998858
1
0.998418
0.997549
0.995872
0.997901
0.998878
1
0.996487
0.998878
1
0.999122
1
1
0.997752
0.998366
1
0.997031
0.999109
1
0.997667
0.998877
1
0.999961
1
0.996813
0.998916
0.997977
1
0.999275
0.998369
1
0.999008
0.999769
1
0.997367
1
0.999118
1
0.998397
1
0.998814
0.998361
1
0.997971
1
1
1
1
1
0.996927
1
0.999451
0.999728
0.998915
0.997586
0.99993
0.999233
1
0.993621
0.997833
0.997366
1
0.999265
0.998244
1
0.99849
1
0.994578
0.994117
0.997978
0.999303
1
1
0.999132
0.998957
0.998113
0.998376
1
0.996574
0.999056
0.999438
0.999044
0.996883
0.998138
0.996685
1
0.998003
0.998321
0.997972
1
0.996811
0.998244
0.997755
1
0.997365
0.997246
1
0.999961
0.999123
1
1
0.998916
1
1
0.998102
1
1
0.999123
1
0.997794
0.997977
1
0.998384
0.998369
1
0.999128
1
1
0.999122
1
1
0.998361
1
1
0.998541
1
1
1
1
0.999124
1
0.99911
1
1
0.997753
1
0.999155
0.999109
0.99989
1
0.997979
1
0.996812
0.996673
0.999092
0.996811
0.999149
0.996245
0.997335
0.998645
1
0.994426
0.997755
0.998675
0.993934
1
1
0.998263
0.997349
0.99717
0.99944
0.999131
0.999106
0.999056
0.995841
0.999044
0.999062
0.998258
0.996067
0.999901
0.997398
0.99986
0.997972
0.997755
1
0.997366
1
1
0.999152
0.997367
1
0.995543
1
1
1
0.99849
0.996811
0.998243
1
1
0.998877
0.999123
1
0.998877
0.997977
1
0.999077
1
1
0.999128
0.999077
1
1
1
0.999696
1
1
1
0.999818
1
1
1
1
1
1
1
1
1
0.998645
0.996928
1
1
1
0.997969
0.995749
0.999651
0.994723
0.997756
0.997366
0.996811
0.997717
0.999455
0.998244
0.996401
0.991093
0.998879
0.995819
0.995678
0.986542
0.99798
1
0.998952
0.998332
0.996096
1
0.996974
1
0.999252
0.997753
0.999045
0.999123
0.994141
0.996628
0.999637
0.997428
1
1
0.997678
1
0.99997
0.997716
0.990432
0.999152
0.999123
1
0.997015
0.998245
1
1
0.997909
1
1
0.999264
0.996923
1
0.999698
1
0.998141
1
0.997977
0.999077
1
0.999062
1
0.999044
1
0.999122
0.999115
0.999301
1
0.999032
0.999115
0.999088
1
0.9993
1
1
1
1
1
1
1
0.998916
1
1
1
1
0.997969
1
0.996236
1
0.994429
0.997548
1
0.998878
0.999122
0.999122
0.997097
0.996811
0.994062
0.995199
0.995887
0.994003
0.99596
0.99993
0.997694
0.99446
0.999967
0.999944
0.998712
0.997825
0.999056
0.996685
0.996343
0.99392
0.998798
0.997808
1
0.99882
1
0.998251
0.998878
1
0.998244
0.998878
1
0.998243
0.99758
0.99681
0.999457
0.997367
1
0.996486
0.998838
0.995491
0.997182
0.999613
1
1
1
1
0.998877
0.995327
1
1
1
0.999939
0.999128
1
0.999944
0.999152
1
0.999818
0.996723
1
1
1
1
1
0.998111
0.993912
0.999547
1
1
0.999124
1
0.998877
1
0.999819
0.998877
1
1
0.997979
1
0.995712
0.998917
0.994551
0.993621
0.996594
0.997608
0.996154
0.994503
1
0.994911
0.998877
0.997839
0.997909
0.99805
0.99798
0.998263
0.996843
0.999057
1
0.998862
0.997169
0.999024
0.994044
0.998155
0.998245
0.996545
0.999438
0.998088
0.996792
1
0.997971
0.998646
0.993624
0.997366
0.998955
1
0.999939
0.99882
1
0.997752
0.999122
0.996919
0.998243
1
1
0.999121
0.999768
1
0.998916
0.999123
1
1
1
1
1
1
1
0.999128
1
0.998425
0.997366
1
1
1
1
0.999115
0.999118
1
1
1
1
1
1
1
0.999124
1
0.998799
1
1
1
1
0.997969
0.995958
1
0.996812
0.998878
0.996307
0.996811
0.993266
0.996669
0.994427
0.998877
0.993623
0.997668
0.997755
0.997978
0.997978
1
1
0.999341
0.998243
0.998504
0.998432
0.998263
0.998987
0.996843
0.996516
0.998155
0.998245
0.995553
0.995673
0.998023
0.999818
1
0.999021
0.999845
1
0.996609
0.998839
1
0.999152
1
0.99989
1
0.999122
1
0.998243
0.997599
1
0.999212
0.999845
1
1
0.999123
1
1
0.998675
0.997977
0.998088
1
0.999122
1
0.999044
0.998369
0.999122
1
1
1
0.999032
1
1
0.998361
1
1
1
0.999124
1
0.998877
1
1
1
1
1
0.998877
1
1
0.998537
0.991985
1
0.996402
0.99116
0.996811
0.996633
0.997365
0.997941
0.998916
0.985046
0.995547
0.998219
0.998396
0.995957
0.998328
0.999582
0.998563
0.996068
0.997463
0.998376
0.998262
0.999136
0.995932
0.99837
0.998089
0.999002
0.997687
0.996741
0.996605
0.999304
0.997621
1
0.997097
1
0.999092
0.998568
0.996811
0.999122
0.998245
1
0.997752
0.999122
1
0.998273
0.998877
1
0.998182
0.998993
1
1
1
1
1
1
1
0.999176
0.998369
0.999122
1
1
0.999944
0.999122
0.998231
1
1
0.999833
0.99942
1
1
0.997969
1
1
1
1
1
1
1
1
1
1
1
1
1
0.99777
0.996655
0.996811
0.997833
0.999092
0.993623
0.995512
0.992976
0.997637
0.997755
0.994723
0.998183
0.99369
0.995956
0.99993
0.993941
0.994776
0.995658
0.997438
0.995868
0.998432
0.997454
0.999047
0.998047
1
0.999374
1
0.998287
0.997078
0.999044
0.999122
1
1
1
1
1
0.993691
1
0.999122
0.99882
1
1
0.999425
1
0.998001
0.999768
1
0.999121
0.998877
1
1
0.999123
1
1
0.997978
0.997977
0.998286
0.997075
1
1
0.998846
0.999719
0.999697
0.999695
1
1
1
1
1
1
1
1
0.9993
1
1
1
0.999124
1
1
1
1
0.998877
1
1
0.995261
0.998258
0.987243
0.997756
0.999122
0.996702
0.996479
0.997336
1
0.99849
0.993624
0.997395
0.999265
0.996026
0.995259
0.99798
0.996656
0.998293
0.999017
0.99782
0.996527
0.995506
0.996663
0.997234
0.999663
1
1
0.999129
1
0.999077
0.998426
1
1
0.997794
1
0.99997
1
0.996811
0.999697
0.999123
0.99681
0.999612
0.999153
1
0.999122
0.998877
0.996811
1
0.997754
1
1
1
1
1
1
1
0.999044
1
0.998547
1
1
1
1
1
1
1
0.999165
1
1
1
0.9993
0.998671
1
1
1
1
1
1
1
1
1
1
1
1
1
0.993867
1
0.991024
0.99455
0.996811
0.994234
0.998789
0.99791
1
1
0.998819
1
1
0.999303
0.999303
1
0.997395
0.997706
0.998438
0.99804
0.998023
0.994548
0.998243
1
1
0.999818
0.998438
1
0.99967
0.999122
1
1
0.997368
0.996811
0.998546
0.998529
1
0.998244
1
1
0.999961
0.999153
1
0.999121
0.997716
0.996812
0.999364
1
1
0.998877
1
1
0.998877
1
0.997977
1
1
0.999122
1
0.999044
1
1
1
1
1
1
1
1
1
1
1
1
0.999064
1
1
1
1
1
1
1
1
1
0.99867
0.987944
0.991985
1
0.992764
0.995912
0.993624
0.996131
0.998123
0.997728
0.998336
1
0.997365
1
0.998745
1
0.99798
0.99798
0.997065
0.998272
0.997983
0.993727
0.994937
0.997229
0.99808
0.998371
0.998419
1
0.997416
1
0.999967
1
1
1
0.999613
1
0.996215
0.997755
1
0.998516
0.999123
1
1
1
1
0.99997
1
0.997251
0.999879
0.997909
1
1
1
1
1
0.993932
0.993931
1
1
0.999122
1
1
1
1
1
1
0.998926
0.999366
1
1
0.997796
1
1
1
1
1
1
1
1
1
1
1
0.998877
1
1
0.992752
0.999303
0.996811
0.998878
0.999122
0.99989
0.997911
0.999576
1
0.998878
0.996922
1
1
1
1
0.997492
0.996587
0.996466
0.998064
0.999057
0.995463
0.998951
0.997527
0.997787
1
0.999045
1
0.999129
1
1
1
0.997972
1
0.998568
1
0.996669
0.998413
0.996811
0.999758
1
1
1
1
1
1
1
0.99868
0.998606
0.999264
1
1
1
1
1
1
0.998396
1
1
0.999122
1
0.998087
1
1
0.999115
1
1
0.999032
1
1
1
1
1
1
0.999124
1
1
1
1
1
1
1
1
1
1
1
1
1
0.998569
0.995852
0.9989
0.99702
0.998819
0.996517
1
0.994722
0.99997
1
0.997979
1
1
0.99798
0.995658
0.999136
0.997788
0.995464
0.998292
0.998957
0.99808
1
1
1
1
1
1
1
1
1
1
1
0.997669
0.995858
1
0.995305
1
1
1
1
1
1
0.996244
0.996811
0.999121
0.999264
1
1
1
1
1
0.997559
0.999302
1
0.996738
1
0.999158
0.999077
0.999944
1
1
1
1
1
1
1
1
1
1
0.997971
1
1
1
1
1
1
1
1
0.998877
1
1
1
0.999582
1
1
0.998274
1
1
0.999606
0.999122
1
1
1
0.998955
1
0.997838
0.99798
0.99798
0.997275
0.997409
0.995673
0.998152
0.993709
0.999285
0.999056
1
1
0.999123
1
0.997808
1
0.999425
1
1
0.998143
1
0.996488
0.996632
0.996811
1
1
1
1
1
1
0.998243
0.999226
1
1
0.997948
1
1
1
1
1
0.998396
0.995955
1
0.998369
1
0.998887
1
1
1
1
1
1
1
1
1
1
1
1
1
1
1
0.998877
1
1
1
1
1
1
1
1
1
1
1
1
0.999122
1
1
1
1
1
0.996922
1
0.999613
1
1
1
1
0.999131
0.999255
1
1
1
0.996247
0.999056
1
1
1
1
0.998371
1
1
1
1
1
0.996812
1
0.996401
1
0.998273
1
1
1
1
1
0.999122
0.998877
0.99912
0.999364
1
1
1
1
1
1
0.997907
1
1
0.999381
1
0.998286
1
1
1
1
1
1
0.999032
1
1
1
1
1
1
1
1
1
1
1
1
1
1
1
1
1
1
0.999164
1
1
1
1
0.999342
0.999122
1
0.999264
1
0.998244
1
1
1
0.997771
0.99798
1
0.998927
0.999675
1
0.99997
0.998302
0.999382
1
1
1
1
1
1
1
1
1
0.998607
1
0.998183
0.999265
0.997691
0.999122
1
1
1
1
1
0.999152
0.998916
0.99978
0.999122
0.999923
1
1
1
1
1
0.997977
1
1
0.998369
0.999243
0.998256
1
0.998369
1
1
1
1
1
1
1
1
1
0.99972
1
1
1
1
1
1
1
1
1
1
1
1
1
1
1
1
1
1
1
0.999697
1
1
1
1
1
1
1
0.99798
1
0.999132
1
0.999057
0.998376
1
0.999136
0.998113
1
1
1
1
1
1
1
1
1
0.998878
0.99934
1
1
1
1
1
1
1
1
1
0.998243
1
1
0.997667
0.998877
1
1
0.999123
1
1
0.995954
1
1
1
1
1
1
0.998482
0.999939
1
1
1
1
1
1
1
1
1
1
1
1
1
1
1
1
1
1
1
1
1
1
1
1
1
0.999425
1
0.998878
1
1
0.998877
1
1
1
1
1
1
0.999443
1
0.999136
1
1
1
0.999136
1
1
1
1
1
1
1
1
1
1
1
1
0.999122
0.998065
1
1
1
1
1
1
1
1
1
1
0.998243
1
1
1
1
1
1
0.995954
0.997978
1
1
1
1
1
1
1
1
1
1
1
1
1
1
1
1
1
1
1
1
1
1
1
1
1
1
1
1
1
1
1
1
1
1
1
0.999122
1
1
1
1
1
0.997978
1
0.999025
0.999512
1
1
1
1
1
1
1
1
1
1
1
1
1
1
1
1
0.999806
0.996811
1
0.999884
1
0.998425
1
1
1
1
1
0.999122
1
1
0.999121
0.998877
1
1
1
1
1
1
1
1
1
1
1
1
1
1
1
1
1
1
1
1
1
1
1
1
1
1
1
1
1
1
1
1
1
1
1
1
1
1
1
1
1
1
1
1
1
1
1
1
1
1
1
1
1
1
1
1
1
1
0.998113
1
1
1
1
1
1
1
1
1
0.998878
1
0.999818
0.998878
1
1
1
1
1
1
1
0.999122
0.998877
1
1
1
1
1
1
1
1
0.99993
0.998466
1
1
1
0.99982
1
0.998369
1
1
1
1
1
1
1
1
1
1
1
1
1
1
1
1
1
1
1
1
1
1
1
1
1
1
1
1
1
1
1
1
1
1
1
1
1
1
0.99805
0.999131
0.999136
1
1
1
0.999136
0.999967
1
1
1
1
1
1
1
1
1
1
1
1
0.999961
1
1
1
1
1
1
1
1
1
1
1
1
1
1
1
1
0.998877
1
1
1
1
1
1
1
1
1
1
1
1
1
1
1
1
1
1
1
1
1
1
1
1
1
1
1
1
1
1
1
1
1
1
1
1
1
1
1
1
1
1
1
1
1
1
1
1
1
1
1
1
0.999136
1
1
1
1
1
1
1
1
1
1
1
1
1
1
1