/*--------------------------------*- C++ -*----------------------------------*\
| =========                 |                                                 |
| \\      /  F ield         | OpenFOAM: The Open Source CFD Toolbox           |
|  \\    /   O peration     | Version:  5.x                                   |
|   \\  /    A nd           | Web:      www.OpenFOAM.org                      |
|    \\/     M anipulation  |                                                 |
\*---------------------------------------------------------------------------*/
FoamFile
{
    version     2.0;
    format      ascii;
    class       volScalarField;
    location    "0.65";
    object      voidfraction;
}
// * * * * * * * * * * * * * * * * * * * * * * * * * * * * * * * * * * * * * //

dimensions      [0 0 0 0 0 0 0];

internalField   nonuniform List<scalar> 
10571
(
0.591991
0.81583
0.687145
0.682873
0.588535
0.690793
0.85575
0.677035
0.813412
0.49386
0.90065
0.753436
0.812086
0.603212
0.642274
0.441612
0.697607
0.658804
0.774917
0.466873
0.467425
0.846505
0.871946
0.407956
0.996034
0.438069
0.742991
0.986252
0.978254
0.559639
0.637079
0.704541
0.813192
0.874954
0.544425
0.909725
0.79953
0.744521
0.927535
0.948483
0.767486
0.523104
0.637637
0.842488
0.977444
0.911864
0.570999
0.959687
0.994202
0.78822
0.992399
0.99171
0.959527
0.517729
0.944621
0.993227
0.992916
0.992546
0.421362
0.488661
0.622496
0.972111
0.988449
0.988446
0.4967
0.530008
0.925713
0.983433
0.981668
0.512804
0.973892
0.952372
0.988133
0.998825
0.989722
0.991021
0.97046
0.996434
0.99429
0.994859
0.994619
0.987389
0.473919
0.605981
0.920006
0.993402
0.991778
0.989686
0.424693
0.919022
0.984363
0.984731
0.982153
0.975975
0.987607
0.951425
0.98384
0.998376
0.990427
0.98655
0.958574
0.997704
0.995476
0.994512
0.99277
0.991149
0.989884
0.995068
0.996132
0.993939
0.989993
0.986938
0.971022
0.993291
0.987256
0.980725
0.97028
0.990902
0.982217
0.957808
0.986367
1
0.996086
0.992077
0.966868
0.996081
0.996652
0.992776
0.994968
0.988057
0.717576
0.998021
0.998985
0.996238
0.994133
0.990785
0.98475
0.538484
0.997354
0.993998
0.98833
0.983265
0.96839
0.993185
0.979614
0.95498
0.993294
0.996751
0.997064
0.987774
0.952925
0.99804
0.994679
0.99103
0.994984
0.993148
0.996567
0.9989
0.999019
0.996411
0.994666
0.991664
0.986042
0.996188
0.998677
0.993735
0.98704
0.984389
0.971906
0.997619
0.993417
0.977017
0.972165
0.996482
0.987117
0.997502
0.990825
0.956104
0.998682
0.992582
0.993635
0.994697
0.996683
0.998855
0.997691
0.999053
0.997432
0.994214
0.989993
0.989029
0.999193
0.996601
0.995528
0.990063
0.987406
0.983108
0.999039
0.988577
0.985656
0.982894
0.985489
0.997143
0.996254
0.996174
0.976249
0.993985
0.994608
0.994382
0.996901
0.994528
1
0.997251
0.999053
0.996307
0.991623
0.991253
0.989922
0.999174
0.99594
0.99435
0.991913
0.991234
0.986092
0.992449
0.992993
0.987332
0.992854
1
0.999022
0.995094
0.971489
1
0.995963
0.996809
0.995555
0.993862
1
0.999019
0.997239
0.99313
0.990915
0.989627
0.997203
0.994382
0.988426
0.993378
0.981787
0.991714
0.986018
0.990122
0.992854
0.99664
0.996931
0.996586
0.975602
0.999054
0.995872
0.996444
0.996759
0.998871
0.99934
0.999019
0.995761
0.993876
0.99376
0.990024
0.997354
0.995733
0.990233
0.989576
0.98012
0.99458
0.991696
0.977947
0.989995
0.99804
0.999798
0.993918
0.971406
1
0.996652
0.99664
0.995729
0.993337
0.996811
0.997126
0.99619
0.995231
0.994206
0.997371
0.99546
0.994636
0.991841
0.986951
0.99126
0.993263
0.99221
0.990689
0.995052
0.996752
0.997067
0.994797
0.983027
0.998244
0.99673
0.995997
0.996858
0.99438
0.99956
0.999662
0.996199
0.992496
0.994484
0.998247
0.994317
0.993979
0.988373
0.98401
0.98782
0.995509
0.995924
0.989988
0.984387
1
0.994201
0.993851
0.98585
0.998987
0.997264
0.996538
0.995105
0.997209
1
0.99902
0.996634
0.995346
0.993272
0.992139
0.995821
0.995118
0.991009
0.986612
0.993769
0.997716
0.990398
0.987117
0.998131
0.9972
0.998011
0.991689
0.989966
0.997467
0.99673
0.996116
0.996228
0.997829
1
0.99902
0.996961
0.996442
0.99386
0.990114
0.998226
0.99467
0.991409
0.990819
0.983477
0.992876
0.991907
0.988798
0.993073
0.99552
0.995348
0.993176
0.990567
0.997062
0.998073
0.99673
0.995436
0.99341
0.996811
1
0.996723
0.995133
0.993272
0.995253
0.996122
0.994783
0.993152
0.986111
0.994539
0.994154
0.992451
0.983337
0.99846
1
0.997708
0.997332
0.991918
0.998784
0.999008
0.99759
0.994718
0.996976
1
0.999966
0.996661
0.995261
0.993061
0.991201
0.996483
0.994735
0.9905
0.989384
0.983965
0.992683
0.992541
0.979133
0.992305
0.998936
0.996899
0.994731
0.989665
0.997366
0.998478
0.997509
0.995865
0.996239
1
0.995336
0.996684
0.995121
0.993122
0.993983
0.998256
0.994032
0.991296
0.986314
0.99391
0.991097
0.990731
0.98257
0.992525
0.996808
0.999022
0.994157
0.988346
0.998042
0.998325
0.997118
0.996002
0.998411
0.995713
0.998412
0.996323
0.996608
0.993393
0.993773
0.996813
0.995223
0.991438
0.991922
0.99139
0.99551
0.991305
0.99314
0.987578
0.99356
0.998045
0.997872
0.991349
0.996117
0.997993
0.99734
0.995582
0.993372
1
0.998817
0.996331
0.997022
0.991987
0.988362
0.997204
0.995062
0.994215
0.993224
0.98929
0.988193
0.991818
0.99594
0.985707
0.99944
0.994506
0.996014
0.994202
0.998345
0.99818
0.99774
0.995913
0.994301
0.999011
0.99902
0.9966
0.995667
0.994836
0.992443
0.994258
0.994036
0.993956
0.989318
0.98026
0.995199
0.991485
0.98922
0.989995
0.994456
0.997405
0.990036
0.995314
0.998042
0.998501
0.998143
0.996664
0.991588
1
0.997398
0.997146
0.996937
0.994848
0.992715
0.997806
0.99419
0.993993
0.994158
0.99608
0.996632
0.988497
0.98572
0.989116
1
1
0.993515
0.990658
0.998987
0.998089
0.996581
0.99643
0.992247
0.996702
0.996316
0.995404
0.9971
0.99574
0.993561
0.993116
0.993205
0.994086
0.995193
0.9923
0.992373
0.995592
0.99006
0.991204
0.999944
0.998483
0.996149
0.991108
0.996353
0.997364
0.996281
0.994855
0.994961
1
0.998513
0.996246
0.997104
0.99634
0.987939
0.991854
0.993475
0.996042
0.998131
0.99335
0.995083
0.995109
0.99258
0.989663
0.996753
0.994337
0.993481
0.995615
0.998818
0.997692
0.998004
0.994726
0.993332
0.995493
0.99662
0.994984
0.996651
0.996458
0.992715
0.992425
0.994319
0.996535
0.992155
0.99594
0.988114
0.99209
0.9972
0.989333
1
0.995787
0.992434
0.993571
0.998345
0.996952
0.997329
0.995101
0.984688
0.996921
0.993646
0.995461
0.996612
0.995161
0.991173
0.989809
0.995441
0.995375
0.993424
0.99265
0.994463
0.994958
0.98677
0.987794
0.996809
0.99727
0.991522
0.992701
0.9974
0.997371
0.996914
0.994871
0.993565
1
0.993849
0.997115
0.997297
0.995152
0.989904
0.996032
0.996362
0.997506
0.993023
0.98712
0.994464
0.997192
1
0.996811
0.999888
0.995315
0.992434
0.996305
0.998717
0.996864
0.996987
0.995695
0.993023
0.993624
0.997296
0.997669
0.997487
0.995071
0.99474
0.993205
0.99633
0.996847
0.995727
0.98796
0.998877
0.998339
0.99783
0.996922
0.995688
0.994371
0.996352
0.994533
0.999021
0.996975
0.997663
0.996026
0.995077
0.997801
0.995066
0.998269
0.997263
0.995785
0.994196
0.99507
0.998381
0.996592
0.997062
0.99594
0.998877
0.999396
0.99818
0.998131
0.996641
0.997472
0.993076
0.996786
0.994699
0.998157
0.998096
0.997181
0.994727
0.996372
0.995066
0.998161
0.997495
0.996178
0.994771
0.999128
0.998223
0.996689
0.99556
0.99125
0.994735
0.998973
0.99601
0.993733
0.997032
0.996865
0.998919
0.995553
0.99686
0.997013
0.998143
0.99626
0.996162
0.994943
0.994086
0.99875
0.997847
0.996749
0.998277
0.999128
0.998139
0.996641
0.99339
0.99874
1
0.998219
0.99727
1
0.996752
0.996764
0.994257
0.998167
0.998042
0.99818
0.998047
0.996555
0.997363
0.998131
0.997093
0.998681
0.998114
0.996603
0.995012
0.999128
0.997044
0.996058
0.992956
0.99545
0.998761
0.995954
0.99748
0.99978
0.991602
0.996225
0.995473
0.997686
0.996083
0.998516
0.9984
0.997226
0.997712
0.990326
0.998107
0.998169
0.997518
0.997086
0.997068
0.998286
0.997872
0.995205
0.988517
0.98642
0.998877
0.996829
0.99244
1
0.998376
0.996629
0.996824
0.995643
0.996015
0.99789
0.996757
0.997129
0.997325
1
0.997837
0.998665
0.998068
0.996502
0.993924
1
0.99805
0.994809
0.996161
0.99531
0.995664
0.995048
0.99461
0.995162
0.9944
0.992719
0.996082
0.997386
0.996083
0.998192
0.997271
0.996535
0.994107
1
0.99804
0.999288
0.99763
0.996834
0.998035
0.999128
0.998999
0.997752
0.996295
0.99797
0.998722
0.999124
0.99741
0.996922
0.992777
0.993932
0.996082
0.992248
0.996421
0.998096
0.997195
0.99664
0.996704
1
0.999054
0.998504
0.997839
0.997734
0.997975
1
0.998869
0.998662
0.999032
1
0.997755
0.996346
0.99811
0.9989
0.993447
0.996022
0.996994
0.996485
0.996421
0.99847
0.996941
0.994972
0.99651
0.99989
0.99902
0.998842
0.998029
0.99786
0.999002
0.999429
0.998131
0.998634
0.999032
0.99797
0.999961
0.998581
1
0.994282
0.993057
0.995044
0.997162
0.998558
0.997467
0.998554
0.996289
0.996656
0.994184
0.998901
0.99804
0.997808
0.998556
0.997572
0.997914
0.998557
0.999528
0.998953
0.999032
0.99741
0.997793
0.999155
1
0.997251
0.994232
0.99673
0.997264
0.997957
0.99453
0.997841
0.99731
0.997472
0.997596
0.996811
0.995437
0.9981
0.997561
0.997317
0.999123
1
0.999415
0.999119
0.999666
1
1
1
1
1
0.99804
0.997404
0.99723
0.998558
0.998042
0.997234
0.997482
0.997399
0.998876
0.996151
0.99804
0.998661
0.998726
0.997528
0.997219
0.999128
0.999297
0.99941
0.998064
1
1
0.999124
1
1
1
0.997067
0.997264
0.999129
0.998379
0.998306
0.997444
0.998005
1
0.996921
0.997262
0.999481
0.998354
0.99805
0.999123
0.999128
0.999766
0.99922
0.99753
1
1
0.999517
1
0.99978
1
0.996426
0.999595
1
1
0.997966
0.999033
0.998587
0.996666
1
0.997702
0.999515
0.998614
0.998918
1
1
0.999479
0.999632
1
1
1
1
1
1
1
0.998955
1
1
0.999797
0.998508
0.998925
0.999536
1
1
0.997127
0.999108
0.999137
0.999043
0.999123
1
0.999653
0.999741
1
1
1
1
1
1
0.998376
0.998045
1
0.99994
0.999021
0.998806
0.998933
0.999883
1
0.996812
0.99804
0.999435
0.999551
0.999672
0.999123
1
0.999766
0.999531
1
1
1
1
1
0.996812
1
1
0.99902
0.9997
0.997434
0.999763
0.999397
0.999649
1
1
0.99706
0.999292
0.999396
0.999274
1
0.999128
0.999766
1
1
0.99797
1
1
1
1
1
1
1
1
1
0.999886
1
1
1
1
1
0.999792
0.999477
0.999647
1
0.999128
0.999883
1
1
1
1
1
1
1
0.99832
1
0.999358
1
1
1
1
0.999883
1
1
1
0.9998
0.999775
1
0.999637
1
0.999883
1
1
1
1
1
1
1
1
1
1
1
1
0.999928
1
1
1
1
0.999223
0.999888
1
0.999842
1
1
1
0.999996
0.999065
1
1
1
1
1
1
1
1
1
1
0.999962
1
0.999883
1
1
1
1
0.999888
0.999923
1
1
0.999915
1
1
0.99986
1
1
1
1
1
1
1
1
1
1
1
1
1
1
1
1
1
1
1
1
1
1
1
1
1
1
1
1
1
1
1
1
1
1
1
1
1
1
1
1
1
1
1
1
1
1
1
1
1
1
1
1
1
1
1
1
1
1
1
1
1
1
1
1
0.999888
1
1
1
1
1
1
0.99797
1
1
1
1
1
1
1
1
1
1
1
1
1
1
1
1
1
1
1
1
1
1
1
1
1
1
1
1
1
1
1
1
1
1
1
1
1
1
1
1
1
1
1
1
1
1
1
1
1
1
1
1
1
1
1
1
1
1
1
1
1
1
1
1
1
1
1
1
1
1
1
1
1
1
1
1
1
1
1
1
1
1
1
1
1
1
1
1
1
1
1
1
1
1
1
1
1
1
1
1
1
1
1
1
1
1
1
1
1
1
1
1
1
1
1
1
1
1
1
1
1
1
1
1
1
1
1
1
1
1
1
1
1
1
1
1
1
1
1
1
1
1
1
1
1
1
1
1
1
1
1
1
1
1
1
1
1
1
1
1
1
1
1
1
1
1
1
1
1
1
1
1
1
1
1
1
1
1
1
1
1
1
1
1
1
1
1
1
1
1
1
1
1
1
1
1
1
1
1
1
1
1
1
1
1
1
1
1
1
1
1
1
1
1
1
1
1
1
1
1
1
1
1
1
1
1
1
1
1
1
1
1
1
1
1
1
1
1
1
1
1
1
1
1
1
1
1
1
1
1
1
1
1
1
1
1
1
1
1
1
1
1
1
1
1
1
1
1
1
1
1
1
1
1
1
1
1
1
1
1
1
1
1
1
1
1
1
1
1
1
1
1
1
1
1
1
1
1
1
1
1
1
1
1
1
1
1
1
1
1
1
1
1
1
1
1
1
1
1
1
1
1
1
1
1
1
1
1
1
1
1
1
1
1
1
1
1
1
1
1
1
1
1
1
1
1
1
1
1
1
1
1
1
1
1
1
1
1
1
1
1
1
1
1
1
1
1
1
1
1
1
1
1
1
1
1
1
1
1
1
1
1
1
1
1
1
1
1
1
1
1
1
1
1
1
1
1
1
1
1
1
1
1
1
1
1
1
1
1
1
1
1
1
1
1
1
1
1
1
1
1
1
1
1
1
1
1
1
1
1
1
1
1
1
1
1
1
1
1
1
1
1
1
1
1
1
1
1
1
1
1
1
1
1
1
1
1
1
1
1
1
1
1
1
1
1
1
1
1
1
1
1
1
1
1
1
1
1
1
1
1
1
1
1
1
1
1
1
1
1
1
1
1
1
1
1
1
1
1
1
1
1
1
1
1
1
1
1
1
1
1
1
1
1
1
1
1
1
1
1
1
1
1
1
1
1
1
1
1
1
1
1
1
1
1
1
1
1
1
1
1
1
1
1
1
1
1
1
1
1
1
1
1
1
1
1
1
1
1
1
1
1
1
1
0.646541
0.42256
0.577513
0.475063
0.456502
0.459891
0.477933
0.479691
0.55911
0.662129
0.760764
0.658736
0.869736
0.6475
0.522696
0.777906
0.647756
0.505685
0.539571
0.620646
0.697178
0.507713
0.519265
0.698763
0.636961
0.566877
0.924261
0.857831
0.967876
0.754853
0.912153
0.848908
0.741414
0.868335
0.789517
0.872994
0.837556
0.788797
0.846426
0.885683
0.928438
0.879845
0.757185
0.922988
0.946866
0.702495
0.815096
0.683867
0.840821
0.936343
0.912782
0.873133
0.622846
0.733447
0.63016
0.751376
0.80193
0.709418
0.773007
0.873105
0.931864
0.87464
0.921352
0.98872
0.952595
0.889495
0.768183
0.685463
0.635964
0.553369
0.811134
0.572967
0.54228
0.573051
0.496372
0.626775
0.654501
0.588831
0.593166
0.671992
0.684546
0.800464
0.784142
0.614168
0.490541
0.516219
0.423508
0.449717
0.573597
0.509018
0.518526
0.544884
0.687173
0.796865
0.580883
0.553718
0.751953
0.45824
0.589394
0.642321
0.590968
0.968604
0.695714
0.952605
0.683409
0.748962
0.977302
0.973634
0.97412
0.57757
0.954876
0.933782
0.735317
0.854375
0.756175
0.917356
0.577816
0.567896
0.583335
0.738285
0.438268
0.589396
0.476849
0.936302
0.737143
0.740191
0.710129
0.466219
0.541988
0.891598
0.917482
0.719226
0.650334
0.765273
0.604004
0.478431
0.501878
0.491153
0.448719
0.52239
0.656452
0.680799
0.708953
0.509725
0.48945
0.517999
0.457746
0.552002
0.537375
0.72804
0.572619
0.589636
0.817422
0.759767
0.765538
0.831133
0.73444
0.81242
0.783468
0.438278
0.472495
0.447048
0.530807
0.745629
0.857095
0.892065
0.903061
0.724243
0.812645
0.844699
0.948686
0.853256
0.752564
0.663722
0.672536
0.969343
0.630452
0.481778
0.791683
0.704792
0.503562
0.854885
0.990888
0.906698
0.988056
0.99685
0.989567
0.987766
0.988169
0.985379
0.994461
0.983595
0.979467
0.957966
0.966427
0.777951
0.438402
0.459711
0.487558
0.471547
0.427808
0.676749
0.435088
0.556434
0.982557
0.937397
0.974412
0.974084
0.970318
0.985737
0.982311
0.965824
0.986063
0.689089
0.587076
0.597033
0.441137
0.4222
0.431613
0.807977
0.799962
0.99192
0.988376
0.99576
0.542684
0.506226
0.43709
0.538146
0.587097
0.875625
0.974184
0.98924
0.991959
0.992564
0.523274
0.555449
0.820572
0.525617
0.746137
0.66422
0.692653
0.519469
0.551504
0.963507
0.972041
0.96905
0.975456
0.975018
0.96524
0.971974
0.98378
0.718789
0.540729
0.565319
0.402029
0.514868
0.565142
0.571611
0.816401
0.505717
0.893462
0.962051
0.873555
0.953338
0.985846
0.987286
0.993764
0.988085
0.991435
0.991987
0.993177
0.989179
0.987298
0.98329
0.978049
0.990864
0.985422
0.967602
0.941611
0.514282
0.96681
0.981671
0.679564
0.933288
0.997321
0.993836
0.99073
0.997649
0.981696
0.984326
0.979177
0.964537
0.978545
0.986324
0.987778
0.990919
0.983404
0.443521
0.40134
0.418955
0.891578
0.476423
0.622096
0.986344
0.990473
0.994394
0.989888
0.996591
0.448158
0.496233
0.41726
0.427258
0.439106
1
0.987397
0.996319
0.992529
0.990103
0.461704
0.421039
0.500633
0.426176
0.441511
0.435856
0.441951
0.409747
0.428715
0.977974
0.964252
0.970614
0.985165
0.971243
0.972093
0.97289
0.984633
0.404781
0.446805
0.887631
0.928658
0.804085
0.980117
0.972381
0.978787
0.975638
0.974638
0.971211
0.986082
0.961163
0.996658
0.99791
0.99956
0.994706
0.992776
0.993734
0.991413
0.990528
0.991655
0.975411
0.994834
0.985045
0.967838
0.975616
0.96618
0.995964
0.994638
0.994889
0.9945
0.997765
0.993897
0.994223
0.999226
0.99412
0.966131
0.982375
0.9822
0.960026
0.982731
0.987963
0.990328
0.985607
0.98287
0.98508
0.70822
0.889241
0.995474
0.958663
0.9862
0.986803
1
0.990935
0.992452
0.999344
0.484778
0.431136
0.827836
0.853619
0.549841
1
0.993599
0.997871
0.994206
0.989177
0.404468
0.468793
0.452502
0.413927
0.554064
0.541745
0.853391
0.721461
0.934288
0.976987
0.963887
0.965984
0.987132
0.974192
0.97191
0.956209
0.978988
0.847367
0.987968
0.984378
0.984203
0.988657
0.991332
0.986282
0.9741
0.984095
0.984903
0.981711
0.969604
0.976885
0.995679
0.99073
0.987246
0.997369
0.993127
1
0.994156
0.99358
0.990519
0.982573
0.993733
0.985272
0.990856
0.969856
0.96984
1
1
0.99413
0.994817
0.993918
0.99776
0.993079
0.994518
0.997038
0.974268
0.986923
0.988948
0.9642
0.978673
0.985919
0.982064
0.989813
0.987105
0.995163
0.996152
0.994883
0.994659
0.990433
0.997729
0.989615
0.995268
0.993398
0.987004
0.978163
0.992882
0.975143
0.993622
0.996758
0.996205
0.989411
0.991863
0.988737
0.983079
0.988577
0.958636
0.999442
0.993606
0.987795
0.991859
0.996632
0.995942
0.997019
0.997911
0.97366
0.968693
0.959855
0.989995
0.97413
0.966424
0.965444
0.978107
0.993983
0.992024
0.994413
0.99144
0.996438
0.991812
0.984085
0.968984
0.988368
0.983538
0.975986
0.981783
0.960871
0.993866
0.994632
0.991753
0.998916
0.995033
0.996811
0.998606
0.998273
0.987846
0.983877
0.990325
0.992483
0.972678
0.972982
0.977677
1
0.99784
0.997932
0.996394
0.997786
1
0.995655
0.997318
0.999446
0.977424
0.989402
0.991845
0.967773
0.968847
0.987655
0.98699
0.994602
0.990117
1
0.9989
0.999122
1
0.996811
0.997365
0.980321
0.991223
0.919234
0.986836
0.989001
0.990663
0.992379
0.471437
0.525085
0.393065
0.993212
0.955261
0.976291
0.900416
0.994698
0.996708
0.996701
0.998
0.995856
0.947558
0.981037
0.979453
0.990921
0.99303
0.975443
0.996065
0.381145
0.69718
0.455777
0.97262
0.884012
0.986179
0.940895
0.990024
0.995605
0.997328
0.996794
0.99561
0.996481
0.995775
0.998031
0.996942
0.974708
0.968194
0.961312
0.983921
0.964676
0.970523
0.9473
0.979819
0.995872
0.993913
0.988611
0.990452
0.992101
0.988305
1
0.973608
0.988367
0.983385
0.969838
0.989135
0.958245
0.997978
0.993238
0.990435
0.996864
0.993882
0.997911
0.995548
0.997728
0.987241
0.981445
0.994614
0.987242
0.975646
0.980428
0.961949
1
0.995193
0.998262
0.994844
0.997068
0.996695
0.997003
0.997765
0.998697
0.967217
0.991912
0.989116
0.947305
0.973813
0.986791
0.993488
0.992406
0.995771
0.991809
0.996169
0.990222
0.99941
0.997231
0.998384
1
1
0.996456
0.998877
0.9989
0.998273
0.995533
0.994703
0.996872
0.995229
0.998
0.991612
0.995378
0.995678
0.995443
0.997849
1
0.996298
0.996323
0.995822
0.999152
0.997638
0.994722
0.999121
1
0.994037
0.983801
0.995252
0.990625
0.99177
0.976268
0.995631
0.991523
0.996919
0.996203
0.999834
0.997093
0.998217
0.999149
0.996093
1
0.995974
0.996681
0.99564
0.99594
0.999241
0.997806
0.998547
0.975262
0.976908
0.963334
0.984312
0.975246
0.981166
0.964145
0.997029
0.983946
0.998578
0.997288
0.999497
0.998387
0.995942
1
0.992447
0.991659
0.993998
0.992688
0.983209
0.985176
0.984746
0.984508
0.969043
0.98749
0.96536
0.994214
0.997978
0.986147
0.995664
0.995972
0.987356
0.998839
0.993943
0.990607
0.984399
0.983841
0.991121
0.979826
0.933378
0.939379
0.99798
0.99798
0.997902
0.996513
0.99469
0.993951
0.997393
0.999762
0.998111
0.979914
0.983597
0.992675
0.968209
0.985316
0.991382
0.987194
0.993096
0.997537
0.9971
1
0.999695
1
1
1
0.998877
0.988343
1
0.999032
1
0.999182
0.995929
0.990197
0.999111
0.99689
0.998293
0.990654
0.996264
0.998588
0.999972
0.997053
0.99881
0.99702
1
1
0.999758
0.995817
1
0.997394
0.997754
0.996828
0.977933
0.998126
0.989995
0.998183
0.981253
0.99991
0.998059
0.999086
0.999148
0.998026
0.999533
1
0.998512
0.997977
0.995535
0.995247
0.997244
0.992703
0.999007
0.998152
0.997019
0.996125
0.976139
0.975123
0.964601
0.988858
0.984982
0.981114
0.972136
0.998134
0.9785
0.999926
0.998373
1
1
0.993843
0.993913
0.982779
0.986611
0.994308
0.991329
0.993635
0.988558
0.982333
0.988615
0.983047
0.990453
0.97498
0.993796
0.997979
0.996592
0.995742
0.995003
0.991424
0.998878
0.994912
0.989424
0.980478
0.977243
0.988757
0.988727
0.964388
0.978588
0.995959
0.999303
0.997513
0.996811
0.999349
0.99776
0.997573
0.997556
0.998762
0.983047
0.996334
0.994967
0.975495
0.987522
0.99106
0.99121
0.993487
0.990893
0.9964
1
0.99894
0.999961
1
0.998243
0.996904
0.998937
0.997885
0.99555
0.997854
0.998575
0.999662
0.997788
0.999203
1
1
1
1
1
0.995606
0.998916
0.996261
0.999
0.997754
0.998996
0.985088
0.997825
0.994212
0.999933
0.994733
0.99922
0.998498
0.999605
0.998968
0.997766
0.99588
0.998164
0.999533
0.995675
0.997977
0.994554
0.999719
0.993581
0.996692
0.994456
0.996794
0.998062
0.97936
0.983657
0.977342
0.991227
0.984304
0.973791
0.984495
0.991376
0.990554
0.997621
0.99154
0.982001
0.997057
0.989819
0.983647
0.986964
0.994842
0.984749
0.980566
0.973553
0.982347
0.997212
1
0.993623
0.996788
0.994851
0.992963
0.996478
0.997759
0.989971
0.984663
0.992524
0.990336
0.982964
0.964635
0.981033
1
0.999373
0.995985
0.996275
0.998404
0.998376
0.998832
0.994517
0.997786
0.986536
0.991033
0.992141
0.982469
0.980508
0.988987
0.993202
0.995276
0.998
0.997755
0.996811
0.998243
0.997832
0.992633
0.998819
0.994734
1
0.99885
0.99911
0.994042
0.999121
0.998838
0.997471
0.997697
0.997715
0.99701
0.991657
0.992572
0.993018
0.990724
0.999302
0.998675
0.995017
0.993981
0.993854
0.998948
0.995942
0.992181
0.996488
0.982387
0.979114
0.98816
0.992903
0.989843
0.983259
0.977185
0.994475
0.99993
0.99972
0.990634
0.990452
0.996748
0.993053
0.990452
0.987204
0.98354
0.985808
0.99128
0.995391
0.986834
1
0.997979
0.996261
0.998878
0.996487
0.991643
0.998878
0.999425
0.988641
0.980645
0.996702
0.991307
0.98444
0.987521
0.965007
0.998607
1
0.997873
0.999136
0.994857
0.996752
0.997693
0.999136
1
0.981802
0.987137
0.992344
0.980026
0.986802
0.988338
0.984462
0.991917
0.997976
0.997136
0.994612
0.997365
0.99702
1
0.996911
0.996631
0.996948
0.995467
0.997217
0.993627
0.999697
1
0.996811
0.998243
0.997367
0.991722
0.989849
0.993865
0.996816
0.989319
1
0.997907
0.996635
0.997356
0.996276
0.997384
0.994426
0.998931
0.994672
0.989475
0.983396
0.989834
0.985181
0.987382
0.988479
0.986954
0.98694
0.998391
0.989925
0.991724
0.993744
0.995896
0.986831
0.993525
0.990625
0.984747
0.989734
0.988535
0.982771
0.98579
1
1
1
0.996633
0.997093
0.996811
1
0.992945
0.991095
0.98084
0.995382
0.990126
0.983202
0.979854
0.979226
0.996587
0.99993
0.998143
0.999762
0.995281
0.999272
0.997664
0.999136
0.997494
0.975903
0.990843
0.989902
0.976721
0.978988
0.985242
0.987086
0.992594
0.990561
0.997755
1
0.999879
0.999768
0.996811
0.999697
0.993255
0.99582
0.997365
0.998215
0.99989
0.999455
0.99756
0.997251
0.999879
0.997754
0.997802
0.994468
0.994832
0.990108
0.992995
0.999302
0.998744
0.993734
0.994544
0.995702
0.99564
0.996142
0.999888
0.991706
0.988417
0.992553
0.991809
0.990421
0.990913
0.989694
0.986383
0.989084
0.995313
0.997132
0.992902
0.993634
0.995083
0.993386
0.994512
0.989426
0.985843
0.98768
0.984275
0.988696
0.987959
0.997979
1
0.990434
0.997756
0.994005
0.994612
0.998878
0.995973
0.991519
0.987768
0.985157
0.989278
0.983588
0.980061
0.980828
0.99798
0.992617
1
0.99714
0.998796
1
0.99988
0.995352
0.99769
0.980726
0.99005
0.994706
0.981855
0.98848
0.990939
0.992648
0.993635
0.992165
0.996865
0.996811
0.99473
1
1
0.995912
0.995643
0.996809
0.991898
0.998669
0.996589
0.997485
0.996747
0.99989
0.999152
0.999923
0.996813
0.992181
0.996191
0.997032
0.99125
0.997838
0.996094
0.998087
0.998313
0.996247
0.998437
0.998087
0.996625
0.996852
0.990118
0.989784
0.990506
0.990819
0.987676
0.993038
0.989432
0.987118
0.993424
0.993913
0.994503
0.997037
0.995277
0.992993
0.992756
0.987644
0.983538
0.991938
0.992331
0.987598
0.990268
0.995958
0.997979
0.988125
0.996943
0.99461
0.994722
0.996556
0.991855
0.987763
0.989239
0.990654
0.984886
0.9892
0.99519
0.992262
0.998677
0.99798
0.998772
0.999166
0.997104
0.995128
0.998263
0.999136
0.996551
0.986737
0.986886
0.986748
0.989004
0.993425
0.994332
0.992254
0.995942
0.997901
0.996246
0.996811
0.998244
0.997407
1
0.998425
0.996399
0.996809
0.992208
0.994734
0.987238
0.996486
0.997754
1
1
0.997754
0.996813
0.992954
0.988299
1
0.995431
0.997977
1
0.998648
0.995894
0.995429
0.99534
0.993999
0.998425
0.999879
0.988774
0.989997
0.982932
0.991352
0.989597
0.98799
0.997796
0.989918
0.997831
0.997971
0.992117
0.993525
0.994657
0.992812
0.984086
0.988884
0.987928
0.988495
0.986908
0.992208
0.986838
0.994634
0.999303
0.995712
0.995047
0.993914
0.993623
0.995357
0.993823
0.98949
0.990671
0.991094
0.996456
0.98622
0.995608
0.989891
0.99791
1
0.997694
0.999702
0.997169
0.997088
0.998682
0.999136
0.998438
0.99556
0.988269
0.993434
0.981734
0.991065
0.991301
0.992133
0.993914
0.991535
0.996633
1
0.99894
0.996943
1
0.998001
0.994765
0.993509
0.998023
0.998245
0.99681
0.998455
0.998103
0.996701
0.998273
0.998877
0.996923
0.98854
0.991021
0.996703
0.990321
1
0.99728
0.996472
0.995725
0.997609
0.997535
0.995515
0.99775
0.994673
0.988926
0.984828
0.986945
0.986846
0.982947
0.988355
0.986945
0.984667
0.997341
0.996012
0.994443
0.992207
0.994541
0.996768
0.972781
0.992408
0.990891
0.993931
0.986715
0.990452
0.990058
1
0.995609
0.987245
0.993306
0.996306
0.990434
0.994467
0.995186
0.995699
0.986491
0.990434
0.989248
0.994581
0.991913
0.991773
0.999791
0.99993
1
0.996455
0.998731
0.996696
0.997304
0.996544
0.997983
0.991739
0.994135
0.993041
0.991708
0.990278
0.987511
0.994191
0.993844
0.995173
0.992879
0.996811
1
0.997755
0.994612
0.999122
0.994765
0.990539
0.998876
0.995885
0.993509
0.997364
0.999923
1
0.995607
0.99938
0.996923
0.994812
0.994256
0.998132
0.991715
0.995954
0.996931
0.997461
0.998706
0.995853
0.997414
0.992976
0.993138
0.996731
0.989262
0.986774
0.987114
0.991787
0.993045
0.979933
0.987736
0.993419
0.995942
0.989716
0.989822
1
0.995819
0.991513
0.990451
0.992176
0.993744
0.993266
0.987528
0.993525
0.989078
0.998397
0.993936
1
0.998878
0.993399
0.995712
0.994351
0.995882
0.990853
0.991406
0.987688
0.994912
0.98893
0.989889
0.985711
0.992756
0.999303
0.998233
0.995532
0.996389
0.996192
0.997424
0.99857
0.998926
0.9923
0.99196
0.99065
0.991258
0.989268
0.994628
0.995825
0.989085
0.990837
0.997988
0.995821
0.999122
0.998878
1
0.998546
0.992979
0.996809
0.996279
0.992587
0.99615
0.999122
0.998567
1
0.998273
0.998877
0.996703
0.988034
0.988271
0.993956
0.989742
0.997279
0.991839
0.995516
0.994375
0.994522
0.994708
0.998087
0.993026
0.993128
0.991824
0.98656
0.987225
0.985275
0.987097
0.986502
0.984178
0.99524
0.995242
0.995453
0.98798
0.994731
0.995238
0.991423
0.99572
0.992368
0.991109
0.990066
0.984006
0.987271
0.98817
0.999303
0.998676
0.986808
0.996596
0.993431
0.996151
0.997368
0.993428
0.99149
0.990479
0.99857
0.994729
0.99489
0.988079
0.993934
1
1
0.999431
0.999136
0.998113
1
0.999131
1
0.998113
0.989771
0.993773
0.994372
0.988974
0.993482
0.990542
0.994615
0.993913
0.995803
0.997755
1
0.998819
0.999961
1
0.998819
0.99425
0.996809
0.995581
0.996853
1
0.997667
0.997328
1
0.996667
0.998722
0.996813
0.992179
0.997491
0.987911
0.988695
0.996234
0.998675
0.998055
0.998369
0.994945
0.992873
0.996042
0.993813
0.993825
0.989325
0.9886
0.986495
0.988446
0.991945
0.987775
0.979933
0.990617
0.997552
0.991884
0.989069
0.980906
0.998141
0.987071
0.991548
0.993068
0.990673
0.988856
0.987177
0.997805
0.978573
0.997701
0.995957
0.990545
0.998491
0.994278
0.996701
0.995859
0.996214
0.99037
0.994543
0.994392
0.996062
0.986837
0.984038
0.987031
1
0.997701
0.996945
0.999136
0.999057
0.999944
0.996105
0.99997
0.995672
0.994157
0.996771
0.99153
0.986629
0.987466
0.99354
0.992919
0.993915
0.987545
0.998878
0.994723
0.999243
0.997871
1
0.999303
0.997519
0.99351
0.9962
0.995732
0.993728
0.997183
0.997367
1
0.999909
0.997831
0.984506
0.986451
0.994527
0.990327
0.990823
0.997279
1
0.996209
0.993813
0.996973
0.995039
0.996867
0.996176
0.998184
0.98905
0.989907
0.989885
0.991017
0.990298
0.989509
0.988638
0.983614
0.997971
0.99916
0.990216
0.985515
0.994695
0.98985
0.994621
0.993339
0.992429
0.994322
0.983342
0.98112
0.994678
0.99324
0.998745
0.990434
0.996905
0.991916
0.996811
0.995821
0.997911
0.994004
0.989473
0.996701
0.992851
0.991792
0.989823
0.981801
0.996309
0.994218
0.99982
0.997379
0.99717
0.996752
0.997873
0.997467
1
0.996741
0.993081
0.993587
0.986989
0.993087
0.988959
0.99077
0.993635
0.991534
0.99644
1
0.996488
0.99671
0.996811
0.999122
0.991982
0.99362
0.994649
0.995793
0.996589
0.997334
0.995741
1
0.999121
0.997754
0.987254
0.992839
0.992531
0.989228
0.98846
1
0.996373
0.996703
0.996682
0.989892
0.999248
0.994558
0.993531
0.993945
0.99149
0.994407
0.989094
0.993589
0.994294
0.990086
0.988865
0.987256
0.993495
0.994262
0.993779
0.995719
0.994463
0.99115
0.996817
0.991403
0.997256
0.991815
0.99047
0.989464
0.987186
1
0.997839
0.998901
0.996596
0.991796
0.996921
0.996594
0.992762
0.990854
0.987884
0.998021
0.989095
0.985368
0.9924
0.99512
1
0.99798
0.998563
0.999136
0.999057
1
0.997543
0.998272
0.997852
0.989717
0.993015
0.988565
0.98687
0.99275
0.986191
0.992919
0.992165
0.992094
0.998878
1
0.997366
0.999613
1
0.998243
0.996793
0.99659
0.992285
0.994492
0.993509
0.99997
0.99698
0.99824
0.998394
0.99787
0.993847
0.998142
0.992803
0.993735
0.995005
0.994629
0.997977
0.996802
0.995163
0.995612
0.996241
0.991491
0.999438
0.99561
0.993442
0.988327
0.988586
0.994924
0.990237
0.993492
0.991295
0.984595
0.992794
0.994753
0.992541
0.9955
0.994464
0.994201
0.988367
0.989621
0.990671
0.991786
0.98865
0.988587
0.982424
1
0.997979
0.996592
0.997756
0.994914
0.993621
0.989125
0.998244
0.994125
0.983201
0.991094
0.990913
0.985252
0.976435
0.986546
1
0.998746
0.996556
0.998272
0.999382
1
0.995956
0.994785
0.998731
0.991122
0.995025
0.990138
0.989544
0.993144
0.991398
0.992949
0.996222
0.987337
0.999265
1
0.99997
0.997755
0.996811
0.998273
0.993252
0.982839
0.993061
0.988772
0.992519
0.998546
0.994385
0.995492
0.998425
0.998141
0.99055
0.994193
0.993015
0.991536
0.997096
0.995955
0.993792
0.99367
0.990833
0.993614
0.992603
0.997362
0.996119
0.990767
0.992253
0.985956
0.987908
0.994089
0.996705
0.99182
0.995648
0.991457
0.995522
0.990696
0.992752
0.995939
0.987727
0.989126
0.999781
0.987182
0.986941
0.986017
0.989889
0.98233
0.993838
0.997282
0.994633
0.996702
0.996286
0.99231
0.984714
0.996556
0.991066
0.985554
0.984478
0.978998
0.986097
0.983084
0.984383
0.985639
0.99798
0.99798
0.999671
0.998272
0.998146
0.998488
0.998562
0.999136
0.998113
0.991458
0.99799
0.992437
0.989334
0.991571
0.991728
0.992163
0.992164
0.981742
0.998878
0.996811
0.997668
0.996594
0.993623
0.999697
0.996762
0.990319
0.99465
0.99313
0.986247
0.999818
0.99849
0.997031
0.998394
0.997483
0.99044
0.992568
0.995495
0.989887
0.991752
0.997908
0.997977
0.994989
0.982455
0.9908
0.993475
0.993998
0.97958
0.995762
0.994327
0.99541
0.993784
0.996961
0.99704
0.992246
0.996722
0.99993
0.986848
0.987336
0.987256
0.987158
0.992683
0.992902
0.987269
0.994346
0.990672
0.992269
0.993414
0.991439
0.994398
0.998606
0.996655
0.980977
0.994853
0.990855
0.991424
0.995396
0.986618
0.984341
0.990555
0.986587
0.987279
0.987071
0.981733
0.997978
0.997423
0.999582
0.999132
0.997706
0.999675
0.998376
0.995656
0.998272
0.99782
0.995224
0.994959
0.993375
0.989785
0.990783
0.993441
0.993796
0.997972