/*--------------------------------*- C++ -*----------------------------------*\
| =========                 |                                                 |
| \\      /  F ield         | OpenFOAM: The Open Source CFD Toolbox           |
|  \\    /   O peration     | Version:  5.x                                   |
|   \\  /    A nd           | Web:      www.OpenFOAM.org                      |
|    \\/     M anipulation  |                                                 |
\*---------------------------------------------------------------------------*/
FoamFile
{
    version     2.0;
    format      ascii;
    class       surfaceScalarField;
    location    "9.55";
    object      phi;
}
// * * * * * * * * * * * * * * * * * * * * * * * * * * * * * * * * * * * * * //

dimensions      [0 3 -1 0 0 0 0];

internalField   nonuniform List<scalar> 
29271
(
-6.99065e-06
-5.18104e-07
-2.81971e-06
1.01329e-05
-1.17935e-05
2.84333e-06
-6.13115e-06
1.50914e-05
-3.22719e-05
-4.98044e-06
-1.68552e-06
-2.78645e-06
8.63339e-06
3.3091e-05
-1.68073e-05
-3.64896e-07
1.18753e-06
1.586e-06
6.58838e-06
7.81032e-06
-2.47133e-05
-2.74396e-06
3.28146e-07
2.39844e-06
2.81759e-05
-3.44523e-06
-1.95113e-05
1.13801e-06
-3.76853e-06
3.39733e-06
4.01453e-06
1.47299e-05
-1.519e-05
-7.36335e-06
-2.69305e-06
3.7412e-06
7.01486e-06
1.44903e-05
-2.77405e-05
-1.30049e-05
-6.37812e-06
3.10939e-06
7.82226e-06
3.61919e-05
-2.72476e-05
-6.91818e-06
3.37021e-06
-6.06844e-06
4.26107e-06
3.26029e-05
-1.96754e-05
-7.62659e-07
2.58778e-07
1.49538e-05
5.23467e-06
-7.4842e-06
1.16558e-06
1.09268e-06
5.28843e-06
-2.29333e-05
-5.1112e-06
-2.9454e-07
7.20747e-06
-3.44069e-07
2.14757e-05
-2.72629e-05
-6.11027e-06
-1.24486e-05
8.85401e-06
3.38017e-06
3.35875e-05
-2.56798e-05
-3.30459e-06
-5.03852e-06
1.32155e-06
4.06437e-06
2.8637e-05
-2.46784e-05
-4.95337e-07
1.35877e-06
-5.99795e-06
1.70976e-06
2.81032e-05
-2.32796e-05
2.73898e-07
-3.70977e-06
1.04597e-07
1.58181e-05
1.07927e-05
-2.26783e-05
-4.22006e-06
9.00298e-06
2.22549e-06
1.69769e-05
-1.30703e-06
-2.60859e-05
-1.19218e-05
-4.37932e-06
7.70848e-06
3.03317e-06
3.16453e-05
-2.56376e-05
-7.77006e-06
-4.22348e-06
5.80621e-07
5.39813e-06
3.16524e-05
-2.55547e-05
-6.55075e-06
4.30947e-06
2.88252e-05
-5.24733e-06
4.21812e-06
-8.06585e-06
8.19774e-08
3.18659e-06
4.91013e-06
-2.15157e-05
-3.24436e-06
3.00581e-06
2.09176e-05
8.37325e-07
-2.6669e-05
-1.67943e-06
2.74228e-06
-2.74965e-06
2.87263e-05
-3.70455e-07
-9.20874e-06
1.62355e-06
-2.60686e-06
1.01921e-05
-2.02546e-05
-9.97053e-06
1.35498e-05
1.66716e-05
-1.03189e-05
-4.86962e-07
5.72384e-06
5.22222e-06
-2.15342e-06
-2.82454e-06
-2.08219e-05
5.44488e-06
9.99246e-06
1.03625e-05
-6.79676e-06
-7.54359e-06
-2.3497e-06
-2.68251e-06
3.77795e-06
1.55946e-05
-2.53171e-05
-9.82035e-06
4.61001e-07
1.26196e-05
1.85373e-05
3.51952e-06
-6.85502e-06
-2.79115e-06
-1.62368e-05
2.0105e-06
-5.04648e-06
2.8919e-05
-1.7682e-05
-2.64829e-05
0.000132031
-2.06229e-05
-2.53941e-05
-3.42565e-05
-3.59161e-05
-1.3013e-06
-3.26046e-06
9.13299e-07
8.74892e-06
4.22002e-06
2.15209e-07
1.50989e-05
3.68897e-06
-1.01095e-05
-1.09383e-06
0.000122451
-4.19372e-05
-4.36427e-05
-3.55054e-05
-3.43237e-05
2.51563e-06
8.65102e-07
1.79708e-05
5.12807e-06
-1.35644e-06
4.99822e-06
0.000123548
-3.28675e-06
-3.00372e-07
-1.6926e-06
2.20078e-06
-5.83678e-07
3.71322e-08
3.33235e-08
-3.66753e-05
-2.57736e-05
-3.5817e-05
-3.54409e-05
-1.01914e-05
2.15694e-09
2.57348e-07
8.56962e-06
-2.82737e-06
2.60367e-06
-1.45499e-06
1.67451e-06
-1.43161e-07
-1.29977e-05
5.87165e-06
3.68742e-06
-1.20738e-06
4.78914e-06
1.07618e-05
-4.96462e-07
6.71136e-05
-2.8879e-05
-2.50024e-05
-2.27461e-05
-2.02584e-05
-4.04915e-06
-3.35257e-06
4.09686e-07
1.61584e-08
-1.3376e-06
4.55122e-05
8.98355e-05
-3.20931e-05
-3.08344e-05
-2.99894e-05
-3.14251e-05
-1.09367e-06
9.9505e-06
7.82422e-05
-1.26839e-06
-4.34997e-07
-1.12271e-07
6.07516e-06
1.26126e-05
7.14199e-06
-2.76694e-05
-3.17275e-05
-2.44127e-05
-2.36429e-05
-8.75118e-06
-7.93861e-07
-5.58899e-07
2.95382e-06
6.05644e-06
-9.75469e-06
7.38511e-07
1.19509e-06
-1.02566e-07
7.42142e-06
5.0223e-07
3.59427e-06
6.58003e-07
0.000112484
-3.14671e-06
-1.67788e-06
4.06437e-07
6.61433e-07
2.03947e-06
-1.22478e-07
1.0424e-07
-2.94678e-05
-2.89731e-05
-2.80533e-05
-2.90029e-05
-4.62578e-06
5.16641e-06
0.000215741
-2.38588e-06
-6.55569e-07
8.57643e-07
6.52565e-06
3.52107e-06
7.14375e-06
-4.50096e-05
-4.62796e-05
-4.57482e-05
-4.51439e-05
-2.90139e-05
-4.63206e-06
8.95301e-06
3.00176e-05
-2.19916e-06
-2.90604e-06
3.09613e-06
1.99979e-06
-2.68399e-05
-2.58138e-06
6.52129e-06
2.35669e-05
-3.67764e-05
-6.00862e-06
7.54069e-06
-3.56225e-06
4.3973e-05
-1.39014e-05
-4.01979e-06
1.25189e-08
1.7909e-05
-4.93195e-06
1.56647e-07
3.89164e-06
8.82745e-07
-2.20068e-06
4.61903e-07
1.03229e-06
7.07452e-07
-1.53749e-06
-5.93614e-07
-6.16488e-06
1.44611e-07
3.23019e-06
4.92118e-06
-6.6556e-06
-3.06334e-05
4.95358e-06
-4.37433e-06
-5.40098e-06
4.21107e-05
-1.25003e-05
-3.50391e-06
-5.69997e-07
6.73014e-06
7.0923e-06
2.75178e-06
-2.09595e-06
1.99279e-06
-4.68183e-05
-1.69097e-05
5.1464e-07
6.33166e-05
-1.20204e-05
1.75258e-06
8.56542e-05
-3.2412e-06
3.5189e-06
3.75646e-06
1.0282e-05
1.63937e-05
3.64915e-06
1.6476e-05
5.80959e-06
-3.86017e-06
-9.16703e-06
7.67965e-05
1.51615e-05
4.02446e-06
1.70636e-05
1.04115e-05
-2.18048e-07
-9.24431e-06
0.000112804
-1.43085e-06
4.32302e-06
7.63307e-06
5.54043e-06
-3.0316e-07
4.03666e-07
1.79487e-07
-8.602e-06
2.27079e-06
-2.48717e-06
8.58861e-06
-1.119e-06
-4.21441e-07
6.75045e-07
8.67903e-07
1.41159e-07
-3.98209e-06
-3.64616e-07
-6.49987e-07
5.10438e-07
4.3451e-06
-1.03535e-05
9.33271e-07
6.32639e-05
1.01227e-06
1.27844e-06
2.71539e-06
1.00164e-05
-8.25136e-07
7.32678e-06
6.38133e-05
7.33825e-08
9.70015e-07
6.65393e-05
4.06794e-07
2.86388e-07
3.88744e-07
-2.93027e-07
3.89301e-07
-5.8811e-07
-4.31667e-06
6.3742e-07
1.91226e-08
-1.88228e-07
3.92174e-06
-9.24066e-06
-1.38442e-07
-9.47799e-07
-9.24257e-07
1.11212e-05
1.29974e-07
-2.12115e-05
-1.58166e-07
0.000109019
2.54412e-06
3.50318e-06
7.94054e-06
7.18649e-06
-5.40066e-07
3.50753e-06
1.626e-06
-4.02154e-06
3.91393e-06
0.000188319
-8.0489e-06
-5.39511e-07
-1.81952e-06
2.16258e-06
1.57212e-05
6.16877e-06
-2.90843e-05
-1.55583e-06
4.79639e-06
2.27922e-05
-1.66451e-06
1.81626e-07
-8.20156e-07
2.2848e-06
-2.28892e-05
1.61628e-06
-3.52188e-06
2.47215e-05
-4.61477e-05
6.65467e-06
-8.76598e-06
4.62689e-06
4.75461e-05
-2.88264e-05
-4.81116e-06
4.29935e-06
2.9343e-05
-1.37942e-07
9.00709e-08
6.61588e-09
1.87197e-08
-2.7329e-07
-2.88414e-07
2.70758e-07
2.39692e-07
5.73688e-07
2.86953e-06
-8.8843e-06
-2.86123e-06
-9.3006e-07
9.23237e-06
1.20693e-06
-5.33178e-05
8.33589e-06
-3.48157e-06
-8.95058e-06
5.62071e-05
-6.86223e-06
-1.0542e-06
-6.60193e-07
4.11825e-07
7.23444e-06
9.30356e-07
-6.28736e-06
4.89178e-06
-7.40597e-05
-1.24254e-05
1.47595e-05
7.31211e-05
-1.44826e-05
2.3894e-05
5.96467e-05
-3.6058e-06
1.27736e-07
-3.96814e-06
-3.12957e-06
8.38464e-06
3.81878e-06
7.54002e-06
7.42842e-06
-6.2949e-06
1.06072e-05
4.51877e-05
6.11161e-06
2.23406e-06
3.09159e-06
1.37656e-06
-1.70667e-07
1.17987e-05
8.776e-05
1.49576e-07
4.02519e-07
4.0411e-06
1.02594e-06
2.3154e-07
7.18881e-07
5.51688e-07
-8.14347e-06
7.56279e-07
4.05182e-07
6.7727e-06
-7.8379e-07
-1.43745e-06
1.72446e-06
4.62755e-07
-1.89121e-06
-7.28329e-06
-1.19855e-05
6.54169e-07
7.33681e-06
1.31691e-05
-6.68632e-06
3.49951e-06
8.62668e-05
-1.30403e-07
2.5848e-06
7.70637e-07
8.52896e-07
-1.26026e-06
6.60562e-06
6.23888e-05
-4.34135e-07
9.11288e-07
5.92656e-05
-1.66077e-08
-5.7921e-08
6.61316e-07
4.6204e-07
8.49657e-06
7.78966e-06
-4.4891e-06
-8.10649e-07
-9.77953e-07
1.14984e-06
4.69373e-06
-1.84674e-05
-1.60107e-06
-3.11791e-07
1.67465e-06
2.4591e-05
-5.88542e-06
-3.86797e-06
6.42696e-08
0.000139699
2.76078e-08
2.54742e-06
-6.97798e-06
-5.20324e-06
-2.10802e-06
-5.73116e-06
-5.93156e-06
-7.80844e-07
8.57126e-06
0.000178621
-6.62186e-07
-6.48209e-07
-2.03627e-06
3.912e-06
2.89216e-06
1.18758e-06
-2.30843e-05
4.70791e-07
9.68369e-07
2.17756e-05
-3.49985e-06
-4.08996e-07
-2.55994e-07
4.14509e-06
-3.36265e-05
2.91273e-06
-8.80993e-06
3.95888e-05
-5.77285e-05
7.86046e-06
-6.09563e-06
3.65661e-06
6.08783e-05
-2.48515e-05
-1.82685e-06
2.3794e-06
2.43152e-05
-6.24804e-08
1.62799e-07
-3.78141e-07
2.0482e-07
-2.92845e-07
-4.2235e-07
2.92606e-07
3.58351e-07
4.69093e-07
2.68649e-06
-8.68243e-06
-5.07489e-06
4.08879e-06
6.51294e-06
6.85503e-07
-5.19254e-05
7.10081e-06
6.74803e-07
3.24087e-06
4.02235e-05
-1.04226e-05
-1.02764e-07
-1.11776e-07
-2.3979e-08
1.23682e-05
-1.70704e-06
-6.47602e-06
1.00262e-06
-6.42763e-05
-3.63227e-07
1.97377e-05
5.03752e-05
-1.23838e-05
3.89344e-05
6.56603e-05
-8.47369e-06
-1.38323e-05
-1.10487e-05
-1.71034e-05
3.11718e-06
4.5684e-06
3.84323e-06
6.36495e-06
-1.00204e-06
3.39938e-05
2.96565e-05
-8.04049e-06
-5.77705e-06
-9.86938e-06
-6.15744e-06
1.20228e-06
3.75825e-05
5.87902e-05
-4.97429e-06
-3.27482e-06
-5.50969e-06
-3.12456e-06
1.68071e-06
1.90195e-06
2.4837e-06
-5.90169e-06
-1.03477e-06
2.90929e-06
5.17359e-06
-5.72316e-07
-8.48923e-07
-2.09816e-07
1.44486e-06
1.7037e-07
-2.11341e-05
-1.72876e-05
5.33993e-08
9.2121e-06
2.89859e-05
5.738e-06
1.3732e-05
0.000104701
-4.37356e-07
-9.03203e-07
1.86752e-06
5.0352e-07
2.09014e-06
2.13316e-05
7.86989e-05
5.17457e-08
6.9735e-06
7.24001e-05
9.8747e-07
1.89289e-06
1.09699e-06
6.43e-06
4.88853e-06
4.21693e-06
-6.35732e-06
-3.04134e-06
-1.45418e-06
1.42169e-06
9.48289e-06
-2.55613e-05
-4.44982e-07
3.46743e-06
-2.68254e-07
2.68792e-05
-4.07203e-06
-1.19315e-06
-3.35971e-06
0.000171721
-4.08801e-06
-2.94185e-06
7.24755e-07
-2.79591e-07
-3.28115e-06
-2.22507e-06
-1.64637e-06
-1.13242e-06
1.67244e-06
0.000199114
-1.25657e-06
8.07336e-07
-3.40994e-07
-1.01326e-06
1.73963e-06
-8.30484e-07
-2.35909e-05
2.05984e-06
3.74735e-06
2.36248e-05
-5.51823e-06
2.17382e-06
-4.2193e-06
7.55635e-06
-3.97882e-05
4.36541e-06
-8.32737e-06
4.03903e-05
-6.08771e-05
6.02008e-06
-3.64078e-06
2.6315e-06
5.75387e-05
-2.56475e-05
1.23501e-07
-2.77812e-07
2.58058e-05
-3.38532e-07
2.5265e-07
-4.44709e-07
4.74864e-07
-5.03404e-07
-6.64328e-07
3.63677e-07
6.97989e-07
4.69138e-07
2.41521e-06
-4.28038e-06
-7.98359e-06
6.46851e-06
2.91111e-06
4.82431e-07
-2.79379e-05
5.17214e-06
2.07535e-06
4.71413e-06
1.54938e-05
-1.44072e-05
7.00824e-07
6.17451e-07
4.18936e-06
1.10891e-05
-2.18953e-06
-4.46656e-06
3.74249e-06
-3.9718e-05
-7.43962e-06
1.27045e-05
3.51772e-05
-8.26738e-06
4.85427e-05
6.81335e-05
-1.40403e-05
-2.31206e-05
-1.09814e-05
-1.28959e-05
4.55846e-06
4.52227e-06
4.44391e-06
4.76505e-06
5.15767e-07
2.90267e-05
2.00118e-05
-1.09609e-05
-1.02745e-05
-2.56091e-06
-4.36871e-06
1.93202e-06
4.05745e-05
4.12245e-05
-1.93145e-05
-3.44557e-06
-1.10802e-05
-2.18683e-06
2.83471e-06
1.35453e-06
7.41285e-06
-5.33826e-06
-1.8512e-06
5.19171e-06
1.50477e-06
2.425e-06
-1.19317e-06
-2.15004e-09
6.2562e-08
1.12805e-06
-3.24426e-06
-7.00298e-08
-2.50914e-06
5.81546e-06
4.70896e-06
-3.4223e-05
-1.77126e-05
-2.32531e-06
1.50685e-05
3.44834e-05
7.91495e-06
1.71848e-05
0.000124004
9.97743e-07
-3.99946e-07
2.20936e-06
1.33266e-06
6.83809e-06
2.38442e-05
8.49583e-05
1.20224e-06
7.32694e-06
7.96812e-05
1.83213e-06
2.6307e-06
2.87776e-06
7.02618e-06
9.76978e-06
7.46577e-06
-1.46723e-05
-3.20821e-06
1.75341e-06
3.35101e-06
1.39783e-05
4.6807e-09
-2.69065e-07
-1.54114e-08
-1.46563e-08
2.92874e-07
-3.1645e-05
2.97907e-06
-1.31757e-06
4.57077e-07
3.64267e-05
-6.90032e-06
-1.3425e-06
-2.74407e-06
0.00019405
-2.60159e-09
1.03019e-06
2.47619e-06
1.54857e-06
-2.18955e-06
-2.5858e-06
-1.3343e-06
6.30282e-07
1.51924e-06
0.00021121
4.29512e-07
2.38705e-06
1.25499e-06
1.29575e-07
2.43844e-06
1.6166e-06
-2.46705e-05
4.52445e-06
8.13787e-07
2.72895e-05
-1.07901e-05
5.88625e-06
-9.67024e-06
1.45709e-05
-4.05445e-05
3.70917e-06
-5.67983e-06
3.97711e-05
-5.52651e-05
5.17296e-06
-3.23261e-06
2.07128e-06
5.27727e-05
-2.26179e-05
1.11396e-06
1.47274e-06
2.00261e-05
-7.05814e-07
3.07385e-07
-7.41822e-07
1.10089e-06
-1.00716e-06
-9.34032e-07
2.59923e-07
1.43748e-06
5.96408e-07
1.31826e-06
-3.65653e-06
-3.09483e-06
8.50842e-07
3.98585e-06
1.07646e-06
-8.43144e-06
9.46886e-07
-3.14971e-07
2.83365e-07
6.4397e-06
-1.0471e-05
8.08752e-07
1.77687e-06
-8.75913e-07
9.71301e-06
-9.51684e-07
-3.18835e-07
6.55587e-06
-3.03951e-05
-4.43643e-06
4.03425e-06
2.45603e-05
-4.24955e-06
4.17638e-05
3.35333e-05
-3.59592e-06
-4.07573e-06
-3.64818e-06
-2.55009e-06
2.18173e-06
3.01235e-06
2.11708e-06
3.64464e-06
-2.85317e-07
1.76385e-05
2.58828e-06
-1.15037e-06
-1.6785e-06
-5.54322e-07
-7.96057e-07
6.92677e-07
3.09693e-05
1.4151e-05
-3.29328e-06
-1.7156e-06
-1.3921e-06
-1.13002e-06
3.9245e-06
-3.75684e-07
-8.91653e-07
-2.10911e-06
-3.94891e-07
7.5016e-07
1.07124e-06
1.37527e-06
-3.242e-06
1.21265e-06
2.51196e-06
-2.0085e-06
-2.15479e-06
3.68069e-06
-8.45842e-06
-8.48792e-07
-3.25844e-07
9.63306e-06
2.98918e-06
-3.40295e-05
-8.48068e-06
-4.08343e-06
8.91953e-06
3.46849e-05
8.33982e-06
1.59727e-05
0.000130898
2.10048e-06
1.08259e-06
4.08732e-06
3.28716e-06
9.10225e-06
1.52503e-05
8.6584e-05
2.47056e-06
7.36868e-06
8.04215e-05
3.0014e-06
2.28614e-06
2.69045e-06
6.56049e-06
8.28697e-06
6.66656e-06
-1.62182e-05
-2.30913e-06
2.36457e-06
8.6726e-07
1.77661e-05
-1.25849e-06
3.29844e-06
3.23655e-07
-2.11436e-06
-1.48026e-06
1.23101e-06
-4.14996e-05
4.11965e-06
-3.74934e-06
3.47938e-06
4.48491e-05
-7.19918e-06
-1.6677e-06
-2.49291e-06
0.000213976
1.23872e-06
7.75283e-07
2.49607e-06
-2.32441e-08
-1.94699e-06
-1.28412e-06
-1.04811e-06
9.37552e-07
8.34761e-07
0.000215087
1.21152e-06
2.04684e-06
1.61546e-06
9.83425e-07
9.71208e-07
1.10451e-06
-3.1724e-05
4.09384e-06
3.20313e-06
3.27333e-05
-1.67256e-05
-1.9068e-06
-9.75794e-06
7.46267e-06
2.09233e-05
-1.29861e-06
-6.85505e-07
-1.11084e-06
3.09496e-06
-3.82634e-05
3.02042e-06
-3.90944e-06
3.66595e-05
-5.10357e-05
3.03241e-06
-1.61229e-06
1.37586e-06
4.90744e-05
-1.9722e-05
-8.8835e-07
6.51709e-07
1.99558e-05
-1.44002e-06
2.49193e-07
-1.17855e-07
1.25945e-06
-1.71486e-06
-1.67984e-06
9.74377e-07
2.40243e-06
4.54571e-07
1.33334e-06
-4.04675e-06
-7.78467e-07
-8.20957e-08
3.1194e-06
6.61125e-07
-5.61705e-06
2.94381e-07
-1.32834e-07
-7.62488e-07
5.55686e-06
-8.4437e-06
1.5649e-07
4.27616e-07
-3.54543e-07
8.48114e-06
-2.66995e-07
-5.84672e-07
-5.9696e-07
-2.00521e-05
-2.92046e-07
3.67647e-06
1.78493e-05
-7.19767e-06
2.7895e-05
1.76552e-05
-2.36253e-06
-7.12265e-07
-4.26451e-06
-3.91193e-06
1.13313e-06
2.81619e-06
-1.53041e-07
2.63574e-06
-1.15143e-05
7.02212e-06
-2.63592e-06
7.69019e-07
7.125e-07
2.70297e-07
7.66868e-07
-4.68955e-06
1.68106e-05
4.93197e-06
-2.10604e-07
-7.48072e-07
1.3439e-07
-1.86724e-06
-2.78606e-06
-5.45973e-06
-3.47895e-06
-2.18677e-06
-1.43774e-06
-4.69734e-06
7.96124e-07
2.83618e-06
-3.46508e-06
1.98193e-06
3.32932e-06
-1.73387e-07
-4.24675e-06
2.57397e-06
-9.62005e-06
1.05541e-06
-1.27748e-06
9.84212e-06
2.92086e-06
-3.66754e-05
-6.64801e-06
-4.62523e-06
6.8489e-06
3.81789e-05
4.98229e-06
9.09868e-06
0.000133477
2.76637e-06
1.9149e-06
3.56862e-06
2.9844e-06
-5.89039e-07
2.84382e-06
9.63337e-05
2.80752e-08
4.29679e-06
8.01506e-05
1.20316e-06
-6.60726e-07
1.70652e-06
3.52825e-06
4.01188e-06
2.37846e-06
-1.92255e-05
-8.63231e-08
-2.54193e-07
-6.05092e-07
2.01992e-05
2.5861e-07
3.77625e-06
9.7611e-07
-5.0907e-07
-2.51299e-06
-1.98891e-06
-4.72691e-05
4.77331e-06
-3.91305e-06
2.62872e-06
4.88181e-05
-5.03803e-06
4.64117e-07
-1.09899e-06
0.000227628
9.76699e-07
-1.60383e-06
2.05728e-06
-1.9041e-06
-1.35583e-06
-9.63386e-07
-1.12549e-06
9.12834e-07
-8.00853e-07
0.000215668
1.40511e-06
1.72665e-06
1.5205e-06
-2.76469e-07
-1.09531e-06
-6.65246e-07
-3.57943e-05
3.68379e-06
1.73113e-06
3.5589e-05
-2.34662e-05
1.35642e-06
-7.9459e-06
6.87679e-06
2.31789e-05
-7.01222e-06
2.76733e-06
-7.10814e-06
3.38546e-06
7.96757e-06
-3.5775e-05
2.01953e-06
-2.3751e-06
3.50315e-05
-4.84862e-05
1.98186e-06
-1.00334e-06
1.03445e-07
4.66034e-05
-2.00827e-05
8.44102e-07
-1.13699e-07
1.93523e-05
-1.31653e-06
3.19299e-07
-5.94411e-07
1.59737e-06
-3.53468e-06
9.03856e-07
-1.64975e-06
4.28157e-06
-1.01924e-06
3.13458e-07
-9.30182e-07
-1.44554e-06
2.57417e-06
5.07328e-07
1.20919e-06
-5.74866e-06
1.17883e-06
-1.13077e-07
8.61099e-07
2.61262e-06
-9.63686e-06
6.1626e-07
9.4178e-08
-1.69427e-07
8.98167e-06
1.14182e-07
1.59655e-06
-4.90958e-06
-1.69737e-05
4.4148e-06
-8.53559e-07
1.67255e-05
-9.06135e-06
1.85829e-05
3.01584e-05
-4.09929e-06
-4.90455e-06
-3.98645e-06
-4.53533e-06
-2.21095e-06
5.55967e-07
-2.93168e-06
8.75974e-08
-1.94941e-05
-1.06694e-07
1.63116e-05
-1.9467e-06
-2.1885e-06
-1.89579e-06
-2.37711e-06
-5.96462e-06
-2.43364e-06
1.57491e-05
-6.3613e-07
-1.81928e-06
-1.03276e-06
-2.06106e-06
-4.51351e-06
-7.02276e-06
-4.82747e-06
-6.79877e-06
6.02945e-07
-5.21759e-06
-7.23214e-07
6.17201e-06
-2.46483e-06
1.99902e-06
1.42305e-06
-2.40203e-06
1.44479e-06
-1.07557e-05
4.12922e-06
-4.74309e-06
1.13696e-05
3.26507e-06
-3.81656e-05
-3.00816e-06
-4.1961e-06
5.34238e-06
3.67624e-05
-8.71626e-08
-1.54241e-06
0.000146345
2.05765e-06
1.23817e-06
2.0529e-06
1.99589e-06
-8.12415e-06
-9.85105e-06
0.000114115
-2.21137e-06
-8.22824e-07
8.42728e-05
4.64962e-07
-3.16208e-06
-2.02669e-06
-7.97769e-07
-2.3944e-06
-3.72983e-06
-2.1327e-05
1.19732e-06
-9.98514e-07
-2.08474e-06
2.10015e-05
1.69752e-06
5.32243e-06
-2.94138e-07
8.62606e-07
-6.73628e-06
-8.5215e-07
-5.02274e-05
4.68529e-06
-3.91636e-06
1.92759e-06
5.15767e-05
-4.0458e-06
1.44107e-06
-1.99736e-06
0.000234192
1.07978e-06
-2.10296e-06
2.36982e-06
-2.13018e-06
-2.40191e-06
-2.31906e-06
-2.04565e-06
1.05115e-06
-2.69875e-06
0.000211442
1.60261e-06
2.66382e-06
2.11193e-06
-2.35679e-06
-3.19736e-06
-3.36103e-06
-3.84241e-05
2.09938e-06
-1.97851e-06
3.85316e-05
-1.84113e-05
1.25148e-06
-4.9908e-06
2.21506e-05
-3.43074e-05
1.55859e-06
-2.12115e-06
3.28726e-05
-4.43108e-05
2.00495e-06
-1.07902e-07
-3.01858e-07
4.00169e-05
-1.77426e-05
3.79428e-06
-1.3263e-06
1.52746e-05
-1.85139e-06
7.08372e-07
-1.16541e-06
2.30887e-06
-4.37067e-06
3.63138e-06
-3.69651e-06
4.4358e-06
-5.95683e-07
-2.46723e-06
-1.00793e-07
1.87211e-06
8.42314e-07
4.49277e-07
7.65471e-07
-7.41829e-07
-8.23201e-07
2.49128e-07
-1.1212e-07
6.62552e-07
-7.73253e-06
5.72818e-07
1.47394e-06
-6.94106e-07
7.39765e-06
-1.01777e-06
2.41349e-06
-4.87687e-06
-1.6414e-05
4.94971e-06
-1.73929e-06
1.56669e-05
-6.97372e-06
-8.34182e-06
5.1087e-05
5.32329e-08
1.05732e-07
6.54349e-07
5.3231e-07
-3.3686e-06
-4.67492e-07
-2.84736e-06
-2.75227e-07
-2.10642e-05
-1.16627e-05
3.78521e-05
1.09927e-06
8.38186e-07
1.12168e-06
1.1536e-06
-6.71589e-06
-1.6656e-05
3.15828e-05
1.19285e-06
-3.11021e-07
1.36138e-06
1.21256e-07
-5.34297e-06
-5.88217e-06
-4.66534e-06
-7.73111e-06
-6.17777e-07
-4.46422e-06
6.09722e-06
-1.15323e-05
4.79875e-06
-4.80302e-06
1.15366e-05
2.54421e-06
-3.40362e-05
-1.21968e-06
-2.60465e-06
3.49069e-06
3.18256e-05
-7.42516e-07
-2.48664e-05
0.000162716
5.23153e-07
-2.23251e-07
7.17987e-07
-1.21783e-07
-8.5295e-06
-2.09072e-05
0.000131146
-2.88083e-06
-6.77395e-06
9.41173e-05
-1.79772e-06
-1.74968e-06
-6.01372e-07
-6.63121e-06
-7.13075e-06
-7.46446e-06
-2.98557e-05
3.71473e-06
-1.45815e-07
-5.83905e-06
2.9245e-05
-5.24496e-05
4.70229e-06
-3.52627e-06
1.81546e-06
5.23478e-05
-2.88974e-06
9.73302e-07
-4.60173e-06
0.000228913
9.01711e-07
-2.388e-06
1.85814e-06
-2.30054e-06
-4.20291e-06
-5.02673e-06
-4.80034e-06
1.73781e-06
-4.93944e-06
0.000201271
2.58807e-06
3.17156e-06
2.09151e-06
-4.6106e-06
-5.26486e-06
-4.53652e-06
-4.0651e-05
2.80991e-06
-6.61923e-06
3.94242e-05
-2.16403e-05
8.35328e-06
-4.63065e-06
1.79177e-05
-3.17473e-05
9.149e-10
-1.6222e-06
2.87668e-05
-3.48433e-05
-5.41715e-07
3.97581e-06
-1.74821e-06
2.82179e-05
-1.23532e-05
5.51956e-06
-2.70022e-06
9.53389e-06
-2.66191e-06
4.37318e-07
-8.29262e-07
3.05386e-06
-4.58306e-06
4.31084e-06
-4.60912e-06
4.88135e-06
7.35579e-07
-2.32896e-06
-8.83561e-07
2.41845e-06
-2.63141e-06
2.6899e-06
1.26274e-06
-9.31074e-07
-2.19826e-06
1.40808e-06
-1.72821e-06
2.18673e-06
-6.94607e-06
-5.55583e-07
1.69165e-06
-2.6936e-07
7.43349e-06
-1.35413e-06
2.31747e-06
-4.06358e-06
-1.45208e-05
2.8909e-06
-5.81707e-07
1.39577e-05
-3.49156e-06
-3.3254e-05
7.16048e-05
4.9958e-06
4.61855e-06
5.6604e-06
5.1849e-06
-1.48873e-06
-5.47141e-07
-1.50064e-06
-6.95389e-07
-1.37986e-05
-2.56647e-05
5.91195e-05
3.34847e-06
3.63445e-06
3.68636e-06
4.03509e-06
-4.48895e-06
-2.24506e-05
4.79754e-05
2.32311e-06
1.09295e-06
2.47582e-06
1.20568e-06
-3.20255e-06
-4.07949e-06
-3.0672e-06
-5.56349e-06
-6.41861e-07
-4.26714e-06
5.98354e-06
-1.13401e-05
4.44958e-06
-4.2172e-06
1.11078e-05
2.00551e-06
-3.02398e-05
-1.24395e-06
-2.15286e-06
2.1562e-06
2.94749e-05
3.69195e-06
-3.88997e-05
0.000166869
-5.08162e-08
-1.74028e-06
3.35292e-07
-7.43153e-07
-3.08677e-06
-3.08312e-05
0.000143092
3.77629e-07
-8.76966e-06
9.76995e-05
8.25317e-07
6.6676e-07
6.89017e-07
-7.77835e-06
-7.73114e-06
-7.39909e-06
-2.81506e-05
4.59019e-06
3.61682e-06
-8.26073e-06
2.8582e-05
-5.22274e-05
4.87311e-06
-2.89061e-06
-6.61806e-07
5.25072e-05
-1.60048e-06
5.2991e-06
-5.1369e-06
0.000209542
-1.58543e-07
-3.32067e-06
9.07565e-07
-3.56596e-06
-5.27471e-06
-3.95606e-06
-4.32277e-06
1.75213e-06
-5.35993e-06
0.000184597
1.45207e-06
2.89377e-06
1.48252e-06
-3.95199e-06
-4.42636e-06
-2.7007e-06
-3.96626e-05
2.89482e-06
-7.29377e-06
3.70441e-05
-1.69207e-05
6.47834e-06
-5.42722e-06
1.58696e-05
-2.49486e-05
-2.92788e-06
2.30526e-06
2.04343e-05
-2.23449e-05
-2.21858e-06
3.77768e-06
-2.21967e-06
1.76455e-05
-7.43416e-06
3.76174e-06
-2.17811e-06
5.85052e-06
-3.56816e-06
1.64508e-07
-7.53679e-07
4.15733e-06
-5.35806e-06
4.18934e-06
-5.08669e-06
6.25541e-06
2.34853e-06
-2.21939e-06
-4.61089e-06
2.70921e-06
-5.36649e-06
7.13903e-06
1.97036e-06
-3.58825e-06
-2.58946e-06
1.70897e-06
-3.00141e-06
5.49979e-06
-8.13691e-06
-1.07276e-06
1.72572e-06
-5.54652e-07
9.62323e-06
-1.58463e-06
3.20208e-06
-3.91224e-06
-1.3595e-05
2.18966e-06
-2.67001e-06
1.47855e-05
1.54653e-06
-4.66223e-05
8.7721e-05
8.17562e-06
7.31916e-06
8.65808e-06
7.81065e-06
-4.39339e-07
-1.22215e-06
-4.41057e-07
-9.01349e-07
-2.98898e-06
-3.65247e-05
7.73712e-05
5.19532e-06
5.60866e-06
5.89127e-06
6.11332e-06
-2.43938e-06
-2.24651e-05
6.63871e-05
3.12657e-06
1.83658e-06
3.43093e-06
1.96669e-06
-2.37138e-06
-1.87462e-06
-2.61101e-06
-6.60347e-06
-6.67493e-07
-3.14386e-06
7.97544e-06
-1.08005e-05
4.79713e-06
-4.44151e-06
1.04449e-05
6.45612e-07
-2.87941e-05
2.87891e-06
5.03175e-08
-3.74879e-06
2.89681e-05
7.74936e-06
-4.33927e-05
0.000163246
-1.05233e-06
-2.85053e-06
-8.20711e-07
-2.63213e-06
6.21226e-06
-3.67439e-05
0.000144848
1.34752e-06
-8.38431e-06
0.000102937
1.31715e-06
1.63168e-06
1.56097e-06
-6.28176e-06
-7.30414e-06
-5.37719e-06
-2.9007e-05
4.62668e-06
3.06767e-06
-6.98281e-06
2.9643e-05
-5.19102e-05
5.6848e-06
-1.64621e-06
-2.28898e-06
4.6124e-05
4.03654e-06
1.26639e-05
-3.37314e-06
0.000182709
-2.74071e-06
-5.18228e-06
-3.01793e-06
-5.04945e-06
-3.83186e-06
-2.82954e-06
-3.19862e-06
1.77762e-06
-3.86935e-06
0.000161321
2.0669e-06
3.70797e-06
2.21551e-06
-1.94343e-06
-3.20898e-06
-1.5497e-06
-3.57444e-05
2.40648e-06
-5.25287e-06
3.19841e-05
-1.42468e-05
5.43657e-06
-3.90384e-06
1.27141e-05
-1.68652e-05
-5.15649e-06
4.4745e-06
1.4174e-05
-1.46814e-05
-1.77655e-06
1.43158e-06
-1.4325e-06
1.25895e-05
-4.82659e-06
1.70092e-06
-1.02367e-06
4.14934e-06
-4.78571e-06
-4.80385e-08
-5.44774e-07
5.37852e-06
-7.69049e-06
3.96255e-06
-5.75201e-06
9.47995e-06
3.10635e-06
-2.52306e-06
-9.95553e-06
2.98524e-06
-6.30743e-06
1.26944e-05
2.29513e-06
-7.73316e-06
-2.60338e-06
1.71285e-06
-3.69533e-06
1.00239e-05
-1.13251e-05
-8.65934e-07
1.55223e-06
-9.97499e-07
1.32177e-05
-1.58134e-06
5.4102e-06
-2.93582e-06
-1.71882e-05
1.12818e-06
-6.91213e-06
2.04978e-05
4.23015e-06
-4.68472e-05
9.70107e-05
8.87403e-06
7.64296e-06
8.9579e-06
7.87939e-06
2.22519e-07
-6.32853e-07
2.02712e-07
1.80686e-07
5.41245e-06
-3.86266e-05
8.98744e-05
5.83683e-06
6.11443e-06
6.31762e-06
6.67214e-06
-1.51192e-07
-1.9376e-05
8.19494e-05
3.4188e-06
2.31812e-06
3.85793e-06
2.38624e-06
-1.69167e-06
3.31072e-07
-1.24311e-06
-9.00869e-06
-1.31727e-06
-3.72437e-07
1.05472e-05
-1.0373e-05
4.96553e-06
-5.15726e-06
1.05648e-05
1.48436e-06
-2.93379e-05
8.14826e-06
-7.28447e-07
-9.10438e-06
2.95381e-05
7.92926e-06
-4.0771e-05
0.000152305
-6.08261e-07
-2.36255e-06
6.41401e-07
-7.35507e-07
1.21212e-05
-3.49763e-05
0.000137006
1.56189e-06
-6.3603e-06
0.000105774
2.10269e-06
1.3033e-06
2.14554e-06
-3.93184e-06
-3.841e-06
-3.0727e-06
-3.07591e-05
2.87674e-06
1.73597e-06
-5.03016e-06
3.27384e-05
-3.5839e-05
1.83571e-06
1.42461e-06
-7.19678e-07
2.6449e-05
6.8493e-06
9.45498e-06
-2.00211e-06
0.000152623
-3.70377e-06
-3.79642e-06
-1.7829e-06
-2.86724e-06
-2.391e-06
-1.64097e-06
-1.95569e-06
3.49165e-06
-1.88976e-06
0.00012829
2.24106e-06
4.64832e-06
2.24183e-06
-7.60946e-07
-1.61713e-06
-8.45298e-07
-2.93054e-05
5.18101e-06
-3.18846e-06
2.44442e-05
-1.21606e-05
4.21132e-06
-4.78853e-06
1.27378e-05
-1.23088e-05
-3.96833e-06
3.23071e-06
1.10443e-05
-1.10358e-05
-1.0614e-06
8.41803e-07
-1.01729e-06
1.03829e-05
-3.80727e-06
8.43417e-07
-7.25259e-07
3.68912e-06
-5.89762e-06
1.43359e-07
-5.37157e-07
6.29141e-06
-1.13253e-05
3.5811e-06
-5.23615e-06
1.29803e-05
2.53157e-06
-2.92271e-06
-1.55305e-05
3.14068e-06
-5.12511e-06
1.7906e-05
2.26312e-06
-1.24584e-05
-2.32596e-06
1.36884e-06
-3.54068e-06
1.46931e-05
-1.51265e-05
-3.55999e-07
9.53143e-07
-1.33869e-06
1.68886e-05
-1.02057e-06
5.62501e-06
-3.35198e-06
-2.41458e-05
1.19497e-06
-6.96742e-06
2.76452e-05
5.31426e-06
-3.81221e-05
0.000103294
7.48998e-06
6.15927e-06
6.97722e-06
6.29905e-06
1.4305e-07
-6.10117e-07
1.99263e-07
-1.32921e-07
7.19411e-06
-3.25032e-05
9.77791e-05
5.19051e-06
5.63088e-06
5.58734e-06
6.30996e-06
1.10062e-06
-1.71061e-05
9.21517e-05
3.38421e-06
2.30916e-06
3.92965e-06
2.35072e-06
-4.28359e-07
1.31139e-06
1.40474e-07
-1.19256e-05
-1.4962e-06
1.23006e-06
1.32924e-05
-1.06948e-05
3.25901e-06
-2.52763e-06
9.96343e-06
1.28809e-07
-2.95921e-05
7.33499e-06
-3.22305e-07
-6.90351e-06
2.93541e-05
4.14247e-06
-2.66714e-05
0.00013892
1.43752e-07
-1.47777e-06
6.56836e-08
-9.40068e-07
1.01188e-05
-2.36099e-05
0.000122136
5.36498e-07
-3.26295e-06
0.000104726
1.39591e-06
6.76795e-07
8.97118e-07
-2.28411e-06
-2.54535e-06
-1.35246e-06
-3.4928e-05
5.89018e-07
6.84663e-07
-1.72525e-06
3.5916e-05
-2.05486e-05
-5.7777e-08
1.631e-07
-6.89107e-07
1.73944e-05
3.73804e-06
3.00644e-06
5.07813e-07
0.000121219
-4.11545e-07
-6.74863e-07
8.36375e-07
-4.76563e-08
2.18425e-07
7.78178e-07
5.19414e-07
2.29988e-06
1.28218e-07
9.93871e-05
2.01515e-06
1.06643e-06
1.98513e-06
3.23206e-07
2.40596e-07
2.40481e-07
-2.11937e-05
4.68682e-06
-1.42477e-06
1.69686e-05
-1.42501e-05
2.2341e-06
-4.07092e-06
1.60869e-05
-9.74428e-06
-1.65157e-06
2.04433e-06
9.85933e-06
-9.70948e-06
-1.07936e-06
1.45826e-06
-9.60194e-07
1.0419e-05
-3.76859e-06
9.55392e-07
-1.20191e-06
4.01511e-06
-6.54162e-06
5.40908e-07
-7.16922e-07
6.71764e-06
-1.42179e-05
3.37445e-06
-4.04118e-06
1.48846e-05
1.5692e-06
-3.22996e-06
-2.01231e-05
2.9956e-06
-3.23604e-06
2.20243e-05
2.45713e-06
-1.68326e-05
-2.07651e-06
1.03357e-06
-3.16399e-06
1.85824e-05
-1.87091e-05
9.16037e-08
4.53822e-07
-1.74367e-06
2.02989e-05
-3.91629e-07
4.56635e-06
-1.71115e-06
-3.0298e-05
8.31119e-07
-5.15277e-06
3.17645e-05
7.55847e-06
-2.57905e-05
0.000106373
4.88002e-06
4.06298e-06
4.5053e-06
4.46236e-06
-5.88489e-07
-1.10924e-06
-8.13723e-07
-2.467e-07
5.94337e-06
-2.54829e-05
0.000105337
4.24749e-06
4.93962e-06
4.79493e-06
5.55787e-06
1.13651e-06
-1.64037e-05
0.000100099
3.3195e-06
2.27615e-06
4.00012e-06
2.45534e-06
5.19826e-08
9.91258e-07
1.6869e-07
-1.44147e-05
-1.47239e-06
1.79904e-06
1.52245e-05
-8.59403e-06
1.27372e-06
-1.57447e-08
7.33605e-06
-2.99652e-06
-2.90365e-05
5.22858e-06
2.35052e-06
-3.79228e-06
2.82462e-05
5.75484e-06
-1.33475e-05
0.000123324
-1.39931e-06
-1.39533e-06
-3.9852e-07
5.91619e-07
3.55744e-06
-1.39936e-05
0.000112844
-2.64403e-07
-3.1627e-06
0.000102632
-5.9495e-07
-1.91197e-07
-1.0334e-06
-1.15192e-06
-2.62122e-06
-1.73244e-06
-3.62203e-05
-3.86002e-07
5.04764e-07
5.74731e-07
3.52624e-05
-1.58954e-05
1.02683e-06
-1.22256e-06
-8.87383e-07
1.50526e-05
1.92592e-06
6.05284e-06
2.47588e-06
9.02713e-05
3.31592e-07
1.22499e-07
9.35332e-07
2.22818e-07
2.42609e-06
2.50303e-06
2.53021e-06
-5.72541e-07
9.39524e-07
8.50321e-05
1.99262e-06
-2.82963e-07
2.2104e-06
5.84146e-07
9.42618e-07
6.00489e-07
-1.51358e-05
-1.1876e-06
-1.85805e-06
1.44462e-05
-1.7073e-05
-8.67366e-07
1.521e-06
1.64194e-05
-9.55292e-06
-1.1139e-07
1.81959e-06
1.03206e-05
-1.10577e-05
-1.7455e-06
2.49247e-06
-1.12258e-06
1.23729e-05
-4.44334e-06
1.33965e-06
-1.86886e-06
4.97255e-06
-6.85562e-06
7.67907e-07
-9.12418e-07
7.00013e-06
-1.50777e-05
3.63416e-06
-3.58074e-06
1.50243e-05
9.79564e-07
-3.21598e-06
-2.40515e-05
2.3934e-06
-2.31457e-06
2.62091e-05
2.62479e-06
-2.01647e-05
-1.57087e-06
5.43942e-07
-2.87475e-06
2.14416e-05
-2.18847e-05
5.04602e-07
1.06998e-07
-2.03903e-06
2.31539e-05
1.5824e-07
3.80966e-06
2.74631e-07
-3.20703e-05
6.5848e-07
-3.68858e-06
3.10161e-05
8.83534e-06
-1.70465e-05
0.000105342
3.37377e-06
2.94031e-06
3.30867e-06
3.53821e-06
-1.25524e-06
-1.27535e-06
-7.91927e-07
-5.95756e-07
4.48558e-06
-1.95491e-05
0.000112956
3.44794e-06
4.03237e-06
4.17549e-06
4.62401e-06
3.66526e-07
-1.62757e-05
0.000109281
3.14629e-06
2.4417e-06
3.832e-06
2.70131e-06
-5.08108e-07
1.11419e-07
-5.11695e-07
-1.6167e-05
-8.50896e-07
8.97846e-08
1.72947e-05
-6.50357e-06
4.0261e-07
1.36213e-08
6.08734e-06
-1.54035e-06
-2.71654e-05
2.42117e-06
1.45533e-06
-9.96347e-07
2.58256e-05
1.11823e-05
-4.75884e-06
0.000101765
-1.72676e-06
-2.29891e-07
-7.41874e-07
7.87763e-07
2.14022e-06
-8.93852e-06
0.000111276
-8.08188e-07
-2.9887e-06
0.000103753
-2.07431e-06
-4.66979e-07
-1.54486e-06
-2.70197e-06
-1.76074e-06
-2.91104e-06
-3.4153e-05
1.68324e-06
1.4368e-06
-3.00848e-06
3.32333e-05
-1.48248e-05
1.05163e-06
-8.63233e-07
-5.50838e-07
1.47302e-05
4.57064e-07
1.06935e-05
2.75773e-06
6.54934e-05
-4.32033e-07
-4.06427e-07
-2.46654e-07
-4.73268e-07
2.80455e-06
2.61764e-06
2.70397e-06
-1.82178e-07
7.65255e-07
7.77123e-05
2.51036e-06