/*--------------------------------*- C++ -*----------------------------------*\
| =========                 |                                                 |
| \\      /  F ield         | OpenFOAM: The Open Source CFD Toolbox           |
|  \\    /   O peration     | Version:  5.x                                   |
|   \\  /    A nd           | Web:      www.OpenFOAM.org                      |
|    \\/     M anipulation  |                                                 |
\*---------------------------------------------------------------------------*/
FoamFile
{
    version     2.0;
    format      ascii;
    class       volScalarField;
    location    "0.5";
    object      Ksl;
}
// * * * * * * * * * * * * * * * * * * * * * * * * * * * * * * * * * * * * * //

dimensions      [1 -3 -1 0 0 0 0];

internalField   nonuniform List<scalar> 
10571
(
0
1192.37
1079.81
353.496
249.31
790.016
999.66
747.199
739.595
8757
0.813195
440.078
872.289
2749.05
5233.8
14885.8
835.042
1364.78
5490.72
9948.29
16062
12205.5
9371.96
16871.5
182.074
858.626
2069.89
2482.33
4460.05
909.324
5558.74
11136.9
13297.9
11743.5
168.388
487.431
9982
13118.8
11096.5
5957.88
4051.37
13180.7
12736.9
13709.9
1035.6
13178.4
7506.67
11804
4948.84
7044.33
8210.75
11360.9
13378.6
3817.76
12460.4
12035.8
3984.4
903.011
21.5367
3446.83
12897.2
9493.81
1034.99
64.5913
11198.8
8883.34
2807.92
846.864
151.067
4596.71
277.903
70.9978
14032.6
14018.5
13062.2
11174.7
3591.86
12727.7
6686.96
914.114
16.7947
32.6711
9962.01
12011.8
6177.92
441.076
69.4606
120.075
13023.4
764.381
45.5578
64.8369
124.478
47.9396
149.796
80.3089
-1.53359e-14
763.011
0.40957
39.1149
4.70957
5966.67
28.8628
12.7504
16.7128
9.6444
12637
11956.6
68.179
11.394
60.4522
83.0434
2633.13
21.7055
20.3683
28.7284
121.712
18.9357
99.744
80.602
23.8647
19.6863
-4.06806e-16
13.8711
8.58864
11.5712
4.66928
21.3758
19.7097
40.1357
6229.68
8206.55
72.3866
8.05533
15.7081
79.1195
76.3038
10481
16.4711
23.9876
45.8549
56.0009
79.5228
20.8628
96.8035
177.479
19.1454
85.3893
0
5.54027
16.4113
15.5745
8.75286
9.84203
25.8695
14.098
1.13042
50.2614
23.7371
12.7122
17.2871
72.2319
35.0588
6.93765
28.1837
46.5633
76.6335
92.5155
46.2209
0
-6.57063e-15
88.4571
156.824
32.0208
52.1202
0
5.9172
12.3219
0
6.53532
7.30973
41.4383
-7.45661e-15
2.2676
31.7928
9.11918
16.327
17.7016
64.7729
39.3772
-4.03193e-16
39.2951
31.5404
52.5339
39.5257
37.5657
0
7.15354
54.7852
74.5282
3.8194
29.23
0
-9.0073e-15
9.17473
34.0662
6.13882
11.9638
36.2163
-8.00604e-15
0
-4.68607e-15
4.65723
28.3303
21.2258
53.4484
23.4061
0
8.8805
13.3829
46.9082
31.3547
24.0597
7.5033
24.3687
29.144
38.7304
7.06455
0
0
0.192081
0
1.82086
20.6661
23.0034
12.9524
-4.54082e-15
0
16.0487
65.3263
35.3195
15.9841
4.85477
9.98825
43.9467
55.2952
21.4363
0
7.67481
17.0386
1.48685
0
0
0
21.392
0
0
15.6494
28.2354
34.9934
34.4945
18.9612
3.24028
48.7818
47.3411
13.2365
9.80463
11.4653
30.5899
26.2092
57.9787
-8.52712e-15
33.6831
27.0848
0
0
0
3.16787
16.7539
0
1.25318
16.2154
23.8836
13.5138
45.9874
12.4643
2.94614
21.5998
27.0472
12.8244
0
12.4798
20.3925
44.0328
15.9409
-3.85701e-15
8.26901
28.6642
21.4774
0
8.58484
7.1246
17.238
-8.66747e-15
0
18.5001
18.351
14.0828
14.2176
0
2.34291
23.6565
24.6428
19.5796
0
3.28778
24.6943
15.4532
8.28364
12.5952
17.5563
18.9901
0
0
1.08545
5.60013
21.4037
0
0
17.701
13.0955
13.076
15.4996
0
3.28435
31.7304
20.1304
10.5324
0
4.61931
20.8811
26.4127
-8.00966e-15
0
17.4997
9.50132
0
0
10.0152
6.40022
19.0845
0
1.75895
13.5934
5.93642
-4.88698e-15
0
0
2.55457
23.5686
16.7465
8.31082
0
2.30642
15.2974
11.758
6.85414
0
32.4635
9.65812
0
0
12.2236
3.88547
10.0321
0
2.00227
7.49476
9.22795
8.135
0
3.33262
1.41243
18.344
20.6226
4.79415
0
0
11.546
6.99691
8.61362
0
17.7791
25.7124
0
0
3.97213
9.95834
7.55566
0
0.835735
9.53195
9.16664
10.2376
0
0
2.741
19.1195
14.8035
8.563
0
0
8.3734
8.52297
0
0
5.99164
92.1725
0
0
27.3982
0
7.4514
0
0.679905
0.767451
10.2638
6.62024
0
0
1.38159
7.42501
15.4097
4.02174
0
1.43419
9.04069
10.3891
1.30811
0
22.267
34.3317
0
0
-7.72789e-16
0
0
0
117.033
7.37018
8.52802
8.93137
0
0
0.713556
1.40127
12.8309
8.79099
0
-1.3034e-16
12.681
41.614
-4.51663e-15
0
29.915
5.7599
0
0
0
0
4.82317
0
1.89065
4.54046
12.808
11.7586
0
0
0.923094
0.591763
5.21248
15.4211
0
2.18619
6.98487
4.37659
46.0838
0
12.4603
29.8415
0
0
0
0
0
0
0
2.59214
10.4782
11.1488
0
0
-6.14566e-16
2.46909
4.15735
1.21128
0
2.54709
5.27613
14.2408
7.90419
0
0
23.0388
0
0
0
0
0
0
0
3.77592
4.13278
5.75557
0
0
2.04181
3.0605
0.459576
-7.1206e-15
0
0.770931
6.71879
4.24558
19.5016
0
0
21.8162
0
0
0
0
0
0
0
4.36773
1.87367
10.9568
0
0
2.04628
0.609362
1.98581
16.0142
0
3.92572
1.52985
0
6.56076
0
0
-2.25736e-15
0
0
0
-1.19321e-15
0
0
0
4.69807
1.70203
17.5269
0
0
0
1.81161
3.71568
-3.7846e-15
0
-4.53104e-16
1.33796
0
5.09744
0
0
0
0
0
0
0
0.237533
0
0
5.70321
8.27126
3.2987
0
0
0
0
1.03506
0
0
0
0.698563
0
0
0
0
0
0
0
0
0
0
0
0
6.07446
16.8235
0
0
0
0
0.587018
0.513468
0
0
0
-7.6927e-18
10.0243
0
0
0
0
0
0
0
0
0
0
0
17.6098
30.0931
0
0
0
0
0.585712
0
0
0
0
0
0
0
0
0
0
0
0
0
0
0
0
0
0.819251
0.0186045
0
0
0
0
0
0
0
0
0
0
0
0
0
0
0
0
0
0
0
0
0
0
0
0
0
0
0
0
0
0
0
0
0
0
0
0
0
0
0
0
0
0
0
0
0
0
0
0
0
0
0
0
0
0
0
0
0
0
0
0
0
0
0
0
0
0
0
0
0
0
0
0
0
0
0
0
0
0
0
0
0
0
0
0
0
0
0
0
0
0
0
0
0
0
0
0
0
0
0
0
0
0
0
0
0
0
0
0
0
0
0
0
0
0
0
0
0
0
0
0
0
0
0
0
0
0
0
0
0
0
0
0
0
0
0
0
0
0
0
0
0
0
0
0
0
0
0
0
0
0
0
0
0
0
0
0
0
0
0
0
0
0
0
0
0
0
0
0
0
0
0
0
0
0
0
0
0
0
0
0
0
0
0
0
0
0
0
0
0
0
0
0
0
0
0
0
0
0
0
0
0
0
0
0
0
0
0
0
0
0
0
0
0
0
0
0
0
0
0
0
0
0
0
0
0
0
0
0
0
0
0
0
0
0
0
0
0
0
0
0
0
0
0
0
0
0
0
0
0
0
0
0
0
0
0
0
0
0
0
0
0
0
0
0
0
0
0
0
0
0
0
0
0
0
0
0
0
0
0
0
0
0
0
0
0
0
0
0
0
0
0
0
0
0
0
0
0
0
0
0
0
0
0
0
0
0
0
0
0
0
0
0
0
0
0
0
0
0
0
0
0
0
0
0
0
0
0
0
0
0
0
0
0
0
0
0
0
0
0
0
0
0
0
0
0
0
0
0
0
0
0
0
0
0
0
0
0
0
0
0
0
0
0
0
0
0
0
0
0
0
0
0
0
0
0
0
0
0
0
0
0
0
0
0
0
0
0
0
0
0
0
0
0
0
0
0
0
0
0
0
0
0
0
0
0
0
0
0
0
0
0
0
0
0
0
0
0
0
0
0
0
0
0
0
0
0
0
0
0
0
0
0
0
0
0
0
0
0
0
0
0
0
0
0
0
0
0
0
0
0
0
0
0
0
0
0
0
0
0
0
0
0
0
0
0
0
0
0
0
0
0
0
0
0
0
0
0
0
0
0
0
0
0
0
0
0
0
0
0
0
0
0
0
0
0
0
0
0
0
0
0
0
0
0
0
0
0
0
0
0
0
0
0
0
0
0
0
0
0
0
0
0
0
0
0
0
0
0
0
0
0
0
0
0
0
0
0
0
0
0
0
0
0
0
0
0
0
0
0
0
0
0
0
0
0
0
0
0
0
0
0
0
0
0
0
0
0
0
0
0
0
0
0
0
0
0
0
0
0
0
0
0
0
0
0
0
0
0
0
0
0
0
0
0
0
0
0
0
0
0
0
0
0
0
0
0
0
0
0
0
0
0
0
0
0
0
0
0
0
0
0
0
0
0
0
0
0
0
0
0
0
0
0
0
0
0
0
0
0
0
0
0
0
0
0
0
0
0
0
0
0
0
0
0
0
0
0
0
0
0
0
0
0
0
0
0
0
0
0
0
0
0
0
0
0
0
0
0
0
0
0
0
0
0
0
0
0
0
0
0
0
0
0
0
0
0
0
0
0
0
0
0
0
0
0
0
0
0
0
0
0
0
0
0
0
0
0
0
0
0
0
0
0
0
0
0
0
0
0
0
0
0
0
0
0
0
0
0
0
0
0
0
0
0
0
0
0
0
0
0
0
0
0
0
0
0
0
0
0
0
0
0
0
0
0
0
0
0
0
0
0
0
0
0
0
0
0
0
0
0
0
0
0
0
0
0
0
0
0
0
0
0
0
0
0
0
0
0
0
0
0
0
0
0
0
0
0
0
0
0
0
0
0
0
0
0
0
0
0
0
0
0
0
0
0
0
0
0
0
0
0
0
0
0
0
0
0
0
0
0
0
0
0
0
0
0
0
0
0
0
0
0
0
0
0
0
0
0
0
0
0
0
0
0
0
0
0
0
0
0
0
0
0
0
0
0
0
0
0
0
0
0
0
0
0
0
0
0
0
0
0
0
0
0
0
0
0
0
0
0
0
0
0
0
0
0
0
0
0
0
0
0
0
0
0
0
0
0
0
0
0
0
0
0
0
0
0
0
0
0
0
0
0
0
0
0
0
0
0
0
0
0
0
0
0
0
0
0
0
0
0
0
0
0
0
0
0
0
0
0
0
0
0
0
0
0
0
0
0
0
0
0
0
0
0
0
0
0
0
0
0
0
0
0
0
0
0
0
0
0
0
0
0
0
0
0
0
0
0
0
0
0
0
0
0
0
0
0
0
0
0
0
0
0
0
0
0
0
0
0
0
0
0
0
0
0
0
0
0
0
0
0
0
0
0
0
0
0
0
0
0
0
0
0
0
0
0
0
0
0
0
0
0
0
0
0
0
0
0
0
0
0
0
0
0
0
0
0
0
0
0
0
0
0
0
0
0
0
0
0
0
0
0
0
0
0
0
0
0
0
0
0
0
0
0
0
0
0
0
0
0
0
0
0
0
0
0
0
0
0
0
0
0
0
0
0
0
0
0
0
0
0
0
0
0
0
0
0
0
0
0
0
0
0
0
0
0
0
0
0
0
0
0
0
0
0
0
0
0
0
0
0
2074.61
1351.75
1094.95
1741.3
2501.91
1556.28
828.873
2932.35
2056.63
5174.14
1985.82
1580.97
1806.29
1919.38
883.782
1979.85
652.43
813.129
641.289
1132.8
680.426
415.863
1334.26
100.881
569.447
2415.98
554.772
668.374
617.354
938.594
697.163
661.38
314.644
2230.75
853.802
576.32
2307.87
965.465
1172.24
1164.18
1216.45
170.597
418.571
1460.75
2583.79
2473.86
4496.93
6612.17
1042.47
483.696
712.749
851.718
2269.11
2121.8
1953.23
934.002
2165.71
1072.37
2993.95
2145.23
1492.94
2446.36
2813.58
3635.41
6918.38
5072.41
9561.44
11517.3
11662.7
14017.5
2753.77
2236.17
1831.81
2431.54
2211.9
1275.53
2971.99
3867.59
6869.59
3878.83
4797.54
8347.13
9074.38
7881.19
13385.5
12836.9
14123.1
15079.7
4002.01
5833.2
7185.75
8187.43
12329.2
13185
12791
14490.8
1106.97
912.914
0
415.686
298.841
336.888
259.665
991.53
203.816
125.231
53.4105
597.377
452.645
248.753
657.914
1000.72
1755.03
1974.84
921.596
2097.58
2249.15
1080.79
1275.74
1076.21
452.878
256.123
805.025
454.102
1143.93
860.176
4742.88
3771.29
12255
206.79
0
95.1223
433.66
0
149.421
12842.2
12496.7
12625.9
14497.8
11918.8
69.6947
4.35565
10.8215
54.4641
0.909614
12922.5
14199.1
12825.8
10208.1
10214.9
-1.36546e-16
33.0348
2022.7
823.202
3207.93
2143.75
5066.49
3693.86
9134.44
15151.2
14313.5
16679.2
14612.3
14762.3
14634.9
15049
9550.79
7324.56
12700.9
8572.75
6129.78
13726.6
10441.3
3475.17
14261.8
9886.1
10347.9
13950.9
3482.04
15164.5
1344.77
3738.05
724.17
1290.24
1292.81
2480.8
2860.01
3090.34
687.628
1234.07
413.055
1370.91
3989.08
4125.87
10151.1
404.211
2179.59
1351.06
735.963
1312.82
3943.72
3677.83
2419.38
2955.48
7930.07
7339.54
12770.7
11124.1
13430.6
12937.4
14353.9
13800.7
12664.1
528.029
295.997
409.841
1145.8
352.422
866.224
11529.8
6835.62
8484.3
2532.62
336.5
86.464
15.3734
56.9729
111.92
144.061
2001.43
2388.03
657.749
79.8169
162.45
441.999
3008.91
8818.39
7739.26
11942.2
7548.14
11932.2
11403.1
13341.6
7808.87
12587.2
7994.84
8511.63
1014.23
3535.02
430.144
250.979
14458.7
14557.7
8249.97
924.1
10722.1
5570.17
261.348
10958.4
909.047
1584.99
1761.29
289.332
885.362
8295.64
13638.4
7607.86
8041.31
9285.92
13392.1
12696.7
13186.1
7976.3
9873.19
12831.3
12949.9
12780.6
13262.6
12809.7
4311.96
10036.2
8367.26
5306.6
6983.98
12332.2
12481.7
11466.7
12019.6
13347.3
14212.2
12158.5
12468.2
8754.93
8979.24
1963.39
5739.39
148.322
3536.85
1048.35
2686.67
9276.56
5497.95
7745.12
65.7774
-1.92033e-14
13.1912
57.0543
81.9243
535.415
1414.29
2870.14
5691.01
7525.27
20.8166
111.255
99.0934
32.5153
122.41
8305.8
12573.5
13255.9
13505.6
13645.1
12629.2
13391.3
14189.4
12435.8
135.628
136.058
103.619
46.719
151.687
98.1189
146.717
83.677
13614.2
6081.01
713.054
152.271
623.544
52.9764
40.2945
133.268
268.21
128.833
48.7825
350.585
112.43
15027
6723.31
13092.3
12761.1
13041.7
3779.66
5255.57
3251.51
12782.9
11684.7
4086.99
1609.49
1359.03
10654.3
553.198
13518
13624
13045.3
13393.8
13373.3
12085.1
8117.02
12462.2
10620
793.599
422.865
20.4824
30.0223
11.1109
3.88166
0.15587
42.0403
15.9115
12173.6
10752.5
11785.3
12574.3
12902.9
12479.6
51.9189
79.9645
28.2568
75.5969
145.451
10655.7
11961.6
13110.7
12421.8
12487.9
1.53398
117.665
56.1909
90.7193
55.2155
14042.8
13414.7
12383.1
13252.8
6076.11
12241.5
5422.41
4343.83
502.524
200.088
102.215
179.602
46.8021
145.858
115.692
84.3177
119.325
640.801
29.1197
26.9975
34.8863
36.673
24.6167
-3.08715e-14
126.81
143.787
74.1162
148.372
163.567
139.1
105.618
30.8786
0
10.7341
2.45441
0
0
10.4923
13.8998
52.7554
35.9542
3.59421
2.52788
22.4305
10.824
7663.29
125.662
265.824
2814.59
444.361
50.0565
45.8341
16.0325
3.83445
5.14852
7.20338
10.2986
9.62595
0.295904
5.18389
9.32579
56.7213
0.494375
10833.3
12744.6
12001.3
1410.72
11463.6
8394.3
50.9867
55.7901
63.055
66.593
187.776
11947.5
12024.4
11359.4
11113.3
5459.93
-1.87006e-14
81.9856
43.3551
222.61
50.2278
9973.88
538.476
208.672
161.035
32.5243
44.8159
10.9201
44.7414
17.8484
106.657
147.18
107.241
120.477
99.9472
159.315
128.472
75.3246
-1.03926e-14
0
27.9203
0
14.6116
41.1996
33.2064
50.0565
82.7315
82.0538
102.803
78.9394
145.638
11.0555
6.57487
19.3123
0
-4.76782e-15
39.0606
0
0.375122
10.8174
18.1882
7.83781
9.61059
7.47505
1.69405
15.2374
28.0577
14.0399
20.1892
20.3883
30.7719
70.6955
1.61492
20.6289
16.7032
0
11.6611
-5.53492e-15
32.5823
5.43564
5.27146
17.3709
17.3044
0
26.0019
5444.81
690.79
5.05393
200.98
25.6397
342.289
34.0869
1005.74
7.55688
21.0987
35.8885
19.3593
12014.2
9272.8
20607.3
57.8928
360.905
166.976
941.952
1729.21
151.574
507.134
81.186
35.8927
986.669
64.2084
128.186
27.8751
15.3547
56.9846
16.5648
18202
3860.61
22899.2
176.96
982.395
51.6728
378.516
9.91124
23.8872
20.2154
30.1103
5.92869
19.9888
26.8457
17.3774
8.46824
63.3537
109.158
109.824
114.909
97.0519
83.1906
59.2752
69.4555
19.6458
-1.13525e-14
36.2347
-3.15471e-14
14.1846
22.6713
29.6258
74.7637
92.9989
19.1037
63.2859
66.7524
129.715
0
0
37.8439
0
10.31
-1.13816e-14
0
23.8794
4.19213
15.5053
13.9126
10.2361
28.2259
24.675
10.1074
10.8758
2.13118
4.99132
12.3446
3.90885
55.125
7.87854
18.7534
15.3965
22.1872
16.9881
15.9768
4.85131
20.7577
15.0964
4.80754
0
0
15.7504
0
0
0
0
0
4.27799
25.7288
42.8397
58.2932
165.481
75.8444
4.23094
23.3813
0.277787
18.9388
5.97787
37.8512
0
-6.10099e-16
0
0
0.75104
2.31666
0
0
42.0191
13.5383
111.268
103.613
39.8398
35.1966
65.5769
4.22111
22.8551
1.31534
30.9689
0
0
1.93975
-1.28059e-15
0
2.91422
2.36095
0
45.4913
120.426
26.2212
63.5556
15.0009
41.2084
19.3296
16.7029
0.103307
59.791
119.384
31.8584
70.0693
62.0463
97.34
49.3357
27.4961
16.3242
-7.6521e-15
0
0
0
-3.42143e-16
0
16.6463
0
12.3294
20.9866
30.8438
154.543
61.9746
65.2064
70.4843
35.4316
46.4984
10.0224
0
23.4406
16.9686
5.13847
39.8947
6.39395
0
15.2101
13.6123
2.32441
5.87711
18.6881
18.7992
-4.05301e-15
27.4784
45.0655
7.0609
18.7135
-9.33774e-16
0.426369
7.86207
37.1304
5.21553
-8.49377e-15
11.5048
4.44555
3.30398
7.08223
11.6309
11.727
7.20865
0
9.58814
0
0
0
0
0
18.7289
144.653
25.8258
20.1894
79.3862
24.0079
6.0226
30.274
18.9626
21.2948
0.281703
27.97
5.12814
0
2.11393
0
1.57079
2.50016
1.61327
0
29.5903
36.0058
49.4297
10.4922
4.5687
10.7821
44.8054
7.60569
39.4515
5.7483
23.4206
0.427856
2.76097
3.04423
0.603515
0
0
0
1.14448
112.329
6.0675
52.0988
8.24188
5.95114
14.628
6.85118
1.4407
20.1288
53.0843
26.8766
22.925
27.8212
33.8301
29.2509
62.9905
8.00145
13.6067
0
0.243752
0
-3.2327e-16
0
14.9202
22.9879
1.7639
8.08288
12.7872
31.5137
56.9168
33.456
29.8526
19.951
-2.93696e-14
24.3272
0
10.2273
5.98549
-5.48529e-15
0
38.1101
0
21.6359
13.6164
-1.22846e-14
0
3.53286
9.19054
22.9663
35.5868
54.9275
34.7628
5.09215
22.8121
0
13.7164
12.5777
9.02006
0
16.5534
58.3921
6.45019
10.6468
-9.77877e-15
27.3012
26.2457
0
0
7.15235
12.8261
15.451
20.9428
13.1849
15.5606
0
33.5593
13.4051
0
0
20.4991
-5.22936e-15
0
0
0
0
0
0
0
11.5312
13.6563
44.2369
12.3439
5.00607
-4.76754e-15
36.4127
17.418
8.43124
6.0302
7.84987
-8.68116e-16
1.89405
0
0
0
0
0
0
9.45098
15.4035
-1.29257e-16
0
-6.82064e-15
17.2984
6.74484
2.05887
0
57.6692
33.7644
26.4834
46.1667
50.4612
53.7152
43.2618
11.031
0
0
9.23418
6.65485
-1.30463e-15
9.91602
0
34.0844
0
43.5664
26.6953
3.49057
33.7779
-3.00654e-15
0
18.2784
0
25.6341
0
6.36866
15.8747
7.36689
23.8642
-1.71568e-14
-4.90113e-15
14.4929
8.63476
38.8153
41.5401
13.2374
12.5122
-7.98718e-17
0
0
-6.7692e-15
1.88688
0
11.6165
0.434942
30.1127
6.50397
-7.17794e-15
26.426
35.6538
0
0
47.2669
37.1524
34.831
6.35506
55.2454
42.074
14.0098
22.2586
-8.00657e-15
15.7144
20.274
7.31096
25.8149
39.5992
11.161
27.1659
23.8875
80.3978
28.5815
44.5073
50.2096
44.0643
10.2724
8.40718
2.3637
5.98058
4.79747
0
0
0
24.25
8.98444
8.92453
44.4088
32.0115
20.6668
20.2405
19.2952
0
0
7.20355
0
12.6771
23.2517
0
28.5229
32.9678
8.55943
-1.16651e-14
0
0
19.7899
-9.61581e-15
0
-1.85133e-16
20.6962
0
0
21.2618
9.67149
17.857
0
-1.03077e-14
14.8442
64.71
38.8672
151.331
-1.52534e-14
12.2809
3.53792
0
0
2.98034
6.16909
0
37.3837
21.7156
16.776
12.1252
12.7294
35.9529
4.49187
16.9178
-1.44612e-14
14.8082
41.7578
20.5666
14.4446
20.7356
27.2788
25.0685
19.2023
-1.50509e-14
6.28693
0
16.4365
16.6821
45.6207
28.4593
-4.55781e-15
-2.16722e-14
33.1237
31.2496
34.2161
15.2086
18.8055
0.322454
0
0
0
1.04431
0
0
0.240797
40.1686
20.1049
5.10313
23.9138
20.1739
36.8991
26.2966
17.5103
0
0
15.1688
0
10.8012
7.87019
0
0
2.06112
17.3383
16.2785
24.3106
11.279
7.23356
7.43767
0
0
3.57952
0
0
12.9921
9.62571
-6.98104e-15
0
19.9327
7.39698
28.5363
16.1549
0
0
0
3.63972
0
0
0
0
0
26.8453
23.5374
15.6228
30.2188
5.14748
19.366
15.0717
16.06
15.7027
0
37.7494
4.29154
20.2909
30.6298
22.0415
13.2763
39.0196
18.0806
24.3248
-1.65209e-14
44.0864
5.52099
24.5374
14.9757
11.6544
18.5397
22.2979
10.8921
20.6001
19.7753
0
0
0
0
0
0
0
0
0
37.2234
20.3649
27.8847
31.8304
22.404
18.0522
16.9342
9.65521
0
0
14.8069
0
0
13.9672
55.4779
22.6249
0
25.8953
12.6144
0
7.16948
0
0
0
9.27678
5.80486
0
-6.39099e-15
17.5795
4.2231
22.4771
0
11.0993
-8.54033e-15
22.9045
18.5394
0
0
4.88252
0
0
0
4.91306
0
0
20.5775
13.3092
20.2546
14.7207
24.714
24.0429
2.30376
-1.38268e-14
15.7781
22.1307
28.472
5.76506
0.183327
-1.38938e-14
8.85958
11.073
31.228
14.4876
3.32638
21.12
15.9195
-1.04301e-14
0
0
0
18.3089
22.8351
12.7345
13.3274
35.2852
0
0
0
0
0
0
0
0
0
13.6322
7.61266
6.27311
31.9779
22.2015
14.697
22.7829
10.2867
0
0
13.9478
-2.29999e-14
-7.83236e-15
11.1058
0
10.9128
37.2242
0.823967
26.5322
-1.74254e-14
0
0
0
0
6.41804
5.98757
0
2.20322
-5.29054e-15
7.51781
12.3878
0
-5.43421e-15
7.98062
14.912
20.27
0
0
0
0
0
0
0
0
0
35.8635
20.4343
19.0898
4.5038
36.8355
11.2746
20.0155
31.1323
-2.59097e-14
0
0
4.25551
0
0
0
2.04177
12.2136
12.7425
22.2029
0
0
0
0
0
0
-1.26261e-14
-1.08487e-14
12.6359
0
70.678
0
0
0
0
0
0
0
0
0
20.0203
9.69697
4.34496
27.6606
10.4015
8.71092
13.2026
25.9758
0
0
18.8162
0
0
4.84083
23.8651
-1.43196e-14
5.30676
37.9033
8.16743
1.26026
8.88421
0
0
0
0
0
0
0
0
0.610135
17.5711
0
12.6573
-1.17461e-14
6.11688
28.3786
0
0
0
0
0
0
5.16563
0
0
19.0065
6.56857
21.0279
0.325294
25.9178
6.63312
21.5361
12.1705
-9.62515e-15
0
0
0
0
0
0
6.61901
9.93931
16.5863
9.54314
13.3585
0
0
0
0
0
6.50931
2.65915
18.6306
55.8564
8.78527
0
0
0
0
0
0
0
0
0
20.5388
7.12554
6.483
4.69882
4.74003
11.0978
-5.85588e-15
8.9873
0
0
5.51033
1.39314
0
15.8203
21.3797
-4.33248e-15
42.8958
19.1125
19.5952
60.1299
9.79095
0
0
0
0
0
0
0
0
4.93574
0.387629
0
-3.56842e-15
15.6259
5.87395
-4.45402e-15
0
0
0
5.26491
0
0
5.28637
0
0
60.6844
0
4.21536
6.31863
33.8977
0
7.83693
0
0
0
0
0
0
0
0
10.6365
0
11.4778
14.5001
1.94687
0
0
0
0
0
3.92927
7.35468
4.02605
0
6.12379
0
0
0
0
0
0
0
0
0
10.1936
11.0164
6.68128
11.0733
12.9707
9.64861
6.62275
-2.64776e-15
0
0
9.87993
18.2611
0
0
2.88254
12.2799
99.6407
13.483
31.6413
28.0002
-1.43601e-14
0
0
0
0
0
0
0
7.8007
9.21397
-6.69737e-15
0
-5.11746e-15
9.3512
8.44637
-4.03828e-15
0
0
5.31688
0
5.94461
0
0
0
1.96796
-1.13046e-14
0
4.60386
5.42548
0
0
3.12614
17.8754
12.646
0
0
0
0
0
0
9.20338
13.2779
10.6625
0.523173
0
0
0
0
0
0
175.691
24.1472
8.28353
14.0428
19.4733
0
0
0
0
0
0
0
0
0
7.31975
5.07909
6.38316
19.6576
11.6775
11.5587
-5.74611e-15
8.35453
0
0
4.67451
70.412
0
0
-1.29266e-14
29.6924
36.6079
28.0659
26.189
8.05182
13.0745
0
0
0
0
-3.01826e-15
0
0
0
0
10.6758
0
0
-9.8105e-16
0
0
0
0
8.25943
0
0
0
0.307589
0
6.17586
0
0
5.93648
8.08422
5.5102
0
24.1253
10.3724
12.5014
0
0
0
0
0
0
11.5842
0
0
7.75239
47.8974
0
0
0
0
0
-1.25012e-14
7.03477
15.164
14.0215
15.2828
0
0
0
0
0
0
0
0
0
18.2599
7.79477
6.27625
13.5675
10.9798
7.44525
3.86508
7.78861
0
0
8.9917
0
0
9.1377
0
50.5599
0
13.0103
32.7549
0
1.94841
0
0
0
0
0
0
0
0
0
0
0
0
0
0
0
0
0
0
0
17.4931
0
0
0
10.2664
-4.08991e-15
5.26019
0.149679
0
8.39776
4.04974
0
10.8285
-3.38108e-15
0
0
0
0
0
0
4.61641
-1.46756e-14
7.84652
8.90826
0
0
0
0
0
0
0
13.7049
20.0809
0
24.8524
0
0
0
0
0
0
0
0
0
4.86415
10.0863
0
13.0032
10.1643
14.9826
0
0
0
0
9.33602
0
0
8.5107
0
33.4465
0
3.99616
16.3943
0
11.532
0
0
0
0
0
0
0
0
0
0
0
0
0
0
0
0
0
0
0
5.51594
0
0
0
0
14.4955
0
2.62373
0
-6.76739e-15
0
7.86154
10.0325
3.47639
0
0
0
0
0
0
4.64255
0
5.81925
5.49838
0
0
0
0
0
0
0
9.91291
4.88575
0
19.254
0
0
0
0
0
0
0
0
0
6.20426
4.40583
6.67522
12.9471
3.65293
3.70959
-2.06191e-15
-7.19472e-15
0
0
4.00911
0
0
0
0
7.68564
0
-3.28503e-15
0.520469
0
8.98397
0
0
0
0
0
0
0
0
0
0
0
0
0
0
0
0
0
0
0
0
0
0
0
0
0
0
11.6966
0
19.62
0
10.0498
0
0
0
0
0
0
0
0
-1.49961e-15
0
0
14.4748
0
0
0
0
0
0
25.319
26.0408
12.6474
-8.62884e-15
26.1553
0
0
0
0
0
0
0
0
0
1.33227
6.60242
0
6.69834
19.2471
10.6315
0.980701
22.9066
0
0
0
0
0
0
0
-5.09505e-16
0
0
0
0
7.12309
0
0
0
0
0
0
0
0
0
0
0
0
0
0
0
0
0
0
0
0
0
0
0
0
-6.93975e-15
8.10341
4.25513
0
0
0
6.96067
0
0
0
0
0
0
0
0
7.33899
0
9.59361
25.0633
0
0
0
0
0
0
0
16.971
7.64784
0
8.74263
0
0
0
0
0
0
0
0
0
3.04639
0.17495
0
-3.45098e-15
6.92636
7.85765
0
18.6976
0
0
0
0
0
0
0
0
0
0
0
0
7.12748
0
0
0
0
0
0
0
0
0
0
0
0
0
0
0
0
0
0
0
0
0
0
0
0
0
4.78167
13.9296
0
7.67652
0
3.52359
10.0461
11.1602
0
0
0
0
0
0
20.1267
30.8876
18.9185
24.0226
49.4224
0
0
0
0
0
15.0301
-1.0036e-15
10.8343
16.0961
4.2783
0
0
0
0
0
0
0
0
0
-4.71742e-15
8.9403
6.1886
0
5.55
0
19.6139
15.6379
0
0
0
0
0
0
0
0
0
0
0
0
0
0
0
0
0
0
0
0
0
0
0
0
0
0
0
0
0
0
0
0
0
0
0
0
0
0
0
3.86327
0
0
0
6.79034
17.8736
16.2232
0
0
0
0
0
0
3.99508
115.355
25.1474
31.8838
89.8608
0
0
0
0
0
1.26961
0
0
0
0
0
0
0
0
0
0
0
0
0
6.31928
0
-5.20418e-15
0
3.07876
6.64141
0
0
0
0
0
0
0
0
0
0
0
0
0
0
0
0
0
0
0
0
0
0
0
0
0
0
0
0
0
0
0
0
0
0
0
0
0
0
0
2.68091
-1.27181e-15
10.408
0
0
4.79229
4.01375
3.38501
0
0
0
0
0
0
0
55.4955
-5.22543e-15
6.84837
32.619
0
0
0
0
0
0
0
0
0
0
0
0
0
0
0
0
0
0
0
0
5.84325
-1.04066e-15
11.6
7.09128
0
5.22346
-4.88549e-15
0
0
0
0
0
0
0
0
0
0
0
0
0
0
0
0
0
0
0
0
0
0
0
0
0
0
0
0
0
0
0
0
0
0
0
0
0
0
0
0
-2.35092e-15
0
0
0.421692
3.99719
0
0
0
0
0
0
0
0
0
0
0
0
0
0
0
0
0
0
0
0
0
0
0
0
0
0
0
0
0
0
0
0
2.57374
-2.30233e-16
0
-1.21344e-15
0
0
0
0
0
0
0
0
0
0
0
0
0
0
0
0
0
0
0
0
0
0
0
0
0
0
0
0
0
0
0
0
0
0
0
0
0
0
0
0
0
0
0
0
0
0
0
3.9985
0
0
0
0
0
0
0
0
0
0
0
0
0
0
0
0
0
0
0
0
0
0
0
0
0
0
0
0
0
0
0
0
0
0
0
0
0
0
0
0
0
0
0
0
0
0
0
0
0
0
0
0
0
0
0
0
0
0
0
0
0
0
0
0
0
0
0
0
0
0
0
0
0
0
0
0
0
0
0
0
0
0
0
0
0
0
0
0
0
0
0
0
0
0
0
0
0
0
0
0
0
0
0
0
0
0
0
0
0
0
0
0
0
0
0
0
0
0
0
0
0
0
0
0
0
0
0
0
0
0
0
0
0
0
0
0
0
0
0
0
0
0
0
0
0
0
0
0
0
0
0
0
0
0
0
0
0
0
0
0
0
0
0
0
0
0
0
0
0
0
0
0
0
0
0
0
0
0
0
0
0
0
0
0
0
0
0
0
0
0
0
0
0
0
0
0
0
0
0
0
0
0
0
0
0
0
0
0
0
0
0
0
0
0
0
0
0
0
0
0
0
0
0
0
0
0
0
0
0
0
0
0
0
0
0
0
0
0
0
0
0
0
0
0
0
0
0
0
0
0
0
0
0
0
0
0
0
0
0
0
0
0
0
0
0
0
0
0
0
0
0
0
0
0
0
0
0
0
0
0
0
0
0
0
0
0
0
0
0
0
0
0
0
0
0
0
0
0
0
0
0
0
0
0
0
0
0
0
0
0
0
0
0
0
0
0
0
0
0
0
0
0
0
0
0
0
0
0
0
0
0
0
0
0
0
0
0
0
0
0
0
0
0
0
0
0
0
0
0
0
0
0
0
0
0
0
0
0
0
0
0
0
0
0
0
0
0
0
0
0
0
0
0
0
0
0
0
0
0
0
0
0
0
0
0
0
0
0
0
0
0
0
0
0
0
0
0
0
0
0
0
0
0
0
0
0
0
0
0
0
0
0
0
0
0
0
0
0
0
0
0
0
0
0
0
0
0
0
0
0
0
0
0
0
0
0
0
0
0
0
0
0
0
0
0
0
0
0
0
0
0
0
0
0
0
0
0
0
0
0
0
0
0
0
0
0
0
0
0
0
0
0
0
0
0
0
0
0
0
0
0
0
0
0
0
0
0
0
0
0
0
0
0
0
0
0
0
0
0
0
0
0
0
0
0
0
0
0
0
0
0
0
0
0
0
0
0
0
0
0
0
0
0
0
0
0
0
0
0
0
0
0
0
0
0
0
0
0
0
0
0
0
0
0
0
0
0
0
0
0
0
0
0
0
0
0
0
0
0
0
0
0
0
0
0
0
0
0
0
0
0
0
0
0
0
0
0
0
0
0
0
0
0
0
0
0
0
0
0
0
0
0
0
0
0
0
0
0
0
0
0
0
0
0
0
0
0
0
0
0
0
0
0
0
0
0
0
0
0
0
0
0
0
0
0
0
0
0
0
0
0
0
0
0
0
0
0
0
0
0
0
0
0
0
0
0
0
0
0
0
0
0
0
0
0
0
0
0
0
0
0
0
0
0
0
0
0
0
0
0
0
0
0
0
0
0
0
0
0
0
0
0
0
0
0
0
0
0
0
0
0
0
0
0
0
0
0
0
0
0
0
0
0
0
0
0
0
0
0
0
0
0
0
0
0
0
0
0
0
0
0
0
0
0
0
0
0
0
0
0
0
0
0
0
0
0
0
0
0
0
0
0
0
0
0
0
0
0
0
0
0
0
0
0
0
0
0
0
0
0
0
0
0
0
0
0
0
0
0
0
0
0
0
0
0
0
0
0
0
0
0
0
0
0
0
0
0
0
0
0
0
0
0
0
0
0
0
0
0
0
0
0
0
0
0
0
0
0
0
0
0
0
0
0
0
0
0
0
0
0
0
0
0
0
0
0
0
0
0
0
0
0
0
0
0
0
0
0
0
0
0
0
0
0
0
0
0
0
0
0
0
0
0
0
0
0
0
0
0
0
0
0
0
0
0
0
0
0
0
0
0
0
0
0
0
0
0
0
0
0
0
0
0
0
0
0
0
0
0
0
0
0
0
0
0
0
0
0
0
0
0
0
0
0
0
0
0
0
0
0
0
0
0
0
0
0
0
0
0
0
0
0
0
0
0
0
0
0
0
0
0
0
0
0
0
0
0
0
0
0
0
0
0
0
0
0
0
0
0
0
0
0
0
0
0
0
0
0
0
0
0
0
0
0
0
0
0
0
0
0
0
0
0
0
0
0
0
0
0
0
0
0
0
0
0
0
0
0
0
0
0
0
0
0
0
0
0
0
0
0
0
0
0
0
0
0
0
0
0
0
0
0
0
0
0
0
0
0
0
0
0
0
0
0
0
0
0
0
0
0
0
0
0
0
0
0
0
0
0
0
0
0
0
0
0
0
0
0
0
0
0
0
0
0
0
0
0
0
0
0
0
0
0
0
0
0
0
0
0
0
0
0
0
0
0
0
0
0
0
0
0
0
0
0
0
0
0
0
0
0
0
0
0
0
0
0
0
0
0
0
0
0
0
0
0
0
0
0
0
0
0
0
0
0
0
0
0
0
0
0
0
0
0
0
0
0
0
0
0
0
0
0
0
0
0
0
0
0
0
0
0
0
0
0
0
0
0
0
0
0
0
0
0
0
0
0
0
0
0
0
0
0
0
0
0
0
0
0
0
0
0
0
0
0
0
0
0
0
0
0
0
0
0
0
0
0
0
0
0
0
0
0
0
0
0
0
0
0
0
0
0
0
0
0
0
0
0
0
0
0
0
0
0
0
0
0
0
0
0
0
0
0
0
0
0
0
0
0
0
0
0
0
0
0
0
0
0
0
0
0
0
0
0
0
0
0
0
0
0
0
0
0
0
0
0
0
0
0
0
0
0
0
0
0
0
0
0
0
0
0
0
0
0
0
0
0
0
0
0
0
0
0
0
0
0
0
0
0
0
0
0
0
0
0
0
0
0
0
0
0
0
0
0
0
0
0
0
0
0
0
0
0
0
0
0
0
0
0
0
0
0
0
0
0
0
0
0
0
0
0
0
0
0
0
0
0
0
0
0
0
0
0
0
0
0
0
0
0
0
0
0
0
0
0
0
0
0
0
0
0
0
0
0
0
0
0
0
0
0
0
0
0
0
0
0
0
0
0
0
0
0
0
0
0
0
0
0
0
0
0
0
0
0
0
0
0
0
0
0
0
0
0
0
0
0
0
0
0
0
0
0
0
0
0
0
0
0
0
0
0
0
0
0
0
0
0
0
0
0
0
0
0
0
0
0
0
0
0
0
0
0
0
0
0
0
0
0
0
0
0
0
0
0
0
0
0
0
0
0
0
0
0
0
0
0
0
0
0
0
0
0
0
0
0
0
0
0
0
0
0
0
0
0
0
0
0
0
0
0
0
0
0
0
0
0
0
0
0
0
0
0
0
0
0
0
0
0
0
0
0
0
0
0
0
0
0
0
0
0
0
0
0
0
0
0
0
0
0
0
0
0
0
0
0
0
0
0
0
0
0
0
0
0
0
0
0
0
0
0
0
0
0
0
0
0
0
0
0
0
0
0
0
0
0
0
0
0
0
0
0
0
0
0
0
0
0
0
0
0
0
0
0
0
0
0
0
0
0
0
0
0
0
0
0
0
0
0
0
0
0
0
0
0
0
0
0
0
0
0
0
0
0
0
0
0
0
0
0
0
0
0
0
0
0
0
0
0
0
0
0
0
0
0
0
0
0
0
0
0
0
0
0
0
0
0
0
0
0
0
0
0
0
0
0
0
0
0
0
0
0
0
0
0
0
0
0
0
0
0
0
0
0
0
0
0
0
0
0
0
0
0
0
0
0
0
0
0
0
0
0
0
0
0
0
0
0
0
0
0
0
0
0
0
0
0
0
0
0
0
0
0
0
0
0
0
0
0
0
0
0
0
0
0
0
0
0
0
0
0
0
0
0
0
0
0
0
0
0
0
0
0
0
0
0
0
0
0
0
0
0
0
0
0
0
0
0
0
0
0
0
0
0
0
0
0
0
0
0
0
0
0
0
0
0
0
0
0
0
0
0
0
0
0
0
0
0
0
0
0
0
0
0
0
0
0
0
0
0
0
0
0
0
0
0
0
0
0
0
0
0
0
0
0
0
0
0
0
0
0
0
0
0
0
0
0
0
0
0
0
0
0
0
0
0
0
0
0
0
0
0
0
0
0
0
0
0
0
0
0
0
0
0
0
0
0
0
0
0
0
0
0
0
0
0
0
0
0
0
0
0
0
0
0
0
0
0
0
0
0
0
0
0
0
0
0
0
0
0
0
0
0
0
0
0
0
0
0
0
0
0
0
0
0
0
0
0
0
0
0
0
0
0
0
0
0
0
0
0
0
0
0
0
0
0
0
0
0
0
0
0
0
0
0
0
0
0
0
0
0
0
0
0
0
0
0
0
0
0
0
0
0
0
0
0
0
0
0
0
0
0
0
0
0
0
0
0
0
0
0
0
0
0
0
0
0
0
0
0
0
0
0
0
0
0
0
0
0
0
0
0
0
0
0
0
0
0
0
0
0
0
0
0
0
0
0
0
0
0
0
0
0
0
0
0
0
0
0
0
0
0
0
0
0
0
0
0
0
0
0
0
0
0
0
0
0
0
0
0
0
0
0
0
0
0
0
0
0
0
0
0
0
0
0
0
0
0
0
0
0
0
0
0
0
0
0
0
0
0
0
0
0
0
0
0
0
0
0
0
0
0
0
0
0
0
0
0
0
0
0
0
0
0
0
0
0
0
0
0
0
0
0
0
0
0
0
0
0
0
0
0
0
0
0
0
0
0
0
0
0
0
0
0
0
0
0
0
0
0
0
0
0
0
0
0
0
0
0
0
0
0
0
0
0
0
0
0
0
0
0
0
0
0
0
0
0
0
0
0
0
0
0
0
0
0
0
0
0
0
0
0
0
0
0
0
0
0
0
0
0
0
0
0
0
0
0
0
0
0
0
0
0
0
0
0
0
0
0
0
0
0
0
0
0
0
0
0
0
0
0
0
0
0
0
0
0
0
0
0
0
0
0
0
0
0
0
0
0
0
0
0
0
0
0
0
0
0
0
0
0
0
0
0
0
0
0
0
0
0
0
0
0
0
0
0
0
0
0
0
0
0
0
0
0
0
0
0
0
0
0
0
0
0
0
0
0
0
0
0
0
0
0
0
0
0
0
0
0
0
0
0
0
0
0
0
0
0
0
0
0
0
0
0
0
0
0
0
0
0
0
0
0
0
0
0
0
0
0
0
0
0
0
0
0
0
0
0
0
0
0
0
0
0
0
0
0
0
0
0
0
0
0
0
0
0
0
0
0
0
0
0
0
0
0
0
0
0
0
0
0
0
0
0
0
0
0
0
0
0
0
0
0
0
0
0
0
0
0
0
0
0
0
0
0
0
0
0
0
0
0
0
0
0
0
0
0
0
0
0
0
0
0
0
0
0
0
0
0
0
0
0
0
0
0
0
0
0
0
0
0
0
0
0
0
0
0
0
0
0
0
0
0
0
0
0
0
0
0
0
0
0
0
0
0
0
0
0
0
0
0
0
0
0
0
0
0
0
0
0
0
0
0
0
0
0
0
0
0
0
0
0
0
0
0
0
0
0
0
0
0
0
0
0
0
0
0
0
0
0
0
0
0
0
0
0
0
0
0
0
0
0
0
0
0
0
0
0
0
0
0
0
0
0
0
0
0
0
0
0
0
0
0
0
0
0
0
0
0
0
0
0
0
0
0
0
0
0
0
0
0
0
0
0
0
0
0
0
0
0
0
0
0
0
0
0
0
0
0
0
0
0
0
0
0
0
0
0
0
0
0
0
0
0
0
0
0
0
0
0
0
0
0
0
0
0
0
0
0
0
0
0
0
0
0
0
0
0
0
0
0
0
0
0
0
0
0
0
0
0
0
0
0
0
0
0
0
0
0
0
0
0
0
0
0
0
0
0
0
0
0
0
0
0
0
0
0
0
0
0
0
0
0
0
0
0
0
0
0
0
0
0
0
0
0
0
0
0
0
0
0
0
0
0
0
0
0
0
0
0
0
0
0
0
0
0
0
0
0
0
0
0
0
0
0
0
0
0
0
0
0
0
0
0
0
0
0
0
0
0
0
0
0
0
0
0
0
0
0
0
0
0
0
0
0
0
0
0
0
0
0
0
0
0
0
0
0
0
0
0
0
0
0
0
0
0
0
0
0
0
0
0
0
0
0
0
0
0
0
0
0
0
0
0
0
0
0
0
0
0
0
0
0
0
0
0
0
0
0
0
0
0
0
0
0
0
0
0
0
0
0
0
0
0
0
0
0
0
0
0
0
0
0
0
0
0
0
0
0
0
0
0
0
0
0
0
0
0
0
0
0
0
0
0
0
0
0
0
0
0
0
0
0
0
0
0
0
0
0
0
0
0
0
0
0
0
0
0
0
0
0
0
0
0
0
0
0
0
0
0
0
0
0
0
0
0
0
0
0
0
0
0
0
0
0
0
0
0
0
0
0
0
0
0
0
0
0
0
0
0
0
0
0
0
0
0
0
0
0
0
0
0
0
0
0
0
0
0
0
0
0
0
0
0
0
0
0
0
0
0
0
0
0
0
0
0
0
0
0
0
0
0
0
0
0
0
0
0
0
0
0
0
0
0
0
0
0
0
0
0
0
0
0
0
0
0
0
0
0
0
0
0
0
0
0
0
0
0
0
0
0
0
0
0
0
0
0
0
0
0
0
0
0
0
0
0
0
0
0
0
0
0
0
0
0
0
0
0
0
0
0
0
0
0
0
0
0
0
0
0
0
0
0
0
0
0
0
0
0
0
0
0
0
0
0
0
0
0
0
0
0
0
0
0
0
0
0
0
0
0
0
0
0
0
0
0
0
0
0
0
0
0
0
0
0
0
0
0
0
0
0
0
0
0
0
0
0
0
0
0
0
0
0
0
0
0
0
0
0
0
0
0
0
0
0
0
0
0
0
0
0
0
0
0
0
0
0
0
0
0
0
0
0
0
0
0
0
0
0
0
0
0
0
0
0
0
0
0
0
0
0
0
0
0
0
0
0
0
0
0
0
0
0
0
0
0
0
0
0
0
0
0
0
0
0
0
0
0
0
0
0
0
0
0
0
0
0
0
0
0
0
0
0
0
0
0
0
0
0
0
0
0
0
0
0
0
0
0
0
0
0
0
0
0
0
0
0
0
0
0
0
0
0
0
0
0
0
0
0
0
0
0
0
0
0
0
0
0
0
0
0
0
0
0
0
0
0
0
0
0
0
0
0
0
0
0
0
0
0
0
0
0
0
0
0
0
0
0
0
0
0
0
0
0
0
0
0
0
0
0
0
0
0
0
0
0
0
0
0
0
0
0
0
0
0
0
0
0
0
0
0
0
0
0
0
0
0
0
0
0
0
0
0
0
0
0
0
0
0
0
0
0
0
0
0
0
0
0
0
0
0
0
0
0
0
0
0
0
0
0
0
0
0
0
0
0
0
0
0
0
0
0
0
0
0
0
0
0
0
0
0
0
0
0
0
0
0
0
0
0
0
0
0
0
0
0
0
0
0
0
0
0
0
0
0
0
0
0
0
0
0
0
0
0
0
0
0
0
0
0
0
0
0
0
0
0
0
0
0
0
0
0
0
0
0
0
0
0
0
0
0
0
0
0
0
0
0
0
0
0
0
0
0
0
0
0
0
0
0
0
0
0
0
0
0
0
0
0
0
0
0
0
0
0
0
0
0
0
0
0
0
0
0
0
0
0
0
0
0
0
0
0
0
0
0
0
0
0
0
0
0
0
0
0
0
0
0
0
0
0
0
0
0
0
0
0
0
0
0
0
0
0
0
0
0
0
0
0
0
0
0
0
0
0
0
0
0
0
0
0
0
0
0
0
0
0
0
0
0
0
0
0
0
0
0
0
0
0
0
0
0
0
0
0
0
0
0
0
0
0
0
0
0
0
0
0
0
0
0
0
0
0
0
0
0
0
0
0
0
0
0
0
0
0
0
0
0
0
0
0
0
0
0
0
0
0
0
0
0
0
0
0
0
0
0
0
0
0
0
0
0
0
0
0
0
0
0
0
0
0
0
0
0
0
0
0
0
0
0
0
0
0
0
0
0
0
0
0
0
0
0
0
0
0
0
0
0
0
0
0
0
0
0
0
0
0
0
0
0
0
0
0
0
0
0
0
0
0
0
0
0
0
0
0
0
0
0
0
0
0
0
0
0
0
0
0
0
0
0
0
0
0
0
0
0
0
0
0
0
0
0
0
0
0
0
0
0
0
0
0
0
0
0
0
0
0
0
0
0
0
0
0
0
0
0
0
0
0
0
0
0
0
0
0
0
0
0
0
0
0
0
0
0
0
0
0
0
0
0
0
0
0
0
0
0
0
0
0
0
0
0
0
0
0
0
0
0
0
0
0
0
0
0
0
0
0
0
0
0
0
0
0
0
0
0
0
0
0
0
0
0
0
0
0
0
0
0
0
0
0
0
0
0
0
0
0
0
0
0
0
0
0
0
0
0
0
0
0
0
0
0
0
0
0
0
0
0
0
0
0
0
0
0
0
0
0
0
0
0
0
0
0
0
0
0
0
0
0
0
0
0
0
0
0
0
0
0
0
0
0
0
0
0
0
0
0
0
0
0
0
0
0
0
0
0
0
0
0
0
0
0
0
0
0
0
0
0
0
0
0
0
0
0
0
0
0
0
0
0
0
0
0
0
0
0
0
0
0
0
0
0
0
0
0
0
0
0
0
0
0
0
0
0
0
0
0
0
0
0
0
0
0
0
0
0
0
0
0
0
0
0
0
0
0
0
0
0
0
0
0
0
0
0
0
0
0
0
0
0
0
0
0
0
0
0
0
0
0
0
0
0
0
0
0
0
0
0
0
0
0
0
0
0
0
0
0
0
0
0
0
0
0
0
0
0
0
0
0
0
0
0
0
0
0
0
0
0
0
0
0
0
0
0
0
0
0
0
0
0
0
0
0
0
0
0
0
0
0
0
0
0
0
0
0
0
0
0
0
0
0
0
0
0
0
0
0
0
0
0
0
0
0
0
0
0
0
0
0
0
0
0
0
0
0
0
0
0
0
0
0
0
0
0
0
0
0
0
0
0
0
0
0
0
0
0
0
0
0
0
0
0
0
0
0
0
0
0
0
0
0
0
0
0
0
0
0
0
0
0
0
0
0
0
0
0
0
0
0
0
0
0
0
0
0
0
0
0
0
0
0
0
0
0
0
0
0
0
0
0
0
0
0
0
0
0
0
0
0
0
0
0
0
0
0
0
0
0
0
0
0
0
0
0
0
0
0
0
0
0
0
0
0
0
0
0
0
0
0
0
0
0
0
0
0
0
0
0
0
0
0
0
0
0
0
0
0
0
0
0
0
0
0
0
0
0
0
0
0
0
0
0
0
0
0
0
604.034
1009.04
598.62
854.176
1353.39
1121.57
2129.28
366.835
636.949
813.3
1901.71
615.621
2027.8
1898.29
927.045
768.12
315.621
837.25
761.695
1053.67
741.804
657.355
316.842
1067.02
991.368
2032.89
808.944
2059.48
1350.71
1115.72
1383.25
2552.95
4361.33
3733.34
5443.35
2452.94
2910.35
6266.21
5279.45
8426.65
9021.71
12817.2
933.815
556.407
1892.76
457.795
1633.3
801.851