/*--------------------------------*- C++ -*----------------------------------*\
| =========                 |                                                 |
| \\      /  F ield         | OpenFOAM: The Open Source CFD Toolbox           |
|  \\    /   O peration     | Version:  5.x                                   |
|   \\  /    A nd           | Web:      www.OpenFOAM.org                      |
|    \\/     M anipulation  |                                                 |
\*---------------------------------------------------------------------------*/
FoamFile
{
    version     2.0;
    format      ascii;
    class       surfaceScalarField;
    location    "0.5";
    object      phi;
}
// * * * * * * * * * * * * * * * * * * * * * * * * * * * * * * * * * * * * * //

dimensions      [0 3 -1 0 0 0 0];

internalField   nonuniform List<scalar> 
29271
(
-8.60726e-06
-2.89326e-06
-4.94885e-06
1.64494e-05
-1.06274e-05
2.15088e-07
1.06701e-06
9.35947e-06
-2.88981e-05
3.33554e-06
-1.52252e-06
2.09382e-07
-1.21019e-06
2.80859e-05
-3.36304e-05
1.12341e-05
-2.12417e-06
3.06283e-06
-7.69518e-06
2.91528e-05
-3.95691e-05
5.89684e-06
-1.52092e-06
-9.50477e-06
4.64493e-05
-1.75137e-06
-3.2129e-05
-2.73228e-06
6.0445e-06
-4.46634e-06
1.68549e-06
3.15976e-05
-2.65544e-05
-4.27964e-07
1.82454e-06
-2.98924e-06
-3.64695e-06
3.1794e-05
-3.32651e-05
6.60357e-06
9.38183e-07
5.85599e-07
-9.73039e-06
3.48682e-05
-4.90667e-05
1.19325e-05
-4.57059e-06
-2.66415e-06
-1.03665e-05
5.47355e-05
-1.90848e-05
-2.97981e-06
3.1934e-06
1.78565e-05
9.93492e-07
-7.64243e-06
-1.74934e-06
-3.4212e-06
1.28129e-05
-3.54026e-05
9.11404e-06
-2.627e-06
-9.35097e-06
-3.64678e-06
4.19133e-05
-3.37411e-05
1.10318e-05
7.77143e-06
-5.69117e-06
-9.32725e-06
2.99563e-05
-2.68236e-05
7.21598e-06
3.85659e-06
-1.63055e-06
-2.616e-06
1.99976e-05
-2.72996e-05
3.82499e-06
-1.56638e-06
1.76085e-06
-1.63466e-06
2.49148e-05
-2.64449e-05
-3.57911e-06
1.58493e-06
2.71622e-06
2.88032e-05
-3.08035e-06
-3.28819e-05
1.92211e-05
-9.68724e-06
-1.08778e-05
2.58231e-05
8.40268e-06
-3.75961e-05
2.75923e-06
3.3313e-06
-1.66338e-06
-6.41267e-07
3.38102e-05
-2.76748e-05
-3.1445e-06
9.31639e-07
-1.25117e-06
8.26182e-06
2.2877e-05
-2.83686e-05
3.07624e-06
3.66364e-07
2.52227e-05
1.20754e-07
-4.17389e-07
-1.11854e-05
-3.7235e-07
-4.31809e-06
1.5655e-05
-1.88452e-05
-4.12137e-06
1.22315e-05
1.33596e-05
-2.70196e-06
-3.65494e-05
-2.86811e-06
-7.11874e-06
1.13601e-05
4.96892e-05
-1.4513e-05
-8.82438e-06
-5.53688e-07
1.24525e-06
8.01561e-06
-2.3278e-05
-3.20606e-06
-5.69301e-07
2.70608e-05
-1.02646e-05
1.77498e-07
-1.47705e-06
1.15822e-05
-2.49455e-06
-9.62602e-07
-2.72767e-05
1.67835e-06
2.78974e-06
2.62657e-05
-2.15796e-06
-2.50237e-05
-9.13334e-07
-1.01859e-06
5.44399e-06
2.36696e-05
-3.7991e-05
-2.27965e-06
4.46645e-06
7.3454e-06
2.97277e-05
-1.26895e-06
8.5008e-07
-2.68602e-06
-3.02964e-05
2.85284e-06
-4.8195e-08
2.93277e-05
2.24454e-05
1.68749e-05
0.000123265
-3.35035e-05
-2.33566e-05
-4.18511e-05
-2.30434e-05
-3.25134e-06
-3.62383e-06
-3.81537e-06
-4.14214e-06
-4.92645e-06
-5.51003e-06
-7.79046e-06
-7.77096e-06
2.98204e-05
2.36957e-05
0.000102576
-3.43773e-05
-2.45215e-05
-2.59535e-05
-2.18058e-05
-7.84955e-06
-8.00219e-06
-5.53301e-06
-5.60345e-06
6.48207e-06
2.49517e-05
0.000147119
-1.78299e-05
-8.90663e-06
-8.1141e-06
-6.62338e-06
7.30071e-06
9.46557e-06
2.86814e-05
-6.57847e-05
-3.56231e-05
-3.0388e-05
-2.09104e-05
-2.22806e-05
-7.01809e-06
1.08679e-05
2.4748e-05
-1.87812e-05
-3.60735e-06
1.89428e-06
2.0497e-05
2.10177e-07
-4.35854e-05
-2.49645e-06
6.78132e-06
2.12749e-06
3.69628e-05
2.88501e-05
2.66676e-05
7.99018e-05
-2.43301e-05
-2.29794e-05
-1.78447e-05
-1.60065e-05
-1.13601e-05
-8.95548e-06
-1.00895e-05
-6.97879e-06
3.36716e-05
2.71592e-05
7.72659e-05
-2.23403e-05
-2.26789e-05
-1.91735e-05
-2.13582e-05
7.41845e-06
2.49682e-06
8.42628e-05
1.26905e-05
1.2436e-05
1.58617e-05
3.92625e-06
3.62867e-06
9.02398e-06
-2.54473e-05
-2.2095e-05
-2.3994e-05
-2.15856e-05
-3.35277e-05
-5.38524e-06
2.91368e-06
5.26355e-06
3.81542e-05
-1.47736e-05
-8.2842e-06
7.23759e-06
5.34159e-06
1.35332e-05
-3.05459e-06
2.50399e-05
6.11298e-06
7.33506e-05
-1.00118e-05
-6.91568e-06
-6.98761e-06
-5.97363e-06
1.29119e-05
7.63912e-06
2.0709e-05
-3.23323e-05
-2.36589e-05
-1.49661e-05
-1.82499e-05
3.42855e-06
9.412e-06
7.61926e-05
3.86656e-06
5.15202e-06
9.50431e-06
5.05445e-06
1.65189e-05
1.72732e-05
-2.4196e-05
-2.41598e-05
-2.39541e-05
-2.18937e-05
-2.21329e-05
8.55634e-06
4.31298e-06
1.51889e-05
-2.77189e-05
-5.64897e-06
-1.1347e-05
4.36697e-05
-1.30718e-05
-5.71017e-06
1.17537e-05
1.30022e-05
-4.75651e-05
-6.48729e-06
1.68172e-06
3.93805e-06
5.78447e-05
-1.00914e-05
-2.99231e-06
-1.79478e-06
1.35698e-05
-2.21404e-05
1.03545e-06
6.53083e-06
1.48248e-05
-1.09576e-05
1.82503e-06
-2.47582e-06
1.1747e-05
-1.48816e-06
-1.70589e-06
-2.68391e-05
2.18638e-06
2.19192e-06
2.56549e-05
-6.47758e-06
-2.57212e-05
-2.29106e-06
4.17621e-06
5.92692e-06
2.43867e-05
-2.58049e-05
-4.97203e-06
6.4431e-06
5.64515e-06
2.35721e-05
-4.88348e-06
1.90486e-06
-4.58469e-06
-3.00491e-05
6.76833e-06
-6.83562e-07
2.66442e-05
2.93684e-05
1.45715e-05
0.000129448
-5.13386e-06
-4.76884e-06
-2.66221e-06
-2.76707e-06
-1.14683e-05
-1.03179e-05
-6.44257e-06
-6.56231e-06
2.51408e-05
1.25884e-05
0.000117543
-7.39872e-06
-6.80632e-06
-4.78219e-06
-4.3413e-06
1.316e-05
2.46882e-05
0.000120152
-6.56386e-06
-4.68848e-06
-5.24604e-06
-8.04459e-06
2.11629e-05
9.19482e-06
8.44475e-06
-2.74426e-05
-6.11076e-06
1.04988e-05
3.60889e-05
-2.20355e-05
1.0596e-06
1.6143e-06
1.93636e-05
-1.19093e-05
-3.04e-05
-3.18807e-08
1.20335e-05
4.51284e-06
2.57949e-05
2.73706e-05
2.41644e-05
7.85141e-05
-1.17039e-05
-8.66045e-06
-7.98131e-06
-7.23021e-06
2.65126e-05
1.90306e-05
7.16816e-05
7.27418e-06
4.80774e-06
9.48711e-05
1.36642e-05
1.93172e-06
7.96637e-06
5.78665e-06
-1.31092e-06
4.72522e-07
-5.72319e-05
-4.41028e-06
-7.31723e-06
1.39802e-08
7.62196e-05
-1.63091e-05
-8.3187e-06
7.55059e-06
6.5844e-06
1.73308e-05
-6.83804e-06
2.31166e-05
6.65094e-06
6.03385e-05
-8.44242e-06
-6.64764e-06
-6.98214e-06
-5.48655e-06
1.24601e-05
1.22576e-05
1.02501e-05
6.43105e-06
6.00039e-06
6.99547e-05
9.24805e-06
-1.52587e-06
3.78151e-06
1.62097e-05
6.27391e-09
8.23406e-06
-1.21394e-05
4.26587e-07
5.16403e-06
1.77876e-05
-5.41565e-05
-5.88398e-06
4.20817e-06
5.58364e-05
-1.47205e-05
-6.21864e-06
1.16004e-05
1.57212e-05
-9.02074e-05
-1.40176e-05
7.9828e-06
-2.10876e-05
0.00012333
-2.4239e-05
-1.47653e-06
-5.30154e-06
3.10186e-05
-9.23532e-06
-2.0122e-07
2.63274e-06
6.86832e-06
-1.14943e-05
2.88484e-06
-1.96092e-06
1.07761e-05
-6.76175e-07
-3.16929e-06
-2.46644e-05
2.87696e-06
3.69548e-07
2.52634e-05
-2.29912e-06
-2.31846e-05
-1.7324e-06
1.95252e-06
2.3468e-06
2.29168e-05
-2.37852e-05
-3.13307e-06
5.08471e-06
6.01245e-06
1.89598e-05
-3.13869e-06
1.67602e-06
-3.08861e-06
-2.31851e-05
5.11789e-06
-1.00683e-06
2.04866e-05
2.79438e-05
6.67784e-06
0.00012291
-9.17276e-07
-1.03218e-06
-1.86455e-06
5.51947e-08
-6.60247e-06
-7.56575e-06
-5.0099e-06
-5.14685e-06
8.46877e-06
1.17995e-05
0.000146942
-2.45621e-06
-3.90205e-06
-6.26383e-06
-9.10086e-06
4.89108e-06
4.6907e-06
0.00013328
-6.3352e-06
-8.19665e-06
-5.65594e-06
-6.7704e-06
5.31317e-06
3.59812e-06
3.80665e-06
-4.26113e-05
-3.01347e-06
4.59888e-06
4.59182e-05
-1.31568e-05
1.36488e-06
4.79561e-06
7.22291e-06
-6.60723e-06
-2.11077e-05
1.25439e-07
7.42056e-06
3.0929e-06
1.70761e-05
2.60716e-05
1.69333e-05
6.82673e-05
-8.07155e-06
-7.12298e-06
-6.01787e-06
-4.86776e-06
1.91792e-06
-2.52116e-06
0.000110156
-2.90395e-06
-6.70225e-06
0.000113378
3.62858e-06
-1.03522e-06
3.48041e-06
-1.79197e-06
-5.61818e-06
-9.55798e-07
-8.58408e-05
-1.36255e-07
-7.37294e-06
1.77399e-06
8.8672e-05
-1.67702e-05
-5.08633e-06
5.69045e-06
5.88896e-06
1.51004e-05
-4.82334e-06
2.43143e-05
9.0847e-06
5.41226e-05
-5.47702e-06
-6.05248e-06
-6.14065e-06
-9.28196e-06
8.34646e-06
4.09541e-06
4.2604e-06
-8.22987e-06
-4.94634e-06
0.000106532
3.34363e-06
-8.43262e-06
4.05939e-06
3.19293e-06
-4.73376e-06
9.62772e-07
-2.77286e-05
-1.08449e-05
-8.25898e-06
3.19004e-05
-5.40952e-05
-6.32063e-06
8.33094e-06
5.20938e-05
-1.9521e-05
-5.66998e-06
1.16493e-05
2.26244e-05
-0.00014418
-1.16067e-05
1.89046e-05
-2.00602e-05
0.000151996
-3.25898e-05
1.02825e-05
-1.18584e-05
3.41737e-05
-4.72229e-06
1.00185e-06
-3.73319e-08
3.75777e-06
-1.12919e-05
2.07056e-06
-2.42281e-06
1.16679e-05
-1.93138e-06
2.71193e-07
-2.31332e-05
-6.78603e-07
2.42643e-06
2.30456e-05
9.7561e-09
-2.60808e-05
5.70715e-07
-9.47208e-07
1.78975e-06
2.46578e-05
-1.19225e-05
-3.63185e-06
5.15453e-06
3.97233e-06
7.83577e-06
-1.40827e-06
1.5998e-06
-2.9611e-06
-1.93122e-05
6.25439e-06
-1.70711e-06
1.61262e-05
1.92777e-05
7.71421e-06
0.000156122
-4.20207e-06
-2.49561e-06
-8.68737e-06
-8.0568e-06
-7.55534e-06
-5.94385e-06
-1.13877e-05
-1.18749e-05
3.67016e-06
1.20058e-05
0.000157556
-3.95791e-06
-4.17563e-06
-6.29565e-07
1.75111e-06
4.95641e-06
-9.12921e-06
0.000131474
-2.66688e-06
-3.73826e-06
1.12769e-06
-1.60661e-06
4.65134e-06
6.14389e-06
5.73712e-06
-4.7648e-05
-2.42006e-06
4.22756e-06
5.07973e-05
-4.4966e-06
3.64459e-07
1.55298e-06
2.66973e-06
-4.06666e-06
-1.30452e-05
5.72859e-07
4.1137e-06
1.53981e-06
1.08854e-05
1.13816e-05
8.26449e-06
7.82996e-05
-3.46718e-06
-4.26608e-06
-8.45826e-06
-5.77273e-06
-9.01847e-06
4.23572e-06
0.000138326
4.73749e-08
-9.80555e-06
0.00010871
3.48116e-06
2.77496e-06
3.77925e-06
-2.32055e-06
-8.23903e-06
-3.19748e-06
-9.04969e-05
-5.52952e-08
-8.41365e-07
8.19589e-07
9.06214e-05
-1.40313e-05
-2.61263e-06
3.51435e-06
4.11117e-06
1.19532e-05
-2.9348e-06
5.03041e-06
4.94399e-06
5.27237e-05
-5.18325e-06
-5.40771e-06
-4.48681e-06
-5.20164e-06
6.84167e-06
5.6924e-06
7.43432e-06
-1.19585e-05
-4.99357e-06
0.000142287
2.63345e-06
-1.01057e-05
2.97098e-06
-3.2058e-07
-3.66962e-06
-1.0452e-06
-3.81098e-05
-1.10495e-05
-9.76785e-06
3.71631e-05
-4.99747e-05
-4.48295e-06
6.17606e-06
4.82831e-05
-2.36914e-05
-2.91811e-06
6.14453e-06
2.54083e-05
-0.000154495
-8.12892e-06
2.00511e-05
-1.46369e-05
0.000152217
-3.65002e-05
1.16681e-05
-1.39386e-05
3.87702e-05
-4.71596e-06
-6.27555e-07
-1.14372e-07
5.45883e-06
-7.88621e-06
1.37881e-06
2.11523e-06
4.39175e-06
-1.85232e-06
-2.19223e-06
-2.03661e-05
1.13273e-06
4.91818e-06
1.83598e-05
-1.1239e-06
-2.22832e-05
-4.02454e-07
2.40749e-06
4.98444e-07
2.09036e-05
-9.09432e-06
-1.97263e-06
5.36111e-06
-2.29606e-06
1.20651e-05
-4.06324e-06
-4.27243e-07
-2.11229e-06
-1.62629e-05
5.18931e-06
-5.41411e-07
1.41546e-05
2.24814e-05
2.50725e-05
0.000138075
-4.75698e-06
-5.2004e-06
-1.76603e-06
-1.70744e-06
-6.7669e-06
-4.8152e-06
-3.62466e-06
-8.69199e-07
4.34982e-07
7.95728e-06
0.000152885
2.15607e-06
5.18942e-06
4.49936e-06
6.9148e-06
3.08878e-06
-2.27014e-05
0.000137867
4.77746e-06
2.60741e-07
6.04699e-06
-3.06956e-07
1.96276e-06
9.94631e-07
-8.09261e-08
-5.354e-05
-3.97429e-06
1.20241e-05
-9.24677e-06
5.78258e-05
-2.37833e-07
-1.25315e-08
4.36243e-09
2.38886e-07
-7.76965e-07
1.08476e-07
9.37021e-07
-1.78037e-07
-1.66207e-06
-7.24013e-06
-1.31422e-06
2.10913e-06
2.09666e-06
6.01063e-06
-7.79917e-06
3.5035e-05
7.54832e-05
-1.87573e-06
-3.02122e-07
5.66785e-07
2.26413e-06
-1.62235e-05
3.40512e-06
0.000151303
-5.21298e-07
-9.8515e-06
0.000107623
8.49779e-07
-2.8467e-06
-2.83243e-06
-5.83791e-06
-9.13772e-06
-7.65953e-06
-8.96401e-05
8.92923e-07
7.6199e-06
1.2377e-05
6.82289e-05
-2.78258e-09
-1.79646e-06
-1.63726e-09
6.43601e-08
1.72953e-06
-8.93405e-06
-4.00127e-06
3.92376e-06
5.91465e-06
8.25151e-06
-5.1546e-06
-1.29083e-05
6.32125e-06
7.86584e-05
-3.13661e-06
-3.04305e-06
-1.64193e-06
-1.87969e-06
8.73128e-06
6.97259e-06
9.68479e-06
-1.19387e-05
-3.63027e-06
0.000160353
2.03791e-06
-1.03358e-05
1.88496e-06
-2.0728e-06
-1.61822e-06
-1.89631e-06
-3.74658e-05
-9.54157e-06
-8.8919e-06
3.4109e-05
-5.22447e-05
4.82811e-07
4.99528e-06
4.67653e-05
-2.67046e-05
-4.259e-07
4.94784e-06
2.85034e-05
-0.000149839
-5.79191e-06
1.52058e-05
-9.89855e-06
0.000146693
-3.96713e-05
1.21031e-05
-1.18655e-05
3.94404e-05
-6.10828e-06
-2.09015e-06
1.40995e-06
6.78928e-06
-2.91293e-07
2.70155e-06
2.33044e-07
-2.64679e-06
1.51994e-06
-4.68874e-06
-1.84397e-05
3.48674e-06
1.20672e-07
1.80011e-05
3.03284e-08
-2.0983e-05
-2.51301e-06
3.23667e-06
-1.61242e-06
2.18414e-05
-1.56045e-05
-1.84069e-06
5.95684e-06
-3.77334e-06
1.93825e-05
-4.12077e-06
-2.39018e-06
-3.27539e-07
-1.35529e-05
2.11948e-06
2.77815e-06
1.1373e-05
1.34208e-05
2.24264e-05
0.000111403
-1.26593e-06
-1.83343e-06
-3.53647e-07
1.37851e-07
-2.61196e-06
-1.16084e-06
-1.51978e-06
-5.67908e-07
-4.38427e-06
-1.76522e-06
0.000152141
3.63651e-06
5.82025e-06
4.54187e-06
6.31541e-06
-7.13353e-07
-3.14763e-05
0.000150433
6.79376e-06
1.84813e-06
8.10943e-06
2.53193e-06
-1.46191e-06
-1.00978e-06
-1.57214e-06
-6.73212e-05
8.67929e-06
4.77779e-06
-2.09015e-06
5.52409e-05
1.49322e-06
7.12116e-07
2.01419e-06
-4.41034e-06
2.3648e-06
-2.17398e-06
1.72069e-07
-5.31269e-07
6.92205e-07
-3.33784e-07
-5.30764e-07
-4.79812e-06
-2.517e-06
2.53798e-07
2.80322e-06
4.78887e-06
-2.50703e-05
3.40849e-05
7.99027e-05
8.63642e-07
2.88227e-06
1.62775e-06
3.61875e-06
-2.7148e-05
-5.07726e-06
0.000156692
-3.30956e-06
-1.01082e-05
0.000100661
-4.92899e-06
-2.72528e-06
-5.2274e-06
-8.08811e-06
-8.77492e-06
-8.50007e-06
-6.54358e-05
2.66548e-06
-2.31883e-07
-2.46031e-06
6.21529e-05
-3.35333e-06
-2.954e-06
1.8811e-06
-2.33449e-06
3.08891e-06
3.67182e-06
-9.54492e-06
-1.57708e-06
9.59818e-07
2.35513e-06
1.08332e-05
-3.02616e-06
-2.42455e-05
5.90313e-06
0.000102613
3.28208e-07
7.57592e-07
1.66657e-06
2.13174e-06
8.02163e-06
6.3432e-06
9.22367e-06
-1.11544e-05
-2.6383e-06
0.000159962
4.84561e-07
-8.90823e-06
-2.49258e-07
-2.90149e-06
-1.19519e-06
-2.36967e-06
-3.20356e-05
-8.16057e-06
-8.8442e-06
2.77778e-05
-3.36549e-05
-6.73924e-06
5.686e-06
4.61265e-06
3.00865e-05
-4.79057e-06
-1.87067e-06
7.08174e-07
5.95307e-06
-3.07312e-05
4.79457e-08
3.80952e-06
3.27769e-05
-0.000144519
-2.89328e-06
1.09439e-05
-6.27612e-06
0.000140107
-3.89241e-05
9.82382e-06
-9.75039e-06
3.88404e-05
-7.23725e-06
-1.44604e-06
1.55804e-06
7.12481e-06
3.69157e-06
2.16699e-06
-2.25364e-06
-3.60642e-06
1.99969e-06
-3.43786e-06
-1.71178e-05
3.93299e-06
-2.12963e-06
1.67526e-05
1.56809e-06
-2.34659e-05
-3.67242e-06
3.55239e-06
-3.31641e-06
2.53343e-05
-2.42422e-05
-1.1523e-06
5.27718e-06
-5.19736e-06
2.91065e-05
-3.79181e-06
-2.47105e-06
-8.50083e-08
-8.76066e-06
1.04724e-06
4.60536e-06
5.66412e-06
5.43575e-06
1.54393e-05
9.60939e-05
-4.63456e-07
-1.44751e-07
6.43783e-07
1.34567e-06
-1.91851e-06
-2.05375e-06
-1.31236e-06
-1.6623e-06
-1.30138e-05
-1.17253e-05
0.000161548
3.88813e-06
5.33205e-06
5.25045e-06
6.29769e-06
-2.7389e-06
-3.27606e-05
0.000162384
7.6709e-06
2.5092e-06
8.92076e-06
3.27985e-06
-3.5416e-06
-4.23548e-06
-4.069e-06
-5.65504e-05
2.01612e-06
-5.10151e-07
-3.63939e-06
5.59449e-05
3.22253e-06
-1.2892e-06
8.09686e-07
-1.80867e-06
2.00392e-06
-2.93827e-06
-5.53013e-07
-3.58916e-07
-4.22209e-07
1.33321e-06
-1.31239e-07
-5.51014e-06
-3.45849e-06
4.50449e-07
2.25534e-06
6.39407e-06
-3.23379e-05
2.54972e-05
9.05198e-05
1.25437e-06
3.74908e-06
2.32619e-06
4.33331e-06
-2.97326e-05
-1.43572e-05
0.000156719
-2.18175e-06
-1.06898e-05
8.94821e-05
-5.25029e-06
-2.00358e-06
-4.32092e-06
-8.41837e-06
-1.08955e-05
-7.55432e-06
-5.90871e-05
4.6697e-06
2.26523e-06
-4.87976e-06
5.48502e-05
-6.09069e-06
-1.09296e-06
-3.6971e-06
2.61094e-06
-1.5321e-06
9.80191e-06
-1.26284e-05
7.56737e-07
-9.70463e-07
3.66668e-07
1.43673e-05
-1.89185e-06
-3.39322e-05
5.02323e-06
0.000122172
2.09072e-06
3.34848e-06
3.43752e-06
4.69488e-06
7.54433e-06
5.27729e-06
8.45377e-06
-1.01682e-05
-2.26161e-06
0.000152172
-3.71617e-06
-8.2159e-06
-5.38583e-06
-4.02645e-06
-1.66986e-06
-5.05499e-06
-2.46369e-05
-4.60047e-06
-1.07822e-05
1.91617e-05
-2.13768e-05
4.80895e-06
-1.14253e-06
2.19958e-06
1.55141e-05
-8.0193e-06
2.64163e-06
-5.05979e-06
4.15048e-06
6.28698e-06
-3.59888e-05
-8.9905e-08
2.47232e-06
3.86287e-05
-0.000137302
-3.06346e-07
6.17459e-06
-3.4069e-06
0.000132579
-3.82905e-05
8.45456e-06
-6.39722e-06
3.62348e-05
-7.02491e-06
1.73676e-06
-1.9114e-06
7.19968e-06
3.18768e-06
-1.57468e-06
1.03069e-06
-2.64382e-06
-1.46045e-06
2.10289e-07
-1.74155e-05
1.3603e-06
-1.19399e-07
1.74247e-05
3.26664e-06
-2.72418e-05
-2.32435e-06
2.45752e-06
-5.03356e-06
2.88755e-05
-3.4785e-05
1.61535e-06
3.99426e-06
-6.9321e-06
3.8932e-05
-2.82448e-06
-1.86065e-06
1.99437e-07
-2.42203e-06
1.12518e-06
3.77036e-06
-8.12285e-07
-2.42322e-07
4.60397e-06
9.49228e-05
4.50264e-07
1.63477e-06
9.96035e-07
3.09432e-06
-2.14722e-06
-3.32032e-06
-1.32349e-06
-2.5749e-06
-2.14361e-05
-2.30388e-05
0.000177999
5.77299e-06
6.34901e-06
8.0352e-06
7.62437e-06
-5.30274e-06
-2.62513e-05
0.000174502
7.83358e-06
3.33304e-06
8.81749e-06
2.60848e-06
-5.58565e-06
-1.07835e-05
-8.22298e-06
-7.15525e-05
1.27943e-05
-4.31741e-06
-5.15731e-06
6.29302e-05
2.35712e-06
6.37197e-06
-3.52808e-06
-5.75463e-06
5.5361e-07
-1.78221e-06
1.05258e-06
-1.52795e-06
2.25758e-06
9.60732e-09
-7.68598e-06
-2.91934e-06
3.97531e-07
1.40155e-06
8.79663e-06
-3.27626e-05
1.05956e-05
0.000105285
1.69934e-06
3.47644e-06
2.72032e-06
4.11011e-06
-2.79225e-05
-2.722e-05
0.00015606
-2.31712e-06
-1.00773e-05
8.3311e-05
-5.11825e-06
-4.99495e-06
-9.5472e-06
-5.4375e-06
-6.80014e-06
-3.71037e-06
-5.12743e-05
3.84615e-06
7.06597e-07
-2.59674e-06
4.70012e-05
-1.12006e-05
7.81081e-06
-3.62228e-06
2.63556e-06
-4.89951e-06
9.27597e-06
-1.70465e-05
2.37032e-06
-2.91195e-06
-1.60174e-06
1.98524e-05
-6.62472e-07
-4.38213e-05
3.88351e-06
0.000134286
4.03724e-06
6.22455e-06
5.55043e-06
7.11374e-06
6.07038e-06
4.01764e-06
5.40584e-06
-8.61272e-06
-3.70119e-06
0.000133422
-6.7071e-06
-7.25407e-06
-6.9304e-06
-6.27633e-06
-2.68497e-06
-1.01247e-05
-1.56168e-05
-2.42979e-06
-1.31359e-05
1.24924e-05
-1.13579e-05
-1.50403e-06
-4.70022e-07
1.33373e-05
-4.16147e-05
-4.95076e-07
2.28953e-06
4.37026e-05
-0.00012764
2.10227e-06
3.57226e-06
-2.54363e-06
0.000120808
-3.27818e-05
1.08072e-05
-3.30366e-06
2.52769e-05
-7.65469e-06
3.26525e-06
-3.47668e-06
7.86315e-06
2.09309e-06
-5.63552e-06
5.24643e-06
-1.70393e-06
-2.72364e-06
4.17759e-06
-1.75559e-05
-2.52454e-06
9.5234e-07
1.76742e-05
5.12949e-06
-3.05045e-05
5.50554e-07
2.60259e-07
-7.66514e-06
3.22293e-05
-4.28267e-05
2.28836e-06
1.7599e-06
-7.04422e-06
4.68858e-05
-1.06311e-06
-4.54255e-06
2.56189e-07
2.15363e-06
4.63885e-07
3.50323e-06
-1.83438e-06
-7.34439e-06
-5.97619e-06
0.000103908
8.94812e-07
3.97577e-06
1.68507e-06
6.19494e-06
-1.6246e-06
-3.71187e-06
-3.66933e-07
-2.71227e-06
-2.63193e-05
-3.01948e-05
0.000188928
8.90996e-06
7.87352e-06
1.15e-05
9.95664e-06
-1.10095e-05
-2.16946e-05
0.000181964
7.63548e-06
2.80067e-06
9.65633e-06
4.84109e-06
-9.20647e-06
-8.32367e-06
-8.48049e-06
-6.03502e-05
2.56912e-06
-9.48385e-06
5.62557e-05
-2.69593e-06
1.91335e-06
-2.44426e-06
3.22684e-06
1.11346e-07
-1.0216e-05
-2.10138e-06
5.49299e-07
5.92878e-07
1.10638e-05
-2.76116e-05
-3.30552e-06
0.000121448
1.38303e-06
2.41297e-06
2.13772e-06
2.84419e-06
-2.45524e-05
-3.23585e-05
0.000155165
-7.40774e-06
-4.31576e-06
7.87024e-05
-9.87562e-06
-6.54189e-06
-8.41554e-06
-2.34264e-06
-1.18371e-06
-1.55552e-06
-5.9535e-05
3.20775e-06
-6.89792e-06
-3.77145e-07
5.61946e-05
-2.37919e-05
4.3925e-06
-5.07524e-06
-4.70471e-06
2.79974e-05
1.18197e-06
-4.78264e-05
2.63086e-06
0.000145681
5.65454e-06
8.54285e-06
6.98654e-06
1.00026e-05
1.37251e-06
-2.18347e-07
-1.84624e-06
-7.1167e-06
-3.54001e-06
0.000121513
-7.1165e-06
-6.43825e-06
-6.54362e-06
-1.69325e-05
-7.46516e-06
-1.31232e-05
-1.02132e-05
-2.73077e-06
-6.03112e-06
7.54262e-06
-1.18367e-05
3.51016e-06
1.08576e-06
7.23934e-06
-4.76875e-05
1.24815e-06
-4.51276e-06
5.3583e-05
-0.000114108
1.17191e-05
-4.49408e-06
2.01091e-06
0.000101332
-1.4775e-05
8.37954e-06
-9.31118e-07
7.328e-06
-8.15777e-06
4.28229e-06
-4.67898e-06
8.55436e-06
1.17495e-06
-7.88007e-06
6.83175e-06
-1.26636e-07
-2.36355e-06
7.52168e-06
-1.80949e-05
-6.00885e-06
1.54295e-07
1.87913e-05
7.15782e-06
-3.4861e-05
3.80943e-06
-2.76537e-06
-1.06415e-05
3.73006e-05
-5.24343e-05
3.96008e-06
-3.08719e-06
-7.88808e-06
5.74557e-05
1.99387e-06
-6.05042e-06
-2.71552e-07
-6.83075e-08
1.5054e-07
3.66202e-06
2.57772e-06
-1.45573e-05
-1.58763e-05
0.000116423
2.04168e-06
7.24267e-06
3.01843e-06
9.02e-06
-1.06218e-07
-2.66571e-06
7.54986e-07
-1.38659e-06
-2.57726e-05
-3.0577e-05
0.000187294
1.09223e-05
9.16572e-06
1.25424e-05
1.07966e-05
-7.21368e-06
-2.07738e-05
0.000169523
8.36236e-06
5.63257e-06
9.73337e-06
6.71905e-06
-5.86749e-06
-5.84498e-06
-4.07898e-06
-5.23808e-05
5.52121e-06
-9.18564e-06
4.88311e-05
-3.62102e-06
2.68821e-06
-2.85955e-06
3.79175e-06
4.06022e-07
-1.19578e-05
-1.58841e-06
7.3744e-07
6.89433e-08
1.23338e-05
-1.81188e-05
-1.02358e-05
0.000131085
3.12699e-07
3.78498e-07
1.16918e-06
9.80204e-07
-1.78292e-05
-2.52162e-05
0.000149514
-2.14527e-06
-1.54167e-06
5.22255e-05
-4.02229e-06
-2.57333e-07
-1.15846e-06
-1.78816e-06
-3.32639e-07
-8.80315e-07
-4.98655e-05
4.46092e-06
2.06888e-06
-2.84662e-06
4.4037e-05
-3.30472e-05
6.62342e-06
-6.75796e-06
-8.33261e-06
3.81984e-05
3.31592e-06
-4.02831e-05
-4.53951e-06
0.000164196
6.27957e-06
1.08804e-05
7.37181e-06
1.19929e-05
-6.27305e-06
-6.64877e-06
-7.53098e-06
-6.66557e-06
-1.20027e-05
0.000110453
-5.76352e-06
-5.59202e-06
-4.89786e-06
-7.07139e-06
-8.71977e-06
-3.72649e-06
-5.11865e-06
-3.52854e-06
-1.5479e-06
1.98785e-06
-3.87857e-06
1.78318e-06
1.76229e-06
3.32076e-07
-6.10876e-05
1.13433e-05
-1.99826e-05
6.51875e-05
-7.83905e-05
1.63706e-05
-3.0848e-06
1.09682e-06
5.20052e-05
-4.48458e-06
1.7258e-06
3.82783e-07
2.37481e-06
-9.37285e-06
5.47443e-06
-6.56331e-06
1.04617e-05
-1.12145e-06
-9.34574e-06
7.86382e-06
2.60336e-06
-1.6341e-06
9.98131e-06
-2.03084e-05
-9.3032e-06
-8.13415e-07
2.20779e-05
8.92922e-06
-3.97352e-05
7.3304e-06
-6.6058e-06
-1.16223e-05
4.17036e-05
-6.12739e-05
7.40099e-06
-7.20488e-06
-8.11877e-06
6.29103e-05
6.28626e-06
-6.58335e-06
-1.1084e-06
-5.93194e-06
1.93386e-07
4.01734e-06
9.41297e-06
-1.76862e-05
-1.83569e-05
0.000126796
2.4158e-06
8.60563e-06
2.98401e-06
9.77551e-06
9.58881e-07
-8.96231e-07
1.38623e-06
4.39528e-07
-2.4019e-05
-2.67346e-05
0.00017716
1.11144e-05
9.27127e-06
1.22293e-05
1.05863e-05
-6.59119e-06
-1.59147e-05
0.000152567
7.56387e-06
6.10083e-06
8.76007e-06
6.5031e-06
-3.57679e-06
-6.42352e-06
-3.48453e-06
-4.62986e-05
5.84018e-06
-8.81881e-06
4.26856e-05
-3.89013e-06
2.84632e-06
-3.01319e-06
4.0566e-06
6.04843e-07
-1.31442e-05
-1.83595e-06
4.98308e-07
-6.86126e-08
1.39456e-05
-9.27814e-06
-1.33296e-05
0.000137343
-4.04475e-07
-1.47784e-06
7.04443e-07
-8.29341e-07
-1.33456e-05
-1.09867e-05
0.000137834
2.65019e-07
-3.17693e-07
2.77638e-05
-1.7064e-06
-1.28609e-06
-1.94861e-06
-2.57333e-07
3.27036e-07
1.2555e-07
-3.79135e-05
3.82214e-06
1.85325e-06
5.66981e-08
3.24465e-05
-4.40028e-05
7.89174e-06
-6.46336e-06
-1.06045e-05
4.8557e-05
4.62193e-06
-2.49007e-05
-7.24572e-06
0.000174039
4.23854e-06
1.03047e-05
4.90844e-06
1.02133e-05
-8.26175e-06
-6.95888e-06
-5.47014e-06
-4.97792e-06
-1.94841e-06
9.4782e-05
-4.33376e-06
-3.92485e-06
-3.66246e-06
-1.27281e-06
1.09342e-07
-2.05533e-07
9.18327e-07
-2.79469e-06
8.11677e-08
-3.50041e-06
1.61787e-06
-9.628e-07
1.73203e-06
-2.38746e-06
-6.66749e-05
1.4292e-05
-2.2004e-05
6.71412e-05
-3.14985e-05
1.00687e-05
-3.9655e-06
2.9766e-06
2.04703e-05
-8.6842e-07
-5.2061e-07
1.67817e-06
-2.85611e-07
-1.15859e-05
6.40887e-06
-7.48957e-06
1.26646e-05
-4.42119e-06
-9.81232e-06
7.66518e-06
6.56833e-06
-2.02105e-06
1.15296e-05
-2.457e-05
-1.17304e-05
-2.20897e-07
2.70128e-05
8.75551e-06
-4.34596e-05
1.00165e-05
-9.19013e-06
-1.06652e-05
4.4543e-05
-6.34465e-05
8.14061e-06
-9.34655e-06
-7.64642e-06
6.33219e-05
8.97689e-06
-6.21851e-06
-1.41381e-06
-1.27211e-05
-2.45894e-07
4.65743e-06
1.59419e-05
-2.10605e-05
-1.51427e-05
0.000134935
1.52055e-06
8.08554e-06
1.38057e-06
8.71003e-06
2.19474e-06
1.20886e-06
2.52142e-06
2.44319e-06
-2.38942e-05
-2.43785e-05
0.000164401
1.03101e-05
8.5736e-06
1.13204e-05
9.76651e-06
-6.41969e-06
-9.15716e-06
0.000132093
6.08149e-06
5.39166e-06
7.04136e-06
5.33522e-06
-3.56993e-06
-6.03576e-06
-2.08833e-06
-3.90025e-05
5.31348e-06
-8.05865e-06
3.53264e-05
-4.26774e-06
2.55292e-06
-3.01586e-06
4.73024e-06
1.2428e-06
-1.53997e-05
-2.96601e-06
-2.18651e-07
3.20871e-07
1.70207e-05
-4.70909e-06
-1.03965e-05
0.000142558
-5.87316e-07
-3.00314e-06
4.0352e-07
-2.06473e-06
-1.37695e-05
-3.63499e-06
0.000126151
-5.19546e-06
8.41099e-07
1.61507e-05
-3.06906e-06
-4.36523e-06
-1.8645e-06
7.0168e-07
9.4059e-07
6.97225e-07
-2.68424e-05
1.58352e-06
-2.38929e-06
4.09571e-06
1.8357e-05
-5.31075e-05
7.58646e-06
-4.60311e-06
-1.06059e-05
5.60852e-05
4.64486e-06
-1.42495e-05
-5.81693e-06
0.000175448
1.13093e-06
7.52698e-06
1.45936e-06
6.90516e-06
-2.84746e-06
-4.57095e-06
-1.343e-06
-3.56593e-06
1.86713e-06
8.37403e-05
-2.97886e-06
-3.11996e-06
-2.38076e-06
3.68135e-07
2.27226e-06
6.95178e-07
5.36153e-06
-2.37188e-06
4.26425e-07
-6.14091e-06
2.72678e-06
-2.1428e-06
2.26879e-06
-2.85224e-06
-6.58252e-05
1.2212e-05
-1.50735e-05
6.28698e-05
-1.64982e-05
3.45807e-06
-1.43841e-06
-4.17146e-07
1.67628e-05
7.80511e-07
1.36563e-07
2.28024e-08
-9.38226e-07
-1.38383e-05
6.659e-06
-7.65494e-06
1.48343e-05
-8.78496e-06
-9.01663e-06
6.66349e-06
1.11381e-05
-3.29047e-06
1.15664e-05
-2.97685e-05
-1.22437e-05
1.73704e-06
3.19992e-05
8.10749e-06
-4.55665e-05
1.05636e-05
-9.88209e-06
-9.57403e-06
4.63515e-05
-6.30976e-05
8.08194e-06
-9.71576e-06
-7.13717e-06
6.24959e-05
9.37271e-06
-5.92389e-06
-8.84896e-07
-1.88123e-05
-1.43406e-06
5.10341e-06
2.19517e-05
-2.15646e-05
-9.86971e-06
0.000140579
-5.50051e-07
6.42517e-06
-1.3128e-06
6.80788e-06
3.46385e-06
2.95673e-06
3.8553e-06
4.14397e-06
-2.22549e-05
-2.37682e-05
0.000152384
9.3753e-06
7.95585e-06
1.01828e-05
8.96197e-06
-6.49316e-06
-9.60784e-06
0.000115747
5.11525e-06
4.60487e-06
5.95088e-06
4.66573e-06
-2.53489e-06
-5.21297e-06
-2.39622e-06
-3.11724e-05
4.73176e-06
-5.92573e-06
2.5873e-05
-5.18942e-06
2.46097e-06
-2.9462e-06
5.6747e-06
1.80105e-06
-1.88087e-05
-3.90601e-06
-8.39613e-07
1.22401e-06
2.05293e-05
-6.27016e-07
-6.75989e-06
0.00014572
-4.57106e-07
-3.53562e-06
6.28104e-07
-2.28013e-06
-1.04875e-05
-2.52226e-06
0.000114765
-3.2556e-06
5.63229e-07
3.25594e-06
-1.82231e-06
-2.24678e-06
-1.03995e-06
6.69238e-08
5.11028e-07
2.29605e-08
-1.19389e-05
-7.65056e-08
-1.26327e-06
2.75729e-06
7.26582e-06
-5.84201e-05
6.46227e-06
-2.30103e-06
-9.19712e-06
5.96062e-05
3.84972e-06
-3.49676e-06
-3.47586e-06
0.000171927
-1.76851e-06
4.48076e-06
-1.22218e-06
3.89902e-06
-2.15352e-08
-2.66296e-06
1.02852e-06
-2.15335e-06
2.29816e-06
8.03601e-05
-1.32918e-06
-1.84615e-06
-1.02998e-06
2.11525e-07
1.463e-06
-2.52847e-07
6.8646e-06
-1.63261e-06
1.09795e-07
-6.93191e-06
2.76757e-06
-1.19539e-06
1.60509e-06
-3.17727e-06
-5.88821e-05
8.70314e-06
-8.43422e-06
5.51374e-05
-1.73792e-05
5.23725e-07
1.37972e-06
3.94411e-07
1.73795e-05
9.81316e-07
1.31973e-06
-1.25545e-06
-1.04539e-06
-1.55532e-05
6.45493e-06
-7.24901e-06
1.63473e-05
-1.34746e-05
-6.98776e-06
4.63463e-06
1.58277e-05
-4.77962e-06
1.04375e-05
-3.38574e-05
-1.15481e-05
5.04293e-06
3.47047e-05
6.24348e-06
-4.73887e-05
1.01533e-05
-9.65905e-06
-7.20759e-06
4.78585e-05
-6.17912e-05
6.95573e-06
-8.43812e-06
-5.33079e-06
5.98738e-05
8.73059e-06
-4.96217e-06
-6.03848e-07
-2.49859e-05
-2.62672e-06
4.99698e-06
2.81816e-05
-2.02476e-05
-3.19874e-06
0.00014583
-3.76559e-06
3.8118e-06
-5.30269e-06
3.52359e-06
4.62373e-06
4.41639e-06
5.10022e-06
5.78742e-06
-1.72938e-05
-2.12416e-05
0.000142845
7.40254e-06
6.05748e-06
7.72445e-06
6.64196e-06
-3.13774e-06
-9.24295e-06
0.000102066
3.54039e-06
3.46331e-06
3.99833e-06
3.04562e-06
-2.11254e-06
-1.64293e-06
-1.52448e-06
-2.07534e-05
2.37744e-06
-1.63667e-06
1.68749e-05
-6.33311e-06
2.33364e-06
-2.86682e-06
6.86629e-06
2.28782e-06
-2.22991e-05
-4.29631e-06
-1.67853e-06
1.73378e-06
2.42523e-05
2.25393e-06
-7.05204e-06
0.000150435
2.37059e-07
-3.18409e-06
1.50372e-06
-1.67238e-06
-5.24905e-06
-6.47969e-06
0.000107506
-1.47507e-06
-3.112e-08
-5.84651e-06
-8.91645e-07
-5.29729e-07
-6.65354e-07
-8.36286e-07
-8.44073e-08
-8.75938e-07
-3.98324e-06
5.92609e-07
3.45816e-08
5.95661e-07
1.28532e-06
-6.04172e-05
4.81539e-06
-3.73706e-07
-7.27204e-06
6.03814e-05
2.86613e-06
3.9297e-06
-2.24367e-06
0.000170571
-3.37831e-06
2.45499e-06
-2.21786e-06
1.71644e-06
-6.65397e-07
-2.2046e-06
-3.08738e-06
-8.66254e-07
-1.52979e-06
8.83602e-05
-1.2661e-07
-5.81211e-07
1.58433e-07
-1.96478e-06
-3.20918e-06
-2.43066e-06
7.09902e-06
-9.23723e-07
-2.97807e-07
-6.77487e-06
3.584e-06
-5.07944e-07
8.92589e-07
-3.96849e-06
-5.14311e-05
5.45674e-06
-3.63433e-06
4.7365e-05
-1.66467e-05
-2.80848e-06
5.20987e-06
-1.95622e-06
1.46717e-05
4.20162e-07
1.73823e-06
-2.61922e-06
4.61971e-07
-1.70003e-05
5.81851e-06
-5.94293e-06
1.71247e-05
-1.80939e-05
-3.75888e-06
1.62953e-06
2.02233e-05
-6.19684e-06
7.87717e-06
-3.46862e-05
-1.01598e-05
8.71624e-06
3.44494e-05
4.35654e-06
-4.79846e-05
8.61532e-06
-8.13249e-06
-4.48817e-06
4.76334e-05
-5.77982e-05
5.01293e-06
-6.63712e-06
-3.03763e-06
5.55622e-05
6.89776e-06
-3.53055e-06
4.43842e-07
-3.10711e-05
-4.03565e-06
4.54753e-06
3.36459e-05
-2.02854e-05
5.35188e-06
0.000155354
-7.45105e-06
-9.13076e-07
-8.03276e-06
-3.40095e-06
5.6099e-06
5.97629e-06
6.11464e-06
7.5064e-06
-1.3807e-05
-1.35084e-05
0.000136113
4.11475e-06
3.50964e-06
2.92848e-06
3.20992e-06
-1.82461e-07
1.70218e-06
9.03971e-05
5.10366e-07
5.22412e-07
-5.33914e-07
-2.23851e-06
-1.1459e-06
2.53649e-07
-1.0258e-06
-1.39867e-05
-2.33578e-06
3.17489e-06
1.2965e-05
-7.42077e-06
2.24357e-06
-2.70929e-06
7.88649e-06
2.9614e-06
-2.64073e-05
-4.11404e-06
-2.78338e-06
1.64149e-06
2.87019e-05
1.31757e-06
-6.50533e-06
0.000158529
1.43013e-06
-2.07343e-06
3.14995e-06
-6.09804e-08
-2.2362e-06
-7.48361e-06
0.000105035
-3.18551e-07
5.17741e-07
-4.43741e-06
-5.67222e-07
-5.26231e-07
-6.2736e-07
-3.53433e-07
3.14282e-07
-3.82349e-07
1.82508e-07
-6.67349e-07
2.27633e-07
3.15499e-07
-3.76842e-07
-6.01582e-05
3.89064e-06
2.97812e-07
-5.8203e-06
5.94462e-05
2.34382e-06
6.52308e-06
-3.46101e-06
0.000177552
-3.37649e-06
2.2995e-07