/*--------------------------------*- C++ -*----------------------------------*\
| =========                 |                                                 |
| \\      /  F ield         | OpenFOAM: The Open Source CFD Toolbox           |
|  \\    /   O peration     | Version:  5.x                                   |
|   \\  /    A nd           | Web:      www.OpenFOAM.org                      |
|    \\/     M anipulation  |                                                 |
\*---------------------------------------------------------------------------*/
FoamFile
{
    version     2.0;
    format      ascii;
    class       volScalarField;
    location    "0.4";
    object      Ksl;
}
// * * * * * * * * * * * * * * * * * * * * * * * * * * * * * * * * * * * * * //

dimensions      [1 -3 -1 0 0 0 0];

internalField   nonuniform List<scalar> 
10571
(
4726.24
3206.46
5193.09
3363.69
3832.1
1841.15
4116.35
1648.28
4415.92
6276.21
3510.84
1841.66
2999.84
539.114
974.988
5123.65
3037.91
1226.78
1005.95
6899.21
9207.55
1648.12
2024.95
4690.14
125.341
79.682
99.089
34.0789
82.5715
6.23479
120.82
212.322
161.992
67.9594
16.6363
19.2
112.914
534.301
283.194
796.656
5.52017
52.9446
175.636
533.741
129.392
52.5017
118.891
190.925
14.8798
73.3009
59.4964
5.82716
42.0424
0
11.8993
8.25977
88.6933
61.7523
36.1081
-4.70011e-15
44.8576
3.09036
227.273
883.511
25.7339
13.7022
16.9994
43.0224
262.143
37.8432
63.6972
261.086
0
36.7697
51.4238
7.02983
72.7308
8.3558
48.4924
4.15293
83.1938
56.6306
53.9942
0
19.3415
2.53379
101.462
593.222
32.4454
12.1366
13.4971
31.5992
875.183
50.6451
27.75
77.0507
38.2013
62.6375
36.4435
2.11145
38.5291
13.7343
5.38489
5.89382
65.5183
27.5001
52.2651
9.05237
15.2521
3.02585
54.9616
598.978
26.9121
16.0603
14.1519
33.2066
1441.36
18.536
26.6562
120.568
0
35.8678
41.1588
1.40042
62.2601
0.254029
2.18281
7.78959
49.2158
47.5241
1794.81
33.1278
-7.22374e-15
16.2752
4.33548
26.9923
635.815
6468.21
25.2296
17.8442
15.1069
15.4111
1181.26
16.8403
31.6884
111.013
13.3542
63.6954
8.7411
13.1979
100.079
11.3151
2.37592
4.77734
59.5447
23.6721
0
48.5218
7.04467
27.9124
5.36235
16.7527
556.442
0
21.9818
14.1555
23.6578
30.1235
676.547
0
10.4959
37.9413
135.883
5.75942
34.7577
140.086
39.6913
144.313
6.29753
2.11759
7.13234
62.2711
51.7985
0
37.8475
0
8.79614
3.15409
15.9066
1361.47
0
49.5597
5.95146
18.7935
8.95749
1365.37
0
11.5888
36.3837
499.866
5.69046
15.9435
209.197
20.0939
55.2767
19.2131
8.03563
9.97182
34.0637
23.7904
0
15.8218
0.264201
58.3907
2.15719
20.5116
3151.06
0
58.6602
13.8223
56.4899
24.4314
1427.68
6.75873
40.924
851.521
5.55689
51.5703
136.333
22.1916
59.8941
15.669
8.7352
5.70334
39.7427
10.3818
64.9603
12.4241
4.39347
6.74166
248.868
5149.41
50.4506
10.2092
39.52
11.9468
1706.28
25.3103
27.2383
1897.88
0
31.995
118.234
8.93932
35.9125
30.3349
7.35806
4.12123
25.3705
63.5329
88.294
177.065
1.64181
5.64057
652.013
11217.3
53.3287
8.96349
82.6041
44.6819
2133.91
18.5534
29.4562
2697.76
15.0167
26.6792
104.057
7.66818
14.6834
19.9685
3.32466
10.8417
11.4148
54.4157
70.2603
147.102
6.0711
25.6208
698.195
9149.23
80.9797
43.0927
564.877
843.406
2240.58
14.2022
59.1254
3006.15
0
24.0032
42.2164
16.4499
23.2978
32.0887
5.94986
76.8022
11.1114
34.7199
16.7693
232.454
11.4666
26.7706
542.076
9002.06
99.8645
139.615
323.408
2633.46
1796.12
16.204
66.1635
1986.5
22.0225
10.5236
17.5057
20.1613
18.1498
44.3724
5.64422
120.445
7.42228
37.2632
20.3849
104.834
7.45482
65.5825
404.275
6511
79.8845
102.294
151.698
1328.34
3523.22
21.2975
181.455
2695.4
21.1798
48.9479
5.43782
23.5562
31.5907
44.1334
4.75535
98.0144
9.19301
21.5875
47.0659
42.7505
5.09758
6.15934
253.565
4586.48
116.468
47.3575
61.5719
1122.45
2977.4
34.9641
144.498
2175.04
0
36.6395
28.8568
34.0561
50.2578
47.6609
7.52614
6.59125
7.63015
17.834
89.448
45.1692
2.58511
0.860499
215.634
3357.88
102.255
27.7886
59.7375
758.429
2569.14
185.585
52.2479
1409.58
23.6531
24.9557
33.838
40.5658
44.6996
36.9895
4.35092
27.435
6.96217
19.4597
92.3837
21.4217
0.867126
0.830036
217.832
1979.65
44.7008
19.8005
72.3605
710.114
2584.5
24.9023
11.0882
533.071
42.4306
15.2699
33.7179
37.0821
57.2394
51.5173
21.4703
31.2671
9.27415
37.4772
40.3549
23.8288
0.901224
1.6689
235.543
915.418
16.8506
41.8408
58.0903
1180
2457.29
17.9591
4.86565
236.476
70.4315
21.0284
16.2624
63.0096
66.9082
6.47947
18.8839
12.2652
13.1473
46.4012
28.3418
21.9971
0.852336
1.90242
226.25
351.627
20.107
63.8541
42.5485
1553.86
2386.47
27.3446
17.4525
105.068
23.0353
-6.06094e-15
18.5078
50.5399
61.7684
11.1538
79.9186
123.393
12.0547
65.5797
-1.32905e-14
77.2873
11.2634
133.37
248.614
237.393
4.0128
34.336
29.9071
2018.02
3394.96
4.53356
4.72252
45.4161
0
14.8689
7.17884
18.9258
14.1041
2.18772
83.0337
44.827
7.06904
48.4772
-2.28496e-15
32.2402
18.4686
21.3831
266.692
100.23
5.40129
11.5313
18.7356
1800.2
2843.89
13.362
4.20211
12.3155
59.9723
36.0571
0.175145
31.0498
8.98475
6.4193
11.8183
6.45226
5.40468
5.94917
20.1675
9.67112
10.1403
24.9489
268.404
20.4414
-4.39025e-15
6.33198
9.79572
1729.72
2169.14
8.3757
5.21028
0.481763
1.6462
18.7666
33.3753
12.2132
17.6981
6.87102
9.6982
1.37118
9.38743
18.3358
70.3529
0
9.08899
24.743
262.589
3.02953
4.90233
8.99517
3.71476
2191.32
973.164
37.0893
0
0
44.3678
11.0338
13.6122
35.0558
4.37965
-3.75382e-15
4.4715
8.6357
10.3474
4.03287
18.5241
0
36.8351
8.33563
241.375
6.94588
2.16629
2.54129
1.60022
3041.38
681.921
9.22698
-3.96676e-15
-6.54197e-15
21.6032
10.2803
22.7298
32.1446
0
13.0725
1.04692
75.6857
12.8057
12.7498
45.2889
-1.53317e-16
8.72258
3.4199
226.493
-2.16611e-17
0
2.78925
4.56011
2991.33
294.463
12.1193
0
17.5653
21.9886
0
5.71107
1.38729
0
6.49405
0.77352
1.49014
4.03898
0
0
0
0
9.88337
233.906
12.6406
8.64498
3.09408
5.12968
2146.32
162.376
0
3.20721
13.3038
0
20.8807
4.07639
0
3.80147
3.77979
0.765796
1.31773
4.19674
6.513
0
0
0
34.1692
236.341
1.29154
8.94305
0.697961
12.1381
3658.84
51.6238
13.2518
3.7189
12.3358
17.1557
72.0024
5.66321
5.5546
0
0
0.771031
0
-9.12175e-16
0
0
0
0
60.673
168.766
2.02051
4.96305
0.792356
33.4722
6058.89
38.8779
3.72984
-3.3853e-15
11.0721
0
0
1.21644
4.02424
0
6.5018
7.0156
0
0
6.20781
18.7609
0
0
87.5559
133.511
0
0.198888
0.526336
41.1435
6055.74
39.0868
0
7.74378
40.26
0
9.77717
5.82005
0
4.63803
0.52289
20.2227
1.33069
0
6.17556
0
0
0
122.079
131.242
5.87605
-4.47318e-15
0.652657
51.8463
4514.03
65.4068
7.79196
3.07472
35.341
21.5834
0
15.5309
5.85908
0
0
13.0167
4.97161
0.715329
0
0
0
1.60521
138.642
105.648
7.8686
0
0.661899
66.1642
4045.9
82.7457
0.322076
6.66705
64.6233
59.4049
9.95431
5.75234
20.9969
0
0
15.5263
6.45568
1.89647
7.67888
0
0
-4.63093e-16
156.076
48.8876
10.8161
0
0.650179
78.7707
2789.17
130.466
0
11.0048
51.6976
3.36771
10.1892
15.2838
12.9403
0
6.48141
16.9971
11.2673
0.0245192
1.27544
0
9.52584
0.178607
138.37
27.4853
0
0
0.0522851
80.0801
2119.79
107.199
21.7158
7.1649
98.551
0
20.1052
43.1759
34.2663
0
18.8135
32.7576
19.1537
2.56879
0
7.32912
0
12.5998
131.025
16.8712
0
0
0.645398
50.69
1535.91
110.394
-5.70236e-15
11.6437
50.1197
21.8537
11.4334
0.404721
18.1115
9.88001
117.643
38.8253
22.171
1.17849
6.03094
0
5.89498
28.3337
119.738
10.1119
22.0016
0
2.95346
41.9338
808.286
201.62
0
22.5111
104.216
26.6377
6.98136
9.73838
15.4448
0.729211
6.48133
19.3902
15.8747
2.2902
6.27356
0
12.8444
17.4173
85.9624
12.5234
9.42734
0
6.50399
37.4608
432.763
301.698
6.58761
17.2902
127.361
39.6126
24.5768
19.1006
0
20.35
17.5556
20.021
14.4334
1.9921
12.2145
0
24.2455
14.2042
75.9584
24.1968
66.0294
0
6.23367
22.719
344.499
514.181
-2.24294e-15
50.9827
164.218
0
10.4541
0
13.8866
9.99989
17.0443
13.8806
19.5052
6.37384
5.86104
0
17.2097
10.6839
72.5848
16.8615
89.8313
0
3.44222
20.9467
253.964
708.312
0
6.09734
198.825
0
15.0293
11.2035
19.4197
13.3752
6.22643
21.4693
13.2902
7.8158
13.3281
0
31.5819
15.2364
56.1151
18.2839
189.853
0
4.34999
27.5539
123.065
754.117
2.26528
12.2037
390.136
7.12925
103.739
49.0087
17.0406
9.94887
18.1524
47.3142
21.4675
9.3781
27.155
0
16.143
11.4463
45.2008
10.7046
328.18
5.12207
2.17475
30.9826
151.417
653.61
0
11.6447
574.082
62.2457
50.6113
395.818
30.2305
9.68558
10.5937
114.902
34.9177
8.12847
75.5636
0.612582
23.3854
13.0225
39.8868
19.6052
584.833
5.65273
2.09929
17.9798
147.387
567.238
6.28585
28.154
814.445
-1.77521e-14
53.8948
1180.16
6.1214
682.136
55.5747
185.879
33.0385
17.1369
410.034
0
9.489
14.0044
42.3359
32.9564
182.718
0
6.5353
17.5501
171.746
223.175
5.94975
250.808
984.046
20.9658
570.586
218.296
2223.73
1275.16
1405.54
191.989
70.7765
224.991
2585.38
27.9087
1871.37
26.2692
38.7817
37.2984
76.1844
9.39662
140.502
18.3135
225.304
51.7898
945.298
1234.4
356.721
794.355
69.5296
11.048
0
37.9152
163.737
109.152
135.999
98.1582
80.3265
55.6603
610.171
81.8302
28.1171
50.652
51.339
1589.8
253.201
32.3214
167.017
86.0201
429.672
112.217
129.832
19.7734
23.0994
3.54553
0
19.2376
0
47.5484
50.1341
39.7117
43.6201
0
8.68761
100.645
28.7702
46.7709
52.4521
127.862
136.083
53.2818
127.226
130.134
28.3883
87.6393
12.3769
0
29.6391
32.2129
4.63216
45.2771
0
55.1848
26.7555
25.7694
38.8123
178.123
0
55.5466
33.3464
81.1831
75.2274
0
68.4834
78.3249
155.389
88.8731
61.9922
38.6376
57.829
0
51.8091
5.09027
-1.50479e-14
11.9415
0
28.3591
33.8134
20.0895
37.5097
271.691
0
37.6661
44.3951
81.9172
43.9069
0
23.1465
62.639
155.547
61.6127
22.0784
32.8266
101.383
0
54.0272
0
0
5.39595
6.73101
17.3075
35.6014
19.7741
12.4726
0
-2.54329e-15
13.1744
54.6454
111.52
50.6618
8.32436
17.4618
81.044
123.343
76.9418
39.2875
48.6677
59.4335
3.33264
24.4709
0
0
16.0624
10.9959
7.81926
16.1819
20.4982
0
0
0
3.86178
50.3548
95.0664
64.5223
0
14.8294
69.5206
103.859
55.5987
21.8504
35.8686
81.6877
65.7782
1.34784
3.8613
0
3.51283
4.64139
1.98806
17.8386
26.0005
12.7449
0
7.14477
4.5375
59.5981
87.5086
28.4145
13.4308
17.3814
61.6269
62.5179
39.2571
29.6462
29.9955
64.3871
15.5658
0
33.0746
0
6.23158
0
1.33452
18.9521
34.2189
25.4692
0
4.46593
6.49238
49.3032
58.297
20.4291
7.65352
15.8952
64.5507
39.3385
57.7632
18.6692
35.3211
54.3818
0
0
79.8485
1.88009
2.54801
0
1.99428
14.6504
18.9234
34.0198
0
4.38948
7.07243
62.1219
41.0464
17.6834
0
9.95087
50.329
30.4456
92.5449
9.54077
53.5345
73.6457
0
0
-8.96841e-16
5.95504
13.0874
3.66898
6.13895
17.6421
20.6815
7.56508
0
0
11.0874
36.2043
45.2551
13.3812
0
9.37456
32.6763
36.591
87.8623
5.83402
40.383
19.0763
0
0
0
9.18379
4.17604
0
3.89155
10.5794
14.4762
12.7517
0
0
12.3953
27.3639
29.2185
18.2921
0
5.64408
35.1296
12.827
31.4041
7.95461
21.1517
3.67843
0
0
10.0202
27.4372
6.3751
0
2.50054
5.67759
15.7595
6.31914
0
0
6.59667
16.0191
30.4477
4.44103
0
5.89768
30.304
30.4485
80.5771
5.67661
27.9176
34.3721
0
0
0
0
4.56843
0
3.30954
9.20752
9.56106
6.32667
0
0
3.23922
13.6702
25.8824
4.15115
0
1.0927
15.2665
11.3494
85.4881
-1.5741e-16
18.7447
8.96426
0
0
4.75395
10.8968
-7.24753e-15
0
80.844
7.17886
5.18853
14.6939
0
0
2.94774
4.78805
16.5184
5.82316
0
0.565716
13.482
23.3456
121.703
0
23.5625
9.13034
0
0
0
0
9.56442
0
56.0924
25.5792
8.00012
4.57603
0
0
0.72431
0.683143
14.9075
10.1301
0
0
6.87416
15.1675
89.6013
0
44.2057
9.64877
0
0
0
0
0
0
0.595225
15.3874
4.06966
0
0
0
0.697576
2.78287
11.7054
20.8139
0
1.89929
1.68036
21.0008
109.587
6.1558
22.9015
9.59201
0
0
0
0
0
0
0
17.7446
0.767269
6.67507
0
0
2.75469
6.19057
7.79878
24.5131
0
26.3204
8.83617
5.10699
125.799
0.114714
49.1221
51.1506
0
0
0
0
0
0
0
18.5158
10.1045
0
0
0
5.1164
12.4447
50.1099
66.1354
0
7.32997
16.3031
0
191.769
0
0
73.3727
0
0
0
0
0
0
0
1.01138
35.5369
22.4987
0
0
0
-3.29141e-16
20.2509
154.721
0
0
1.54289
41.3576
197.298
0
0
0
0
0
0
0
0
0
0
0
0
0
0
0
0
0
0
42.1928
0
0
0
0
0
0
0
0
0
0
0
0
0
0
0
0
0
0
0
0
0
0
0
0
0
0
40.6255
0
0
0
0
0
0
0
0
0
0
0
0
0
0
0
0
0
0
0
0
0
0
0
0
0
0
0
0
0
0
0
0
0
0
0
0
0
0
0
0
0
0
0
0
0
0
0
0
0
0
0
0
0
0
0
0
0
0
0
0
0
0
0
0
0
0
0
0
0
0
0
0
0
0
0
0
0
0
0
0
0
0
0
0
0
0
0
0
0
0
0
0
0
0
0
0
0
0
0
0
0
0
0
0
0
0
0
0
0
0
0
0
0
0
0
0
0
0
0
0
0
0
0
0
0
0
0
0
0
0
0
0
0
0
0
0
0
0
0
0
0
0
0
0
0
0
0
0
0
0
0
0
0
0
0
0
0
0
0
0
0
0
0
0
0
0
0
0
0
0
0
0
0
0
0
0
0
0
0
0
0
0
0
0
0
0
0
0
0
0
0
0
0
0
0
0
0
0
0
0
0
0
0
0
0
0
0
0
0
0
0
0
0
0
0
0
0
0
0
0
0
0
0
0
0
0
0
0
0
0
0
0
0
0
0
0
0
0
0
0
0
0
0
0
0
0
0
0
0
0
0
0
0
0
0
0
0
0
0
0
0
0
0
0
0
0
0
0
0
0
0
0
0
0
0
0
0
0
13317
8570.58
11876.1
12495.7
6496.45
12345
11026.9
10152.4
12363
12321.7
12155.8
12171.2
10323.6
9711.68
9632.83
9568.71
7452.01
10474
11926.3
10320.1
10657
10583.3
8447.77
7744.35
7631.54
8687.17
12369.2
10461.3
12500.8
11615.4
10649.3
10553.2
7743.74
8296.32
7745.98
4338.57
9901.8
10472.4
6314.97
10234.6
8701.76
7458
7853.46
8154.77
8332.96
9369.08
11033.1
12828.6
10533
12278.5
11451.5
10921.4
7233.06
11433.2
9678.84
5461.4
10055.5
8502.9
10031.1
11447.6
9034.98
11811.3
8872.22
6976.61
8400.74
7560.23
9334.26
10361.3
12060.1
10999.9
11207.6
11063.9
10038.8
12274.7
11357.8
9985.44
10822.4
7911.04
8733.83
12225.2
8689.87
11885
7919.76
7855.37
9573.82
9103.17
10588.2
11066.1
10265.9
9443.62
9483.72
5263.45
11643.6
8304.95
5233.32
10704.4
4016.88
171.947
4412.49
4154.4
3536.83
954.526
1134.8
3870.56
1936.82
3164.27
4183.28
4645.01
3910.46
4610.91
2854.14
3329.32
142.844
3563.17
3514.87
3564.61
107.631
185.482
546.357
1704.42
6394.51
3437.68
6620.7
3736.77
462.471
8046.43
1529.07
8396.39
1147.05
3309.15
3473.42
3292.17
548.712
259.227
1509.89
3670.3
4701.09
611.089
237.73
78.1621
1985.13
3234.31
769.418
1699.46
1070.18
2167.56
3977.98
1036.52
133.27
373.183
4300.16
690.56
1796.34
3818.98
3213.31
722.134
3628.75
126.52
429.45
9752.82
3564
5723.12
5812.24
2508.74
618.647
607.531
672.944
1852.03
128.47
4567.61
5875.24
368.875
3654.65
3895.83
6205.69
3752.76
8128.2
4654.18
10436.3
483.499
0.510733
38.3166
36.0361
61.2105
55.614
20.6581
21.0895
32.0471
46.9512
24.6918
-1.17003e-14
10.2148
12.7079
81.0246
10.8466
36.5748
20.4675
78.8778
26.4166
64.8853
75.1088
56.1747
25.2275
22.8565
41.4633
296.803
98.9536
22.6316
15.904
32.4193
34.0891
55.733
135.19
32.2017
17.861
19.4732
13.8217
0
16.3418
168
95.4056
80.3837
127.86
58.6566
16.9392
73.7194
19.2924
41.8245
34.5632
120.179
358.942
830.814
175.868
461.942
28.738
10.8817
23.8119
71.7518
81.2869
32.8912
-5.04675e-15
55.2463
70.5827
318.125
249.923
213.388
90.5652
289.44
165.378
151.07
164.668
156.882
175.193
70.7888
42.1464
81.6162
24.769
0
134.881
193.092
79.442
198.584
16.8144
172.449
46.2366
12.8991
0.64066
12.3807
13.721
20.8733
21.1975
30.5383
4.92826
6.5855
17.0014
10.4909
27.9823
12.9154
18.6681
11.9281
24.5619
82.9431
35.3548
41.1574
46.141
35.4669
25.5653
10.8915
48.6958
21.3389
45.5912
33.0904
51.1925
39.5548
34.7409
114.44
65.6651
4.59225
19.1321
21.6042
23.8079
-5.89851e-15
20.6384
135.899
46.5942
58.7746
119.312
66.5437
39.3494
0
43.1225
19.0075
13.5317
167.06
631.751
700.171
176.497
834.2
-9.82341e-15
0.459766
9.41064
44.7939
116.915
11.1417
9.51704
75.6821
69.1183
302.335
202.116
127.265
99.7262
473.085
173.693
296.179
395.136
177.912
89.537
12.9809
0
29.2055
-7.84767e-16
0
96.853
-2.5611e-15
26.8363
139.088
11.3798
140.091
66.4262
-1.51925e-15
0
43.8219
14.997
38.265
24.1209
5.71838
0.238827
61.6116
0
23.6345
23.5764
23.0362
25.9958
37.5049
37.8613
53.6428
25.9669
23.7347
51.412
62.2868
11.0682
36.7666
69.6619
21.7107
65.0258
30.8963
163.164
33.3086
74.656
92.621
67.1198
43.6562
0
22.1394
42.3848
0
16.9157
74.6164
36.9171
20.4166
71.8224
23.6599
10.8333
33.0404
16.1633
9.58629
13.377
103.941
1106.16
586.257
78.2667
1598.69
61.3469
-1.47132e-14
5.83179
50.4721
87.9499
16.3136
18.1792
53.485
51.3456
365.75
232.581
340.943
46.459
400.737
211.916
460.008
1130.35
110.487
70.6159
27.1486
0
55.2586
9.46886
0
73.4172
18.2258
24.3011
97.2979
67.502
116.758
20.6867
-1.11653e-14
-6.15046e-16
36.1211
33.8134
19.4896
67.4625
47.9977
11.5298
21.4503
-3.12446e-14
22.6518
32.0225
4.35441
21.4191
12.2943
0
55.2589
16.3237
20.3948
34.1402
38.7135
17.3616
11.2691
168.892
13.9371
96.4713
61.9065
100.771
20.8245
66.3681
57.526
0.420712
22.0051
19.8282
-5.04825e-15
27.0961
20.0041
14.3666
98.2067
281.449
10.6984
83.4025
154.984
11.7496
6.0393
22.7626
20.1805
21.3904
532.259
1697.93
601.3
553.865
1702.56
24.9472
20.8731
0.228503
59.3493
70.1065
14.2623
13.7734
73.3223
83.2126
463.014
110.512
507.107
10.3363
383.462
129.066
530.06
1615.7
109.3
163.565
-4.14603e-15
0
56.6546
0
26.9807
72.7868
12.9384
26.4686
42.7287
13.3129
54.9913
45.0524
49.3756
19.8837
41.0061
27.9625
59.3271
14.5272
24.6521
35.0197
13.159
5.76984
42.8767
2.43258
4.84004
26.7305
0
25.9774
56.8133
9.72974
22.8608
36.0458
28.5996
11.3433
35.0829
133.171
9.04392
24.7475
67.5244
73.0154
46.9586
19.523
19.2314
17.9955
8.76177
20.4841
1.95417
14.5838
-3.68028e-15
27.9758
83.2136
71.9366
644.967
27.1313
4.40661
81.7779
47.4307
9667.23
6020.3
10182.5
2.29402
111.478
13.1606
210.901
17.5187
47.1103
1.04482
11.6979
13.8057
4841.08
1471.37
263.941
406.314
497.621
1444.09
198.778
13364.5
2152.63
11540.6
32.5079
221.785
6.57652
143.067
4.71976
22.1018
31.9061
66.5921
116.212
28.5434
11.2079
102.484
84.6507
312.547
195.799
785.718
23.9093
369.883
229.648
812.468
561.319
85.497
83.5385
25.278
-1.71296e-14
43.2925
5.44712
1.23578
80.9044
-6.12343e-16
22.9605
45.0235
17.629
118.863
10.9946
35.6696
40.0191
41.1123
8.95729
62.6669
32.8921
21.7436
31.5172
22.3236
50.4584
18.5111
41.9562
69.5582
48.0937
12.265
21.3428
59.873
24.8479
12.512
49.5792
65.3341
0.0684001
9.37915
88.1781
31.2018
30.3894
113.957
29.5577
29.3047
16.0916
9.80502
0
0.600174
0
1.34908
4.35577
0
1.50533
21.9242
0
12.959
13.9093
0
5.48295
0
192.739
61.7
64.5522
0.172617
192.686
66.2078
0
0
0
0
0
2.11683
0
25.0702
26.8314
-2.63065e-15
9.89999
8.83719
396.136
2157.28
139.958
836.468
433.6
2664.3
190.274
0
0
0
0
0
0
0
0
0
25.676
105.021
100.099
24.3891
33.1591
76.7718
81.9699
455.279
227.385
1061.78
12.2409
517.574
270.957
990.167
0.208628
856.625
22.6635
0
0
0
66.4258
88.8213
7.79623
0
16.8392
-4.94113e-15
0
87.7148
27.9133
39.0449
59.4426
-1.87608e-14
243.126
21.1569
38.4555
93.7937
47.6684
15.2525
39.5397
16.2112
23.6615
22.4964
109.014
-6.21318e-16
33.9669
104.957
111.778
79.1948
26.4185
20.6935
181.217
9.78196
16.4039
56.4533
114.027
27.5179
15.7853
62.3838
41.3624
25.4519
73.4357
51.3798
49.5817
21.3954
0.396538
0
22.0389
0
0
0
0
0
16.8896
0
11.6221
21.7392
0
5.82278
0
327.256
74.1138
53.6352
11.8713
288.451
142.215
0
0
0
0
0
0
0
12.1426
7.01009
37.5493
18.5635
14.0352
483.433
7330.15
193.52
2109.06
588.814
6802.61
189.517
0
0
0
0
0
0
0
57.0471
34.2265
18.6564
62.9162
76.4471
46.6021
10.8285
97.0241
103.139
627.425
452.231
1503.26
18.7274
874.469
711.815
1738.25
15.1242
1513.07
9.29449
0
1.19818
10.6063
80.941
96.3552
5.85114
0
30.6008
17.3262
0
82.6053
20.7514
34.748
125.031
4.00569
658.336
67.9106
12.3078
19.548
32.0569
39.3237
0.685291
40.9766
17.5965
22.1114
53.5606
25.2697
29.1667
61.5979
99.9223
47.7392
17.6461
30.4657
106.544
10.4806
28.1371
17.049
105.158
22.4944
17.5291
21.6206
22.948
45.5595
47.9978
46.3839
26.9434
45.2669
22.65
23.3229
14.0529
0
9.59778
30.7246
0
27.2017
7.08893
336.877
148.63
48.3544
-8.76976e-15
464.497
309.004
0
0
0
0
0
0
0
5.77081
0.272286
64.6792
23.6441
21.4
828.297
2631.09
216.105
4520.81
751.1
2713.42
148.317
0
0
0
0
0
0
0
40.3751
75.6288
30.1169
89.9743
88.7101
60.5446
61.8429
65.0251
102.219
1065.76
976.633
1726.89
4.05956
1026
1524.81
1818.38
1693.53
73.7489
68.016
15.3261
0
19.0488
7.62025
21.2537
152.608
0
46.3133
217.521
3.04219
1309.39
41.113
46.2523
1.03598
19.3831
36.9532
27.6469
35.9599
15.6905
22.2007
42.4736
-2.47658e-15
38.0079
61.5397
19.8347
100.112
26.16
-1.13712e-14
73.6699
22.0263
40.7722
34.7568
63.6721
15.5149
10.145
11.3669
24.0372
37.8317
29.9861
25.2589
9.74465
12.5713
34.9827
13.256
55.9102
9.64063
23.6413
80.235
74.2927
12.7744
418
419.51
32.293
348.396
670.877
11.669
21.1135
25.5524
12.0278
0
996.186
2950.09
7331.24
1450.16
4376.86
35.2533
8.15179
35.7786
47.2705
68.9763
61.0942
16.9686
113.548
91.3997
1416.4
1485.78
1894.79
3.61419
2028
1714.13
2331.83
1630.09
67.3534
43.8883
16.8448
26.078
7.8551
11.4948
3.99408
256.694
5.66817
34.9306
566.309
21.1308
2497.6
21.6205
0
0
21.6344
52.601
21.2826
-1.49213e-14
5.66658
34.0779
8.79931
9.40208
5.89006
35.172
12.0493
39.3101
16.1084
27.8979
37.9836
19.2826
27.817
25.3393
51.3835
27.1537
47.7734
21.7946
24.5342
32.7712
29.7815
-1.56621e-14
2.0737
15.0697
33.23
21.3389
91.3136
0
15.3256
92.1515
0
24.4072
321.564
677.211
15.7552
273.617
797.85
28.3538
65.5082
73.4313
21.9483
84.9507
1844.18
5402.67
8430.8
2546.7
7594.17
62.9358
42.5638
19.3249
130.512
49.8741
52.757
30.1016
114.162
57.504
3201.78
2579.39
3118.36
151.949
5461.21
3590.32
3456.12
2583.35
42.0629
48.3324
47.4627
21.4297
18.7591
12.7932
21.6446
1097.16
-1.70133e-14
72.7469
1419.24
63.9268
3122.38
50.3966
-2.99782e-14
0
21.1946
35.4149
9.49696
11.9617
37.4096
11.7725
25.4775
15.2224
12.2197
15.5287
65.0177
60.1906
13.0914
18.3583
37.8944
11.2276
10.5523
30.1718
35.9248
2.31257
22.7104
12.2507
49.8321
8.74783
18.7321
18.7161
6.12445
2.76598
12.2491
38.5337
32.37
22.168
22.6294
33.3336
21.3465
34.2725
255.238
753.732
27.5594
187.929
437.696
37.4718
56.8396
53.7869
39.9115
57.3986
2192.56
5313.59
10766.4
1256.73
6121.68
58.3609
43.8338
7.0805
185.592
67.5043
93.5219
45.0297
180.45
91.3538
7962.17
6160.26
3909.92
2088.62
10213.8
7969.25
4919.96
1702.86
35.2776
85.3816
4.39088
39.9604
33.7672
20.9386
39.8923
1068.7
13.9185
69.145
867.766
65.6279
2415.1
60.365
0.249561
21.36
43.3942
39.1158
42.0834
44.1187
47.9406
25.7003
59.515
0
10.0993
20.41
62.4657
11.3473
52.0359
34.9426
25.2009
29.0884
38.368
27.8778
58.7958
11.3375
38.4001
28.5701
6.08417
18.4072
17.7846
8.96007
23.747
10.6066
2.15555
24.5983
49.1672
21.9668
14.0208
38.0453
36.6954
6.25142
187.096
647.697
43.5369
183.782
691.498
38.9341
7.05345
83.0854
53.8586
33.5133
1073.47
7108.75
7105.61
908.375
8655.34
10.5181
58.0798
55.7021
155.404
104.44
147.055
80.0081
159.365
83.5883
10958.8
5674.87
2525.51
1988.61
4923.94
5079.85
1725.36
3326.54
28.707
26.2546
1.53245
47.14
14.2365
33.8009
0
782.358
44.4026
84.2983
696
24.6941
2138.45
60.0726
27.6831
0.736912
24.3399
46.7727
0
21.0681
47.0998
28.1403
7.01624
0
26.7122
95.8041
15.9571
125.773
31.0655
8.89057
43.3086
5.94207
20.8687
18.0667
40.7737
10.2546
15.7761
9.42213
5.58738
26.7563
49.1447
25.6873
25.9736
16.3629
12.2392
24.7575
11.4755
7.60406
39.2707
29.31
43.5794
25.2518
213.335
549.767
27.398
153.473
466.014
75.226
1.72922
54.1607
50.1026
63.6374
852.535
5745.1
5270.85
1176.98
6000.22
52.9743
82.6688
59.593
178.93
99.1843
106.964
82.3341
121.02
80.0857
10967
9165.27
2638.58
1140.31
8181.23
7319.42
3582
3225.54
80.3969
30.5846
30.858
67.1035
40.8512
109.366
172.932
661.605
115.06
377.032
512.111
118.543
2398.28
12.8182
0
1.91104
34.9013
29.9622
0
11.5322
7.39478
23.4531
123.569
0
43.4789
59.7173
61.2743
23.1485
8.64418
39.1328
23.9097
5.58672
13.6814
4.46278
12.4553
9.15118
24.0989
22.9839
5.99899
41.357
36.8356
46.2951
18.2596
17.2315
12.5641
25.025
20.922
17.4675
26.1358
14.4695
27.0557
27.284
129.039
228.343
38.7094
105.547
139.836
31.8742
38.2362
62.4393
38.7988
23.6043
800.9
5611.74
4470.65
510.991
4787.97
24.9034
28.2512
119.39
110.719
65.6509
114.373
86.7273
85.6128
57.2335
19668.4
7088.58
3287.76
962.64
5155.23
6153.09
3722.14
2918.5
35.3402
55.1113
136.308
146.206
86.8882
116.597
121.906
388.585
47.6043
48.6271
207.748
35.7258
1583.54
0
6.01168
0
41.357
11.1894
21.1246
36.7271
27.0331
18.4017
76.9484
23.8663
31.5766
47.4927
110.597
185.316
-1.2007e-14
47.1998
12.9772
18.343
5.80322
19.315
27.8546
6.51708
20.5279
42.1384
12.1315
22.5279
77.1829
52.1862
4.17665
9.12714
25.7126
26.3133
22.9691
89.0946
14.0272
17.5287
43.4231
12.6421
73.9286
69.9374
63.0681
82.3818
61.832
55.2936
36.8463
39.1253
23.7354
21.9507
350.562
4196.35
3183.6
184.344
2865.98
66.9724
45.0163
66.6098
142.541
84.6074
63.668
165.994
82.097
79.7128
6582.09
6469.21
3818.77
838.755
8397.39
6205.22
3515.99
2925.41
45.5606
84.1766
107.37
134.742
113.792
32.639
22.9222
102.135
46.8956
10.8868
71.5835
3.49331
1177.91
7.92615
1.34704
22.6781
21.6949
16.1196
0
22.8983
34.1884
25.2447
83.6541
17.324
86.7169
100.382
179.238
165.98
18.5628
31.3957
12.6937
9.73049
47.1297
26.5772
20.6214
43.269
38.8926
34.4425
12.1465
36.1572
54.6192
12.7772
0.303242
39.0494
54.9846
58.735
32.3607
83.5345
14.9961
14.908
45.9081
25.4654
46.3778
45.3732
46.0841
52.185
38.0929
19.904
6.75902
58.6075
34.4315
21.2675
112.399
4838.66
1247.76
76.2193
7437.4
21.4976
20.5616
119.883
72.1224
49.7178
24.783
61.7591
53.1483
86.0583
9201.28
3465.3
3426.63
757.754
10112.7
3479.61
4237.17
1882.91
88.3756
144.902
52.1294
80.4448
33.3253
24.7105
58.5182
43.5199
58.9078
14.2223
27.8076
-1.80808e-14
264.935
49.9
10.5382
22.3173
21.8922
5.8227
0
27.5512
5.82767
51.1552
32.0375
8.66036
89.2567
59.1727
139.811
133.852
19.9954
13.1153
6.66792
3.75751
36.4071
45.677
16.8114
13.9637
8.63507
82.1243
35.0663
11.556
51.1012
32.7168
8.43332
40.8546
25.103
37.5094
8.46202
0
21.2083
7.63228
106.845
56.9162
44.7412
-2.06292e-14
8.17667
30.37
31.9091
17.0603
36.8554
66.8502
7.97856
21.6733
36.5436
4365.12
533.504
36.9484
3774.76
16.4682
20.2312
77.9833
99.9251
88.8321
15.551
43.9385
38.6978
104.543
10615.6
7847.11
4443.4
1601.02
3676.32
5718.24
3470.57
2084.57
42.9904
36.5038
31.3661
-1.62688e-14
29.6533
12.9984
19.3024
18.1598
21.0949
13.8268
18.1335
20.788
149.37
13.2478
13.1492
22.4989
25.286
4.91529
0
-6.83815e-15
17.007
83.5715
45.9397
-1.36109e-14
71.96
13.1651
89.7151
74.4101
15.8713
29.3013
12.1303
5.35059
11.8273
20.8228
15.3006
9.32046
12.4081
56.2573
24.5718
42.6981
98.8929
105.067
31.2712
50.3239
45.8271
125.414
7.04231
57.8464
35.0358
14.958
80.9293
23.1804
28.8325
11.2315
89.5573
21.9317
-1.08887e-14
15.0616
38.4572
20.3725
5.97905
43.4645
9.47253
6312.09
263.333
22.4684
4611.4
7.62921
42.5815
30.5269
76.7348
54.9635
4.32178
19.5956
39.1746
75.3015
13184.2
4643
3385.74
1679.22
3386.96
3563.2
2941
2649.47
49.146
21.1214
23.8711
0
19.8882
5.51597
0
15.3398
-6.50426e-16
1.65238
12.7959
0
62.3657
0
0
0
29.4789
5.76727
0
25.456
23.1224
51.6833
32.8663
0
99.2216
26.0059
81.9193
38.7576
0
4.05717
5.97687
5.70774
0.215002
10.3032
15.2069
25.7188
6.36427
244.817
36.6619
155.974
65.3843
185.25
44.7657
163.917
194.775
96.715
9.85265
40.8349
25.3685
25.1478
0
29.7718
11.4375
13.636
22.152
18.3942
0
4.20569
29.4374
5.30068
16.2099
15.4395
33.3659
3332.51
172.36
26.5982
1616.88
-1.10927e-14
0.58933
12.8251
32.9584
41.4239
4.78666
5.8414
16.8382
24.8096
4648.92
2980.93
3209.08
1670.93
9108.92
1436.68
3538.01
2935.34
21.9445
23.9394
16.1223
34.6079
19.5772
23.0407
41.63
2.24264
20.3254
29.4479
12.6327
0
54.1831
0
13.8901
0
25.3457
9.03208
0
18.3582
13.6017
53.0477
14.0497
38.3369
70.696
24.9853
35.6421
17.9392
13.3368
26.7215
13.8427
22.4463
0
21.1495
20.1185
11.4534
0
52.261
25.8536
90.1634
12.7897
19.8384
23.9949
40.6178
47.342
25.5241
7.65607
27.4592
21.866
23.036
28.1359
29.056
12.518
52.0389
28.423
5.65321
4.85579
11.5643
24.6607
45.9196
11.4916
9.62086
25.1634
933.902
35.2612
3.44973
543.781
13.1077
0
7.07873
25.5134
22.4667
5.83879
2.29415
0.560784
34.7557
8786.51
1069.44
3418.31
1859.19
6264.08
870.742
2440.14
2131.14
12.0108
22.2055
9.52389
-1.98889e-14
-7.16545e-15
5.3257
0
-6.3003e-15
20.5478
-4.01947e-15
2.81166
0
0.162134
0
26.2191
0
34.6106
0
0
2.26207
42.2374
28.9627
6.40033
22.6277
14.501
23.7507
17.8301
0
40.2003
13.126
11.5805
14.1286
0
10.2053
14.4385
11.527
6.2622
20.9421
38.4453
18.0574
10.6293
12.8206
16.5717
8.33631
10.096
44.116
22.5161
0
10.4942
-4.41214e-15
20.9586
18.8373
5.25086
0
2.05606
4.61376
14.7112
5.75602
9.55228
16.6263
12.0705
7.21672
0
347.814
6.33282
0
225.579
20.0549
0
0
14.7868
14.1912
4.80723
0
12.3471
38.0821
3395.48
464.799
3047.59
2165.31
10344.7
325.156
1956.18
1479.91
50.9844
92.9207
5.32284
19.0052
9.0514
0
-5.83476e-15
0.155545
0.425036
2.6384
0
1.50214
7.52998
-1.40221e-14
0
21.4993
11.702
20.3981
23.2906
20.4709
15.0567
9.22882
4.70455
-1.46753e-15
14.9692
0
8.69642
-3.30666e-16
12.9005
0
10.1013
23.4966
-1.16888e-15
30.4986
19.4221
5.03737
7.86296
0
5.89995
0
13.0417
0
11.8758
13.547
5.8354
9.9866
12.3531
34.7908
8.18558
9.62287
55.4103
10.123
0
-4.2072e-16
14.0566
13.9936
15.0917
10.7136
5.92042
66.1017
5.7283
21.3163
0
122.428
-2.3361e-15
0
61.1525
12.3568
5.13189
0
-3.90053e-15
22.3226
4.96346
0
0
13.7963
9863.89
286.644
1723.11
2209.38
7463.06
202.882
1702.89
880.279
60.1695
33.6438
1.90216
0
19.803
5.43878
0
0
0
10.8495
0
0
17.4691
0
0
23.3928
-1.44594e-15
7.52919
-7.25004e-15
6.85317
8.43442
11.7935
11.0101
21.1083
11.038
6.60138
17.0125
-8.92288e-15
25.5108
38.4782
17.7682
12.1413
6.2871
10.4456
3.50125
0
0
7.46326
13.8248
4.51558
0
0
9.7791
4.3927
29.6755
20.2655
5.09646
20.3517
11.6468
2.6194
-1.1894e-14
0
18.1236
14.8751
22.8074
1.57144
0
0
0.426885
4.59683
7.60407
0
14.2334
67.4936
8.4278
24.3545
21.3383
19.5614
0
0
0
8.56275
0
5.43199
8.03496
8.57363
8959.9
145.022
1583.6
3825.07
7546.4
152.511
1233.45
377.983
0
20.1184
-1.66933e-15
0
14.3531
5.23055
0
0
0
0
0
0.956503
0
0
0
0
-5.89504e-15
19.0558
22.2367
13.5371
9.12815
5.60948
19.9825
0
16.6871
13.4018
0
0.353701
13.0124
7.54479
10.6487
0
0
10.4329
21.1615
11.1254
0.432353
0
5.94014
0
10.5168
0
0
5.74914
1.94346
33.6491
7.58522
0
11.6624
8.69107
0
11.6213
13.7751
2.08888
6.09052
3.69709
0
10.8576
0
0
3.57197
0
39.4119
17.9144
0
0
8.3685
0
0
0
0
-3.81141e-15
4.34614
0
0
0
8031.75
104.574
1519.16
3466.44
3665.56
92.0805
1159.29
191.521
23.3516
-9.63966e-15
21.2322
0
2.51831
8.4177
0
0
19.3451
0
9.7886
0
5.29299
16.0597
-1.14951e-14
43.3991
0
22.0242
23.7094
1.78751
5.43711
-5.00522e-15
13.3876
0
5.51225
11.1955
0
21.6912
1.73705
12.7762
5.31225
-1.77963e-15
6.24466
0
5.58999
0
6.0947
0
0
0
4.5607
0
0
0
0
9.654
9.58276
0
0.226613
14.7262
0
5.79811
4.79493
46.284
9.16258
1.7742
49.4884
13.3998
0
0
0
7.1241
47.7335
2.14495
-1.06317e-16
14.2731
15.4712
15.4578
-1.07989e-14
0
8.60874
16.5095
1.16471
0
-3.88186e-16
-6.12568e-15
2759.69
85.9416
791.654
6286.66
5475.18
77.8168
950.993
165.749
1.71719
21.6295
5.32004
26.1369
9.25868
10.3409
31.4387
-2.95474e-15
0
6.88742
0
0
15.1342
-6.39655e-16
12.4603
22.7828
20.5689
5.55298
0
29.5759
9.70692
5.32564
15.7534
22.1514
5.82786
6.7356
2.03121
-2.46259e-15
0
0
0.329845
0.219993
6.22232
21.1882