/*--------------------------------*- C++ -*----------------------------------*\
| =========                 |                                                 |
| \\      /  F ield         | OpenFOAM: The Open Source CFD Toolbox           |
|  \\    /   O peration     | Version:  5.x                                   |
|   \\  /    A nd           | Web:      www.OpenFOAM.org                      |
|    \\/     M anipulation  |                                                 |
\*---------------------------------------------------------------------------*/
FoamFile
{
    version     2.0;
    format      ascii;
    class       volScalarField;
    location    "0.4";
    object      voidfraction;
}
// * * * * * * * * * * * * * * * * * * * * * * * * * * * * * * * * * * * * * //

dimensions      [0 0 0 0 0 0 0];

internalField   nonuniform List<scalar> 
10571
(
0.677596
0.771612
0.691086
0.797834
0.753102
0.825461
0.740323
0.842049
0.720482
0.61372
0.75977
0.825805
0.798195
0.931655
0.898628
0.698512
0.795292
0.867866
0.891291
0.592449
0.5042
0.843658
0.804396
0.688115
0.978561
0.987933
0.98418
0.994731
0.986063
0.998756
0.982224
0.970517
0.978892
0.990404
0.997213
0.9971
0.984633
0.925814
0.96315
0.860986
0.998628
0.992912
0.975352
0.915102
0.982419
0.993308
0.979967
0.975335
0.997046
0.988416
0.988763
0.999009
0.992569
1
0.998162
0.998751
0.987287
0.990855
0.993873
1
0.99334
0.999519
0.964709
0.830731
0.995734
0.997961
0.997477
0.992401
0.959171
0.994162
0.989024
0.960773
1
0.993678
0.990763
0.99889
0.988154
0.998688
0.992755
0.999422
0.987177
0.991114
0.991208
1
0.997188
0.999664
0.980838
0.863613
0.99478
0.998225
0.99804
0.994245
0.847848
0.991914
0.995266
0.985652
0.993734
0.987904
0.993494
0.999662
0.993828
0.997907
0.999205
0.999176
0.989085
0.995415
0.991534
0.998378
0.997883
0.999567
0.988371
0.848683
0.995701
0.997749
0.997956
0.993564
0.738564
0.996941
0.995501
0.976521
1
0.992831
0.992847
0.999797
0.989973
0.999966
0.999689
0.998927
0.991072
0.992158
0.706379
0.994722
1
0.997758
0.999373
0.993966
0.852149
0.49833
0.996001
0.997495
0.997841
0.996383
0.767692
0.996399
0.994624
0.975316
0.997911
0.987621
0.99838
0.998036
0.983164
0.998243
0.999662
0.999359
0.988199
0.995717
1
0.992412
0.998884
0.996133
0.999251
0.995684
0.843727
1
0.996181
0.99796
0.996494
0.992654
0.817224
1
0.998064
0.993688
0.965871
0.999011
0.992942
0.976069
0.994244
0.975393
0.99902
0.999704
0.998981
0.987255
0.98986
1
0.994062
1
0.998789
0.999541
0.995579
0.724614
1
0.991819
0.999142
0.99709
0.998472
0.727432
1
0.997561
0.993296
0.872578
0.999121
0.996695
0.96301
0.997054
0.990114
0.99706
0.998895
0.998603
0.992854
0.995609
1
0.997471
0.999966
0.991948
0.999698
0.994563
0.654298
1
0.990105
0.998025
0.990972
0.994428
0.718864
0.998374
0.993204
0.788416
0.99912
0.990199
0.974629
0.996684
0.989102
0.997635
0.998828
0.999218
0.992251
0.997967
0.989883
0.998072
0.999401
0.999063
0.941016
0.537959
0.991549
0.998568
0.993613
0.996571
0.700937
0.995315
0.994866
0.685093
1
0.993952
0.976123
0.998682
0.993209
0.995372
0.99898
0.999411
0.995062
0.988321
0.986145
0.974707
0.999776
0.999212
0.856496
0.502712
0.990678
0.998727
0.985333
0.989476
0.658064
0.996632
0.994867
0.650296
0.997911
0.995296
0.977983
0.998885
0.997447
0.996926
0.999557
0.998472
0.997832
0.989851
0.989004
0.978059
0.999223
0.996463
0.838996
0.50726
0.985838
0.994342
0.903638
0.824955
0.685642
0.997483
0.9907
0.649211
1
0.99552
0.99147
0.997635
0.995944
0.995103
0.99921
0.989441
0.998009
0.993992
0.997251
0.964404
0.998511
0.996248
0.857257
0.551114
0.982201
0.980755
0.93976
0.667375
0.68241
0.997329
0.988254
0.701329
0.996921
0.998208
0.996662
0.997061
0.996785
0.993516
0.999264
0.982964
0.998728
0.992634
0.996811
0.982288
0.999027
0.990618
0.882679
0.564554
0.985839
0.985226
0.967719
0.758115
0.620037
0.996632
0.969381
0.660014
0.997141
0.991936
0.998989
0.99652
0.994532
0.993347
0.999386
0.986188
0.998405
0.996162
0.992963
0.992327
0.999335
0.999102
0.917122
0.575256
0.979886
0.992894
0.985127
0.759748
0.645044
0.994541
0.974937
0.710921
1
0.994064
0.994539
0.995135
0.991258
0.993009
0.999027
0.99906
0.998696
0.996976
0.986476
0.991651
0.999658
0.999849
0.928515
0.635813
0.981931
0.995736
0.98501
0.802849
0.632577
0.97228
0.990488
0.750337
0.996811
0.996192
0.993764
0.994157
0.991888
0.99453
0.999443
0.995947
0.998821
0.996588
0.985377
0.99608
0.999888
0.999884
0.928158
0.722043
0.991612
0.996907
0.98186
0.817989
0.687063
0.995896
0.998097
0.840695
0.993844
0.997592
0.993933
0.994258
0.989425
0.9922
0.997207
0.995322
0.998401
0.993331
0.993403
0.995573
0.999888
0.999779
0.924538
0.788017
0.996844
0.993362
0.985248
0.744798
0.66652
0.996942
0.999124
0.91586
0.990436
0.996696
0.99727
0.990745
0.987384
0.999021
0.997532
0.998162
0.997771
0.991783
0.995163
0.99608
0.999888
0.999737
0.928944
0.887824
0.996242
0.989752
0.989849
0.714688
0.65287
0.995432
0.996679
0.96136
0.996812
1
0.996798
0.992299
0.987895
0.998345
0.989699
0.981748
0.998045
0.988372
1
0.985738
0.998569
0.980934
0.924931
0.925851
0.999279
0.994392
0.993334
0.70641
0.61108
0.999226
0.999124
0.98481
1
0.997816
0.998753
0.99696
0.997116
0.999662
0.98876
0.992988
0.998869
0.991278
1
0.993748
0.997604
0.996856
0.919115
0.967414
0.999008
0.998054
0.995876
0.710182
0.63866
0.997755
0.999124
0.99615
0.991864
0.9944
0.999966
0.995102
0.998228
0.999021
0.998375
0.999002
0.999107
0.998876
0.996702
0.998074
0.998681
0.996213
0.915877
0.99341
1
0.998914
0.997926
0.704373
0.70523
0.99849
0.998974
0.99888
0.99978
0.99692
0.994304
0.998007
0.996425
0.998953
0.998653
0.999777
0.998473
0.99655
0.988895
1
0.998808
0.996229
0.915078
0.998942
0.999128
0.998437
0.999098
0.638144
0.77264
0.993689
1
1
0.993623
0.99832
0.99764
0.994123
0.999129
1
0.99937
0.998595
0.998344
0.999264
0.996812
1
0.995161
0.998676
0.917279
0.998035
0.999699
0.999556
0.999535
0.63771
0.82535
0.998877
1
1
0.996921
0.998376
0.996123
0.995001
1
0.998042
0.999851
0.987677
0.997916
0.997713
0.992305
1
0.998831
0.999408
0.919901
1
1
0.999511
0.998908
0.655703
0.90242
0.997987
1
0.99797
0.996811
1
0.999022
0.999797
1
0.999021
0.999889
0.999754
0.99933
1
1
1
1
0.99832
0.920878
0.996494
0.998497
0.999455
0.998694
0.652465
0.93007
1
0.999698
0.99601
1
0.996753
0.999326
1
0.999249
0.999426
0.999889
0.999777
0.999322
0.998876
1
1
1
0.994173
0.928389
0.99997
0.998437
0.999879
0.996936
0.655503
0.97879
0.997755
0.999124
0.99587
0.997471
0.988746
0.999022
0.99902
1
1
0.999889
1
1
1
1
1
1
0.989584
0.948586
0.999667
0.999128
0.999859
0.992169
0.636375
0.98488
0.999535
1
0.99671
1
1
0.999798
0.999291
1
0.999021
0.998985
1
1
0.998876
0.996812
1
1
0.984861
0.959598
1
0.99997
0.999907
0.989909
0.637176
0.98467
1
0.998249
0.98719
1
0.998376
0.999022
1
0.999159
0.999932
0.997055
0.999774
1
0.998876
1
1
1
0.977581
0.962901
0.998549
1
0.999883
0.987621
0.669657
0.97767
0.998645
0.999306
0.9895
0.996811
1
0.997404
0.998987
1
1
0.998073
0.999163
0.999883
1
1
1
0.999777
0.971986
0.969873
0.998247
1
0.999883
0.983688
0.71579
0.97382
0.999961
0.998641
0.98243
0.991753
0.998376
0.999022
0.996419
1
1
0.997688
0.998902
0.999693
0.99841
1
1
1
0.965629
0.986296
0.997461
1
0.999883
0.980243
0.704572
0.956389
1
0.997494
0.98523
0.99934
0.99832
0.997404
0.997804
1
0.999021
0.997444
0.998104
0.999996
0.999767
1
0.998378
0.999977
0.966074
0.991861
1
1
0.999992
0.979386
0.727439
0.959749
0.996361
0.998551
0.97361
1
0.996695
0.992887
0.994426
1
0.997197
0.994994
0.996769
0.999572
1
0.9989
1
0.998215
0.966813
0.995242
1
1
0.999883
0.986534
0.754878
0.959329
1
0.997675
0.98551
0.996811
0.998152
0.999933
0.997061
0.998287
0.982609
0.993957
0.996231
0.999802
0.998876
1
0.99902
0.99595
0.968587
0.997337
0.995436
1
0.999491
0.98904
0.807321
0.927129
1
0.99535
0.969546
0.995822
0.998824
0.998382
0.997399
0.99988
0.999021
0.996936
0.997317
0.999624
0.998837
1
0.997905
0.997469
0.977566
0.997029
0.998247
1
0.998869
0.990358
0.874184
0.884778
0.998877
0.996527
0.96192
0.993623
0.995855
0.996764
1
0.996515
0.997332
0.996799
0.997559
0.999673
0.997751
1
0.996046
0.997923
0.981271
0.994747
0.987271
1
0.998946
0.99436
0.898353
0.84521
1
0.989643
0.94827
1
0.998208
1
0.997703
0.998257
0.997366
0.997738
0.996746
0.998954
0.998876
1
0.997161
0.998404
0.983292
0.996405
0.981345
1
0.999415
0.995129
0.927295
0.816367
1
0.998762
0.94001
1
0.997312
0.998045
0.996825
0.997687
0.999021
0.996467
0.997766
0.998712
0.997557
1
0.994896
0.997754
0.988148
0.996251
0.95807
1
0.999297
0.994013
0.968054
0.808758
0.999613
0.997584
0.887789
0.99879
0.980901
0.991201
0.99723
0.998258
0.99713
0.992316
0.996508
0.998477
0.994806
1
0.997397
0.998323
0.991195
0.997884
0.927181
0.999188
0.999633
0.993847
0.96308
0.832978
1
0.997735
0.848222
0.990435
0.990201
0.926445
0.995271
0.998258
0.998345
0.981927
0.994535
0.998732
0.986045
0.99989
0.996147
0.998085
0.992907
0.996587
0.87806
0.999098
0.999665
0.996649
0.966418
0.862588
0.998877
0.994596
0.805399
1
0.990257
0.832954
0.99902
0.889763
0.990477
0.97134
0.994992
0.997536
0.92294
1
0.998412
0.998015
0.992976
0.994703
0.960522
1
0.998987
0.997045
0.96772
0.944629
0.998877
0.954382
0.811489
0.996812
0.916006
0.954091
0.802201
0.830049
0.819354
0.9701
0.990033
0.969053
0.717676
0.996151
0.769358
0.996504
0.994138
0.994309
0.985158
0.998437
0.980974
0.997182
0.959742
0.98845
0.844764
0.811335
0.91698
0.902381
0.986617
0.997742
1
0.990749
0.968564
0.9824
0.980719
0.985889
0.979651
0.992524
0.897903
0.989261
0.9959
0.992477
0.990871
0.812165
0.964412
0.995238
0.970991
0.98306
0.92275
0.976383
0.971437
0.996812
0.995296
0.999292
1
0.994713
1
0.992297
0.992605
0.993975
0.98996
1
0.99804
0.986557
0.995942
0.993085
0.991142
0.977242
0.978782
0.992258
0.978536
0.975147
0.992449
0.983027
0.99727
1
0.996753
0.993865
0.999088
0.999129
1
0.990882
0.996036
0.996091
0.992168
0.975482
1
0.992315
0.995288
0.987982
0.987573
1
0.98842
0.988543
0.973595
0.982078
0.985324
0.992421
0.98971
1
0.989358
0.999359
1
0.999429
1
0.995223
0.994938
0.996898
0.992866
0.95986
1
0.994554
0.993689
0.987678
0.992804
1
0.99589
0.990508
0.973061
0.988099
0.99485
0.994112
0.9818
1
0.987902
1
1
0.998558
0.998616
0.997066
0.994577
0.996963
0.997712
1
1
0.998061
0.992078
0.9829
0.991474
0.998256
0.996738
0.987524
0.977534
0.985157
0.991055
0.991786
0.98915
0.99956
0.994455
1
1
0.995944
0.997704
0.998672
0.997528
0.996846
1
1
1
0.999404
0.992659
0.984882
0.988903
1
0.997266
0.989137
0.980271
0.989079
0.99516
0.993869
0.984598
0.987574
0.999664
0.999157
1
0.999129
0.999021
0.99966
0.997264
0.995961
0.997751
1
0.998412
0.999327
0.991075
0.985636
0.995012
0.997114
0.996818
0.990027
0.988617
0.99223
0.994076
0.994775
0.987328
0.996812
1
0.993832
1
0.998558
1
0.999775
0.997102
0.994661
0.995541
1
0.99902
0.999031
0.992446
0.989859
0.996373
0.998256
0.997081
0.989335
0.992489
0.98845
0.996245
0.993931
0.98915
1
1
0.984495
0.999628
0.9997
1
0.999668
0.99777
0.996999
0.993951
1
0.99902
0.998954
0.990301
0.992781
0.996675
1
0.998155
0.99151
0.994091
0.9804
0.998142
0.99058
0.98502
1
1
1
0.99875
0.997206
0.999223
0.998966
0.997317
0.996749
0.998643
1
1
0.99835
0.994215
0.991845
0.997491
1
0.998296
0.99434
0.99279
0.9797
0.998877
0.992663
0.99594
1
1
1
0.998075
0.999159
1
0.999367
0.998392
0.997718
0.997752
1
1
0.998142
0.99557
0.99467
0.996373
1
0.998934
0.9939
0.99743
0.99188
0.998877
0.996014
0.99923
1
1
0.997978
0.994258
0.998799
1
0.999596
0.999144
0.9975
0.998876
1
1
0.998973
0.997402
0.994301
0.999123
1
0.998886
0.994575
0.993858
0.97928
0.998877
0.994686
0.99265
1
1
1
1
0.999129
1
0.999451
0.998622
0.998482
0.998876
1
1
0.999492
0.997708
0.995152
0.999123
1
0.99979
0.997231
0.997697
0.97536
1
0.996287
0.99797
1
1
0.999056
0.998041
1
1
0.986822
0.998941
0.999172
0.997325
1
1
0.9995
0.999214
0.996871
0.998851
1
0.999883
0.997526
0.99516
0.963307
1
0.99529
0.99797
1
1
1
1
0.998197
1
0.990347
0.996159
0.998752
0.999186
1
1
0.999888
0.999888
0.997139
0.997884
1
1
0.998751
0.996962
0.972554
1
0.99046
0.997899
1
1
1
1
1
1
0.999889
0.997632
0.999334
1
1
1
0.999888
0.99952
0.997784
0.995648
1
0.999596
0.999689
0.995594
0.968006
0.998606
0.994715
0.997899
1
1
1
1
1
1
1
0.997256
0.999883
0.998877
1
1
0.999554
0.998993
0.998648
0.995262
1
0.994455
0.998322
0.998999
0.968104
0.999961
0.987829
0.988168
1
1
1
1
1
1
1
0.997079
0.998481
1
1
1
0.999145
0.997956
0.99126
0.988471
1
0.998396
0.996821
1
0.958183
1
1
0.980051
1
1
1
1
1
1
1
0.999842
0.994795
0.996869
1
1
1
1
0.996704
0.976605
1
1
0.999688
0.992464
0.963439
1
1
1
1
1
1
1
1
1
1
1
1
1
1
1
1
1
1
0.994851
1
1
1
1
1
1
1
1
1
1
1
1
1
1
1
1
1
1
1
1
1
1
1
1
1
1
0.995898
1
1
1
1
1
1
1
1
1
1
1
1
1
1
1
1
1
1
1
1
1
1
1
1
1
1
1
1
1
1
1
1
1
1
1
1
1
1
1
1
1
1
1
1
1
1
1
1
1
1
1
1
1
1
1
1
1
1
1
1
1
1
1
1
1
1
1
1
1
1
1
1
1
1
1
1
1
1
1
1
1
1
1
1
1
1
1
1
1
1
1
1
1
1
1
1
1
1
1
1
1
1
1
1
1
1
1
1
1
1
1
1
1
1
1
1
1
1
1
1
1
1
1
1
1
1
1
1
1
1
1
1
1
1
1
1
1
1
1
1
1
1
1
1
1
1
1
1
1
1
1
1
1
1
1
1
1
1
1
1
1
1
1
1
1
1
1
1
1
1
1
1
1
1
1
1
1
1
1
1
1
1
1
1
1
1
1
1
1
1
1
1
1
1
1
1
1
1
1
1
1
1
1
1
1
1
1
1
1
1
1
1
1
1
1
1
1
1
1
1
1
1
1
1
1
1
1
1
1
1
1
1
1
1
1
1
1
1
1
1
1
1
1
1
1
1
1
1
1
1
1
1
1
1
1
1
1
1
1
1
1
1
1
1
1
1
1
1
1
1
1
1
1
1
1
1
1
1
0.407725
0.496166
0.425806
0.410846
0.557913
0.411863
0.436657
0.456077
0.419351
0.423413
0.430083
0.421324
0.458522
0.47564
0.473252
0.478082
0.542899
0.451695
0.419727
0.44661
0.446806
0.451293
0.50476
0.529535
0.539826
0.501868
0.417825
0.451497
0.409865
0.423185
0.4425
0.44601
0.518978
0.509933
0.51329
0.673198
0.450703
0.447123
0.569078
0.449628
0.494238
0.538144
0.533652
0.509748
0.502334
0.494869
0.443498
0.41381
0.446075
0.411637
0.428757
0.434723
0.53093
0.424504
0.454944
0.598377
0.448598
0.479979
0.443893
0.427702
0.492063
0.427146
0.49858
0.535626
0.502996
0.5318
0.489553
0.468023
0.415121
0.453796
0.43252
0.441529
0.455211
0.420886
0.436314
0.4536
0.434649
0.514767
0.491163
0.417743
0.510919
0.425156
0.530702
0.535537
0.489368
0.496836
0.453581
0.456922
0.45863
0.477156
0.478003
0.616679
0.431932
0.517452
0.606617
0.454536
0.728081
0.975677
0.712491
0.749957
0.784249
0.877068
0.860779
0.673347
0.820773
0.801535
0.642346
0.633144
0.673069
0.68871
0.729569
0.770597
0.974687
0.792922
0.767774
0.780178
0.981931
0.976791
0.920684
0.803992
0.592888
0.778774
0.5907
0.680778
0.935197
0.507618
0.813418
0.51508
0.844545
0.788225
0.774273
0.787108
0.923804
0.960225
0.819765
0.768636
0.698634
0.91754
0.971443
0.988222
0.813153
0.790026
0.890009
0.803852
0.860788
0.794463
0.756865
0.875834
0.98133
0.955351
0.696921
0.893952
0.826335
0.732545
0.788131
0.901128
0.684387
0.979424
0.937106
0.493312
0.779817
0.637033
0.572031
0.785293
0.927921
0.923446
0.916263
0.816234
0.982848
0.707818
0.614615
0.95202
0.673009
0.648456
0.626009
0.74367
0.504418
0.633992
0.459118
0.944201
0.999934
0.994078
0.994962
0.990095
0.991164
0.99685
0.996447
0.994533
0.992112
0.996354
1
0.998286
0.997769
0.985901
0.998025
0.994313
0.997959
0.988908
0.996059
0.990121
0.988158
0.991599
0.996054
0.996154
0.99385
0.948564
0.984178
0.995787
0.997317
0.994565
0.994503
0.990794
0.978549
0.99525
0.996677
0.996949
0.997807
1
0.997399
0.976603
0.984447
0.987823
0.980104
0.991629
0.997467
0.988434
0.996742
0.993201
0.994402
0.981451
0.946308
0.842454
0.972726
0.926475
0.99702
0.998093
0.995747
0.988809
0.988556
0.994942
1
0.990959
0.98909
0.955679
0.966975
0.969688
0.985019
0.953664
0.975788
0.976213
0.974952
0.979062
0.975324
0.988508
0.99068
0.988848
0.995319
1
0.979735
0.966576
0.987438
0.966871
0.998589
0.976122
0.992958
0.997985
0.999781
0.997778
0.997604
0.996817
0.996723
0.994756
0.999131
0.998889
0.996817
0.998251
0.995411
0.99772
0.996872
0.998068
0.995973
0.987604
0.99454
0.993322
0.992131
0.994491
0.995824
0.998229
0.992211
0.996621
0.992721
0.994473
0.991989
0.993831
0.994612
0.9817
0.98954
0.999272
0.996827
0.996436
0.99626
1
0.996624
0.977749
0.992773
0.990875
0.978508
0.989114
0.993409
1
0.992865
0.996864
0.997763
0.973955
0.886921
0.852598
0.967808
0.84846
1
0.99993
0.998454
0.992317
0.981227
0.998266
0.9984
0.986994
0.988256
0.948004
0.967911
0.979178
0.982549
0.916339
0.970762
0.950739
0.931617
0.969969
0.982974
0.997009
1
0.99552
1
1
0.983706
1
0.995241
0.976389
0.998027
0.977229
0.989694
1
1
0.993198
0.997552
0.993624
0.996287
0.998971
0.99997
0.990025
1
0.996367
0.996285
0.997562
0.995886
0.994015
0.993942
0.991392
0.996017
0.996242
0.99093
0.989763
0.998273
0.993893
0.989047
0.996685
0.989816
0.995071
0.974743
0.994921
0.988418
0.985118
0.988324
0.993236
1
0.996493
0.993269
1
0.997367
0.986289
0.993614
0.996757
0.986122
0.995515
0.998216
0.994702
0.997361
0.998426
0.997832
0.977335
0.781361
0.857021
0.977698
0.724905
0.989964
1
0.999015
0.990728
0.984742
0.997386
0.99809
0.98999
0.990288
0.930168
0.958754
0.939935
0.991711
0.914563
0.961107
0.914172
0.789249
0.977906
0.98468
0.997406
1
0.990903
0.998369
1
0.986295
0.996819
0.996135
0.982021
0.988698
0.977796
0.997979
1
1
0.994428
0.994581
0.996811
0.989705
0.992308
0.998243
0.996476
1
0.996454
0.995079
0.999302
0.996649
0.99798
1
0.990775
0.997289
0.996747
0.993559
0.993139
0.997229
0.998112
0.973592
0.997848
0.984686
0.990319
0.982893
0.996804
0.989403
0.990228
0.999939
0.996595
0.996811
1
0.995781
0.996811
0.997789
0.979661
0.952167
0.998199
0.983409
0.964301
0.998122
0.999032
0.996481
0.996849
0.996592
0.895653
0.709769
0.856817
0.898773
0.723598
0.995954
0.996652
0.999967
0.989088
0.98629
0.997685
0.997493
0.9856
0.984803
0.892309
0.977686
0.892929
0.997878
0.900235
0.970059
0.86975
0.735759
0.975023
0.963127
1
1
0.990591
1
0.996927
0.985694
0.997915
0.995711
0.991543
0.997586
0.988079
0.99289
0.992262
0.996811
0.993652
0.995669
0.993623
0.997716
0.996093
0.994696
0.997985
0.99934
0.993544
0.999612
0.999092
0.995954
1
0.99596
0.990082
0.99845
0.996223
0.99283
0.994906
0.998003
0.99417
0.977256
0.998462
0.996013
0.989006
0.9869
0.992546
0.996755
0.996772
0.997108
0.998529
0.996811
0.999697
0.997755
1
0.995729
0.978121
0.985392
0.866707
0.995461
0.998792
0.980101
0.990353
0.446912
0.529723
0.397963
0.998725
0.945636
0.993373
0.902487
0.997273
0.992565
0.99989
0.998182
0.997831
0.767813
0.725921
0.936475
0.883698
0.883952
0.742725
0.954083
0.390859
0.671362
0.400063
0.986283
0.904536
0.997514
0.940358
0.999233
0.996582
0.99515
0.987343
0.978172
0.995068
0.998086
0.979411
0.982954
0.905826
0.951205
0.813297
0.99472
0.889635
0.939455
0.803301
0.852854
0.980059
0.980898
0.997251
1
0.992875
0.999124
0.99978
0.982884
1
0.996103
0.989403
0.997037
0.972957
0.997978
0.994563
0.993733
0.993651
0.998637
0.990105
0.994735
0.996487
0.995242
0.99663
0.992305
0.997212
0.99365
0.989204
0.992487
0.998049
0.996586
0.989001
0.995917
0.997785
0.989693
0.988282
0.99997
0.998436
0.983392
0.995046
0.995061
0.981062
0.99445
0.995485
0.997255
0.998233
1
0.999865
1
0.999343
0.99823
1
0.999666
0.996632
1
0.998092
0.997832
1
0.999152
1
0.950142
0.985909
0.988187
0.999966
0.94864
0.985224
1
1
1
1
1
0.999198
1
0.996182
0.995817
1
0.998485
0.998644
0.886737
0.688703
0.962956
0.788463
0.87819
0.677807
0.942305
1
1
1
1
1
1
1
1
1
0.995974
0.979074
0.980169
0.995789
0.994752
0.983798
0.983801
0.862915
0.937375
0.763762
0.997046
0.843273
0.924055
0.782326
0.999851
0.773396
0.994801
1
1
1
0.984117
0.979219
0.999154
1
0.99698
1
1
0.982032
0.99594
0.993054
0.986694
1
0.938472
0.996724
0.993935
0.985487
0.992645
0.997668
0.993623
0.997445
0.996305
0.996637
0.983276
1
0.995
0.983814
0.982545
0.987542
0.99589
0.996656
0.967303
0.998391
0.997394
0.988629
0.978962
0.99538
0.997394
0.988207
0.993062
0.995622
0.986916
0.99039
0.991685
0.996253
0.999955
1
0.996197
1
1
1
1
1
0.997368
1
0.998243
0.996632
1
0.999122
1
0.919183
0.982952
0.990016
0.998263
0.92696
0.969037
1
1
1
1
1
1
1
0.998151
0.998877
0.994062
0.997212
0.997715
0.870874
0.655569
0.946731
0.677824
0.85516
0.650486
0.950382
1
1
1
1
1
1
1
0.99121
0.994768
0.997228
0.987399
0.984589
0.99227
0.998284
0.980086
0.97808
0.820823
0.879874
0.718426
0.99572
0.781036
0.818084
0.723043
0.996268
0.729533
0.997772
1
0.999916
0.996454
0.980479
0.976911
0.999124
1
0.994579
0.997372
1
0.978434
0.996818
0.994323
0.972728
0.999122
0.839254
0.989404
0.998118
0.996921
0.994929
0.994033
0.99989
0.993459
0.997274
0.996727
0.991672
0.996372
0.995727
0.990161
0.983971
0.99177
0.997144
0.995124
0.979741
0.998301
0.995375
0.996639
0.979653
0.996126
0.997101
0.995995
0.996401
0.992345
0.991018
0.991588
0.995597
0.992203
0.996092
0.996169
0.997832
1
0.998546
0.9952
1
0.995911
0.998728
0.91721
0.967766
0.991652
1
0.898232
0.941215
1
1
1
1
1
1
1
0.999121
0.999961
0.989773
0.996485
0.996631
0.822137
0.655486
0.950283
0.566068
0.8444
0.647297
0.960788
1
1
1
1
1
1
1
0.993931
0.988559
0.995214
0.981324
0.980319
0.989564
0.990497
0.986106
0.978231
0.763746
0.771446
0.707535
0.998515
0.756432
0.720282
0.684648
0.691697
0.982368
0.983488
0.997674
1
0.996631
0.998822
0.996817
0.964073
1
0.991997
0.942434
0.999561
0.730373
0.993099
0.992333
0.99989
0.997097
0.994367
0.996921
0.994427
0.997638
0.996728
0.993184
1
0.994456
0.989895
0.996722
0.983892
0.99596
1
0.985348
0.996424
0.993357
0.993503
0.987357
0.997408
0.998014
0.997812
0.996048
0.993688
0.994527
0.995338
0.998413
0.997845
0.994125
0.997655
0.991446
0.9989
0.996638
0.987846
0.989444
0.998122
0.897779
0.913184
0.994212
0.906293
0.839641
0.998212
0.996631
0.996371
0.998243
1
0.813841
0.624808
0.521071
0.695057
0.569261
0.994559
0.998675
0.994159
0.989987
0.985074
0.989595
0.997031
0.976319
0.980595
0.72086
0.717198
0.687312
0.998929
0.669981
0.696783
0.642017
0.701717
0.985727
0.989715
0.997372
0.996817
0.998606
0.998248
0.999341
0.931911
0.998683
0.99378
0.859702
0.997476
0.664752
0.996655
1
1
0.996401
0.992127
0.996811
1
0.999122
0.995032
0.998606
0.998901
0.999122
0.99431
0.997978
0.993587
0.997492
0.995681
0.992421
0.996901
0.995541
0.99524
0.989695
0.99568
0.992319
0.996068
0.996108
0.994281
0.994564
1
0.999671
0.997551
0.994565
0.996441
0.985834
1
0.997516
0.985563
1
0.996426
0.912598
0.820779
0.997017
0.920109
0.782864
0.995789
0.989893
0.988344
0.996879
0.986911
0.697317
0.563175
0.496813
0.652104
0.551033
0.990373
0.992955
0.996866
0.972888
0.989344
0.990679
0.995449
0.975983
0.988164
0.598757
0.64126
0.625396
0.964088
0.518634
0.587074
0.609353
0.658689
0.990415
0.988736
0.992992
0.996817
0.996632
0.998067
0.996817
0.768213
1
0.987378
0.768601
0.990782
0.642291
0.992473
1
1
0.996633
0.99461
0.9989
0.998181
0.994247
0.998243
0.995897
0.997911
0.998213
0.997639
0.989195
0.99031
0.99798
0.99791
0.992781
0.998153
0.99808
0.9944
0.992991
0.999642
0.996323
0.997809
0.992061
0.998549
0.996666
0.996629
0.999012
0.999395
0.997974
0.993428
0.994891
0.996811
0.996669
0.994736
0.996921
0.995033
0.928834
0.8185
0.994536
0.943853
0.865448
0.994425
0.991132
0.991533
0.994153
0.991055
0.713741
0.564654
0.518932
0.755129
0.552516
0.990653
0.993234
0.998846
0.961247
0.986499
0.983944
0.993141
0.961304
0.981686
0.489298
0.514126
0.597861
0.682786
0.470139
0.512599
0.603638
0.727242
0.992234
0.98195
0.999336
0.994293
0.994154
0.997493
0.994293
0.780082
0.998025
0.988163
0.815562
0.990342
0.666492
0.990731
0.99993
0.996811
0.99319
0.994035
0.993733
0.992996
0.992703
0.996214
0.990517
1
0.998516
0.996826
0.989891
0.998048
0.99185
0.994706
0.995237
0.995412
0.993687
0.995128
0.988917
0.998272
0.994046
0.995111
0.999012
0.996945
0.996816
0.99837
0.996211
0.998275
0.99965
0.995943
0.992298
0.996811
0.997941
0.994117
0.994722
0.999122
0.943417
0.819998
0.991859
0.947678
0.817689
0.994335
0.998838
0.987245
0.992002
0.994811
0.762148
0.534437
0.556363
0.79864
0.536113
0.998256
0.991002
0.991393
0.966534
0.97978
0.974684
0.987931
0.965353
0.984562
0.461743
0.579583
0.677032
0.714592
0.460073
0.544308
0.719625
0.620326
0.993913
0.995103
0.999758
0.993415
0.997755
0.995047
1
0.813658
0.994074
0.984751
0.836896
0.996378
0.68186
0.990522
0.99554
0.99989
0.996092
0.992794
1
0.996595
0.992612
0.995881
0.998877
1
0.996093
0.984981
0.997211
0.979503
0.995124
0.998677
0.992182
0.999076
0.996714
0.996976
0.992811
0.998451
0.997495
0.99837
0.999044
0.995643
0.991468
0.995617
0.995848
0.997307
0.997971
0.995942
0.998142
0.9989
0.994488
0.995433
0.993623
0.996366
0.940537
0.847514
0.994844
0.958874
0.867319
0.989397
0.999768
0.991753
0.992608
0.990397
0.781616
0.562346
0.563874
0.75645
0.531667
0.991839
0.987026
0.990899
0.962035
0.981959
0.981119
0.987437
0.973059
0.985501
0.461821
0.526875
0.625236
0.769789
0.46647
0.540281
0.633883
0.626056
0.984609
0.994053
0.995832
0.990451
0.993535
0.984929
0.976074
0.840073
0.983977
0.938249
0.873113
0.983538
0.676195
0.997979
1
0.99978
0.994428
0.995276
1
0.998143
0.999152
0.996729
0.980607
1
0.993518
0.990362
0.990031
0.995956
0.998677
0.99394
0.995627
0.999136
0.99782
0.999328
0.997754
0.99857
0.996258
0.996179
0.999044
0.993313
0.993601
0.992189
0.997133
0.997065
0.997971
0.995942
0.996788
0.997471
0.996487
0.997755
0.996811
0.996184
0.963566
0.92156
0.99279
0.972099
0.954564
0.995425
0.994153
0.992193
0.994183
0.99636
0.811627
0.543104
0.610659
0.841851
0.535551
0.995954
0.995536
0.981567
0.975196
0.988195
0.980006
0.986051
0.981946
0.98989
0.476768
0.552327
0.604277
0.780914
0.49623
0.550074
0.603938
0.642729
0.993284
0.990066
0.981245
0.979805
0.986914
0.983147
0.98233
0.898753
0.992757
0.991032
0.939771
0.994732
0.730104
1
0.999303
1
0.993345
0.998183
0.996921
0.99377
0.995791
0.997365
0.987304
0.996702
0.995517
0.992142
0.981246
0.968488
1
0.992756
0.997694
0.99717
0.999056
0.996752
0.995088
0.999106
0.996844
0.992807
0.998089
0.996339
0.986661
0.991177
0.999308
0.998487
0.995733
0.995872
0.996633
0.987465
0.997971
0.997291
0.993623
0.998244
0.9803
0.976897
0.988448
0.979634
0.980087
0.99179
0.994501
0.993953
0.996425
0.996631
0.890318
0.531795
0.665986
0.931641
0.589561
0.989258
0.992676
0.989118
0.970697
0.984623
0.988274
0.972499
0.983127
0.985864
0.47088
0.559834
0.56172
0.787223
0.46905
0.550652
0.55426
0.605623
0.992164
0.985448
0.983902
0.980025
0.982075
0.995017
0.996268
0.970447
0.993196
0.997735
0.977109
0.998683
0.781352
0.998746
0.999721
0.996811
0.996518
0.997487
1
0.996324
0.99461
0.996426
0.985948
0.997582
0.98737
0.983821
0.967786
0.969191
0.997214
0.995263
0.997694
0.99857
0.992453
0.99552
0.996525
0.993475
0.993947
0.994042
0.998089
0.99413
0.990177
0.997809
0.999967
0.993617
0.991184
0.990627
0.995201
0.987574
0.997941
0.997755
0.993073
0.996366
0.988046
0.985807
0.991899
0.987866
0.988229
0.997062
0.998955
0.990543
0.994728
0.996786
0.961202
0.542597
0.751658
0.971867
0.530481
0.996652
0.996861
0.979427
0.984026
0.990859
0.995279
0.988853
0.988133
0.984137
0.49524
0.553379
0.5855
0.788541
0.475228
0.552668
0.577786
0.67639
0.984608
0.974466
0.991785
0.987266
0.994309
0.996104
0.990453
0.986325
0.990889
0.997373
0.991984
1
0.90725
0.992334
0.998258
0.996812
0.996441
0.999122
1
0.995549
0.999091
0.99255
0.994775
0.99879
0.986792
0.989779
0.971627
0.971066
0.996935
0.99798
0.998922
0.999404
0.994405
0.992776
0.997184
0.997795
0.998666
0.985836
0.994596
0.998063
0.990386
0.994269
0.998682
0.993133
0.995872
0.993845
0.998684
1
0.997002
0.998878
0.984054
0.992004
0.98968
1
0.998527
0.993071
0.99681
0.997395
0.994463
0.989334
0.998758
0.99667
0.985162
0.547936
0.847095
0.988241
0.558552
0.99728
0.996652
0.985889
0.978066
0.983081
0.997354
0.991854
0.991282
0.97999
0.466426
0.552005
0.588861
0.706343
0.466793
0.562466
0.609071
0.64736
0.991885
0.993213
0.994927
1
0.995198
0.997825
0.996817
0.994888
0.996818
0.997372
0.994344
0.996817
0.94132
0.99791
0.997979
0.996812
0.995899
0.999243
1
1
0.997396
0.987584
0.992414
1
0.989003
0.997716
0.980483
0.982498
0.997562
0.995612
0.997964
0.999136
0.998113
0.996752
0.997424
0.9986
0.998145
0.989887
0.996079
0.993012
0.98092
0.980778
0.995155
0.991436
0.992306
0.979079
0.998955
0.990985
0.994943
0.997794
0.987573
0.996759
0.993434
0.99681
0.984413
0.995248
1
0.997637
0.994154
0.996591
0.999121
0.9933
0.996813
0.599347
0.914366
0.993844
0.63259
0.999023
0.993234
0.994428
0.982451
0.989376
0.999128
0.996372
0.991845
0.985318
0.506168
0.600249
0.637683
0.706343
0.481591
0.663639
0.638859
0.645539
0.991046
0.995942
0.996195
1
0.996515
0.999124
1
0.995663
1
0.999698
0.996281
1
0.977522
1
1
1
0.99528
0.999122
1
0.995898
0.996487
0.992005
0.99435
1
0.984793
0.995548
0.981737
0.991214
1
0.999443
0.999012
0.999136
0.999967
0.998376
0.997424
0.996156
0.999024
0.955782
0.994234
0.974075
0.98744
0.96431
0.993046
0.972311
0.968175
0.983067
0.998491
0.993624
0.996185
0.996284
1
0.995608
0.997701
0.99681
0.99589
0.996368
1
0.999364
0.995509
0.99934
0.997546
0.997522
0.99044
0.682497
0.946418
0.993735
0.742991
1
0.99993
0.997593
0.992465
0.991496
0.999128
0.998912
0.996287
0.994702
0.467707
0.713882
0.608865
0.711419
0.469173
0.75873
0.608223
0.638607
0.995943
0.995102
0.997373
0.994292
0.99667
0.996345
0.992976
0.99969
0.996817
0.994745
0.99663
1
0.982074
1
0.997839
1
0.995899
0.998607
1
0.996981
0.997941
0.99158
0.997523
0.994722
0.988762
0.995742
0.991912
0.995957
0.99798
0.99596
0.997694
0.996664
1
0.996752
0.996645
0.998272
1
0.989155
0.995981
0.983755
0.997206
0.995448
0.996177
0.992465
0.991116
0.995033
0.998878
0.995712
0.99679
0.996594
0.995821
0.995608
0.997398
0.99725
0.994844
0.99888
0.9989
0.998243
0.996206
0.992632
0.998243
0.99849
0.992528
0.801106
0.988268
0.998901
0.849559
0.997907
1
0.998681
0.994376
0.995339
0.998948
0.999571
0.999888
0.992946
0.46609
0.792281
0.603158
0.710217
0.462369
0.81739
0.620715
0.656463
0.997691
0.995942
0.99843
1
1
0.999124
1
1
0.996817
1
0.999264
1
0.99916
1
0.995958
1
0.99439
1
1
0.999613
0.993549
0.99579
0.9988
0.996811
0.997637
0.995974
0.996096
1
0.993941
0.99798
0.998083
0.997796
1
0.998376
0.997604
0.998242
0.999056
0.996123
0.993806
0.996461
0.997957
0.997021
0.99733
0.998426
0.997971
0.991465
0.996672
1
0.998425
1
0.996811
0.997183
0.999062
1
0.999612
0.999122
0.996809
0.999122
0.998451
0.997251
0.998122
0.998877
1
0.889908
0.997914
1
0.925225
0.996722
1
1
0.996738
0.997004
0.999128
1
0.997131
0.992008
0.469933
0.861957
0.639717
0.666605
0.483055
0.888579
0.71189
0.734609
0.990485
0.982441
0.999124
0.996817
0.998413
1
1
0.999961
0.99989
0.999456
1
0.999451
0.997689
1
1
0.997032
0.998065
0.996852
0.996811
0.996633
0.997668