/*--------------------------------*- C++ -*----------------------------------*\
| =========                 |                                                 |
| \\      /  F ield         | OpenFOAM: The Open Source CFD Toolbox           |
|  \\    /   O peration     | Version:  5.x                                   |
|   \\  /    A nd           | Web:      www.OpenFOAM.org                      |
|    \\/     M anipulation  |                                                 |
\*---------------------------------------------------------------------------*/
FoamFile
{
    version     2.0;
    format      ascii;
    class       volVectorField;
    location    "5.95";
    object      U;
}
// * * * * * * * * * * * * * * * * * * * * * * * * * * * * * * * * * * * * * //

dimensions      [0 1 -1 0 0 0 0];

internalField   nonuniform List<vector> 
10571
(
(0.128082 0.215212 1.30526)
(0.00665766 0.0373035 0.785872)
(-0.0414503 0.134673 1.12626)
(-0.588057 0.985065 2.65785)
(-0.378843 -0.258087 1.0859)
(0.101994 -0.0734398 1.4395)
(0.148273 -0.808996 2.5999)
(-0.927095 -0.938018 2.26872)
(-0.514203 -0.444689 1.2207)
(-0.101882 -0.281974 1.21468)
(0.197773 0.0246241 1.44176)
(-0.170921 -0.252017 1.95569)
(-0.48226 -0.984619 1.88155)
(-0.617127 -0.541776 1.42213)
(-0.349757 -0.285779 1.19135)
(0.134679 -0.195096 1.15112)
(-0.291826 -0.280482 1.58926)
(-0.55361 -0.542744 1.54607)
(-0.423466 -0.29053 1.20042)
(-0.143459 -0.0565403 1.14107)
(0.00254207 -0.0755625 0.935459)
(-0.438503 -0.169881 1.16729)
(-0.255409 0.0367349 1.09623)
(-0.0940593 -0.0120926 0.884594)
(-0.010655 0.0540044 0.806609)
(-0.0186697 0.0222228 0.543356)
(-0.228922 0.377799 0.901508)
(-0.0382665 0.0756941 1.17071)
(-0.103954 -0.129293 0.973342)
(0.564236 0.178304 1.85849)
(0.0615772 -0.123746 1.6571)
(-0.077453 -0.0508596 1.25937)
(-0.469781 -0.213557 1.11447)
(-0.433756 -0.26574 1.2225)
(0.220709 0.0986086 0.765118)
(-0.020037 -0.0227251 1.36501)
(-0.0694055 -0.125065 1.25622)
(-0.301036 -0.398879 1.47823)
(-0.315782 -0.305194 0.890768)
(-0.150349 -0.190556 0.917751)
(0.0879016 -0.205111 1.0474)
(-0.40608 -0.22952 1.38366)
(-0.369182 -0.238507 0.948158)
(-0.325254 -0.225533 0.916303)
(0.00730826 -0.0512701 0.96864)
(-0.3111 -0.262739 1.15091)
(-0.239931 -0.116132 0.927856)
(-0.0946052 0.059499 0.938885)
(0.00796706 0.0428024 0.48809)
(-0.0707097 0.167825 0.326342)
(-0.325048 -0.338003 0.818227)
(0.0616252 -0.0154975 0.774747)
(-0.212301 0.277512 1.54206)
(-0.0267429 -0.036286 1.27162)
(0.155281 0.153707 2.23416)
(-0.353501 -0.356601 2.94658)
(-0.760126 -0.277559 1.67887)
(-0.209311 -0.20862 0.587116)
(-0.222253 -0.0689364 0.263657)
(-0.15243 0.0657139 0.916689)
(-0.0968864 0.0408587 0.835508)
(-0.103037 -0.0299746 1.14146)
(-0.193561 -0.130682 0.484714)
(-0.155837 -0.0889606 0.471381)
(0.00780115 -0.0453972 1.41541)
(-0.101013 0.122527 1.02611)
(-0.185491 0.00560089 0.47724)
(-0.211042 -0.0918026 0.525494)
(-0.0213511 0.03392 0.758897)
(-0.215377 0.0276697 1.33773)
(-0.216392 -0.000886476 0.409393)
(-0.166022 0.0317867 0.604201)
(0.021249 0.0293493 -0.0102706)
(0.0375495 0.0115522 0.506511)
(-0.0711975 -0.180314 0.683153)
(-0.0768894 -0.717516 0.588557)
(-0.11858 0.0561917 1.13417)
(-0.253975 -0.0854165 1.62055)
(-0.173162 0.159113 1.10147)
(-0.133882 -0.0658838 1.17338)
(-0.0368018 0.0104749 0.66208)
(-0.0298607 0.0587229 0.161681)
(-0.0678138 0.0218419 1.26978)
(-0.0529338 0.151903 1.24683)
(-0.0387604 0.200588 0.733051)
(0.0168639 0.229207 0.764682)
(-0.0657317 0.0637721 0.867941)
(-0.100837 0.0476092 0.37446)
(-0.156479 0.126381 1.41774)
(0.0507811 -0.00197845 0.621867)
(-0.0563336 0.0557729 1.14577)
(-0.0404586 0.0928132 0.481194)
(-0.0667383 0.0166854 0.236427)
(0.140688 0.312125 0.688494)
(0.191052 -0.0413158 0.370883)
(-0.0248632 -0.000476551 0.520776)
(-0.0274262 -0.0141276 -0.0811116)
(-0.0393024 -0.0497682 0.539571)
(0.0212046 0.0878132 0.543946)
(-0.071078 -0.269054 0.736884)
(-0.0447279 0.130744 1.01035)
(-0.265869 0.00131899 1.44987)
(-0.146035 0.109861 1.11838)
(-0.0839626 -0.0705258 1.47814)
(-0.0252467 -0.00254653 0.779561)
(-0.0378588 0.0796411 -0.0690742)
(-0.0108116 0.0623545 1.42807)
(-0.02411 0.115371 1.01101)
(0.117401 -0.0414538 0.350208)
(-0.121856 -0.0923086 0.702645)
(-0.264348 -0.068638 0.20292)
(0.0145108 0.0829301 0.119547)
(-0.0295527 0.159635 1.29836)
(-0.0271797 -0.23716 0.208379)
(-0.139034 -0.162732 0.198899)
(0.0883859 0.0194261 0.0294811)
(0.0496478 -0.0125271 0.0795215)
(0.189542 0.290041 0.882299)
(0.0229009 0.113653 0.367813)
(0.0894963 0.0168345 0.429873)
(0.0102146 -0.0299438 -0.0739126)
(0.00033055 -0.124366 0.77324)
(0.0827605 0.072295 0.756298)
(-0.049248 -0.135598 0.893526)
(0.0261141 0.114459 0.835658)
(-0.261182 0.00194094 1.41558)
(-0.150661 0.0976905 1.04399)
(-0.0516589 -0.0762305 1.39495)
(0.0356482 0.0227007 0.681002)
(0.0653389 0.0794454 -0.0298753)
(-0.000102194 0.000644792 0.00242444)
(0.0297555 0.0952419 1.53474)
(-0.03053 0.140122 1.07547)
(0.0370144 0.115422 0.419456)
(-0.0750045 -0.0540162 0.739291)
(0.0168411 -0.0476231 0.154565)
(0.0985347 0.0347596 0.143078)
(0.0011596 -0.000678999 0.00045707)
(0.0433729 0.191985 1.35219)
(0.138249 -0.0823461 0.229386)
(-0.167043 -0.00407355 0.34175)
(0.0483081 -0.0173979 0.0380217)
(0.0337527 0.0406484 0.271181)
(0.218057 0.226179 1.01242)
(-0.0163083 0.0938241 0.422665)
(0.0888911 -0.0342239 0.538475)
(0.0291381 -0.0348611 0.0305094)
(0.0407846 -0.126916 0.862758)
(0.109389 0.00573006 0.895401)
(-0.0384229 -0.151798 0.975096)
(0.106341 0.0521782 0.691743)
(-0.263053 0.0339345 1.36138)
(-0.139203 0.135699 0.748329)
(0.00928256 -0.162371 1.16493)
(0.176266 0.0212729 0.649669)
(0.0783212 0.0332881 0.122151)
(-0.0349345 0.0522343 -0.0475349)
(0.0234217 0.168003 1.60044)
(-0.0768262 0.204534 1.09964)
(-0.00146904 0.265344 0.502032)
(-0.0369653 0.0260993 0.703641)
(0.07888 0.0645317 0.237741)
(0.0458241 0.0294226 0.170464)
(-0.0346644 0.0826703 0.0216312)
(0.0941356 0.212843 1.29024)
(0.196103 -0.0464349 0.342246)
(-0.217055 0.0187 0.292791)
(-0.0321334 -0.146822 0.0953945)
(0.00488279 0.0619894 0.268221)
(0.0369597 0.0455949 0.0636636)
(0.278934 0.153932 1.15723)
(0.00238825 0.0332446 0.483559)
(0.0551715 -0.036298 0.47174)
(0.0368125 -0.0279712 0.291461)
(0.0472053 -0.121442 0.971655)
(0.0896846 0.0345741 0.799233)
(-0.0804683 -0.168226 0.982116)
(0.129102 -0.098172 0.660059)
(-0.226059 0.0238763 1.35952)
(-0.142539 0.0909414 0.750617)
(0.0464185 -0.135506 1.05655)
(0.192102 0.0584322 0.630308)
(0.159834 0.078002 0.327656)
(0.000399198 0.0285582 -0.0486802)
(0.0142479 0.212034 1.70543)
(-0.0403622 0.237779 1.16147)
(-0.00739283 0.252619 0.418364)
(-0.0312794 0.0907974 0.63228)
(0.100316 0.0653964 0.20717)
(0.0914013 0.0695362 0.181187)
(0.00825709 0.0937457 0.0554372)
(0.0595015 0.208202 1.28649)
(0.143579 0.0599326 0.414105)
(-0.230229 0.0769764 0.32086)
(-0.0294475 -0.0991907 0.140998)
(-0.0661316 0.0798343 0.270216)
(0.0801975 0.0285574 0.0966662)
(0.334391 0.126502 1.26111)
(0.106173 -0.0147181 0.623086)
(0.127593 -0.073668 0.35492)
(0.0400909 -0.0100772 0.419875)
(0.0505743 -0.102979 1.02465)
(0.0817894 0.0580098 0.814828)
(-0.095523 -0.107608 1.02161)
(0.0839935 -0.06249 0.740052)
(-0.187077 0.00488197 1.31109)
(-0.152696 0.138838 0.580587)
(-0.0290772 -0.0337667 0.88139)
(0.167303 0.0313222 0.541988)
(0.119954 0.06872 0.403344)
(0.0452734 -0.0659825 -0.0447055)
(0.00660556 0.220862 1.81301)
(-0.0208701 0.264728 1.19841)
(-0.0693116 0.288625 0.389554)
(-0.0913425 0.173279 0.521453)
(0.0385144 0.00853677 0.248554)
(0.0421905 0.0990065 0.26908)
(0.0299755 0.0158018 0.0533639)
(0.0471343 0.195306 1.34048)
(0.0880741 0.105541 0.53134)
(-0.280807 0.0974367 0.360381)
(-0.0750039 -0.0731793 0.201783)
(-0.0946237 0.0782219 0.314377)
(0.350847 0.148011 1.32803)
(0.134534 -0.0103327 0.707555)
(0.187457 -0.0601432 0.338892)
(0.0426394 -0.0201254 0.474775)
(0.0309096 -0.0903063 1.08686)
(0.0769857 0.0591989 0.872519)
(-0.102829 -0.0875476 1.00839)
(0.0773273 -0.0202612 0.789168)
(-0.14129 -0.00716182 1.23492)
(-0.218934 0.113584 0.437743)
(-0.182793 -0.00934035 0.585935)
(0.00454085 0.0663703 0.442822)
(0.01035 0.0794475 0.42029)
(0.00453943 0.215653 1.94769)
(-0.0239972 0.276988 1.20649)
(-0.120481 0.248774 0.396774)
(-0.169445 0.136561 0.459773)
(-0.0429936 -0.0224071 0.272894)
(-0.147012 0.157336 0.34387)
(0.0971139 0.2145 1.41473)
(0.114141 0.0206871 0.682905)
(-0.302099 0.028037 0.406106)
(-0.103976 -0.0658525 0.221001)
(-0.0476468 0.0421758 0.271121)
(0.357477 0.172649 1.42382)
(0.1386 -0.0154761 0.837067)
(0.21338 -0.0809637 0.377559)
(-0.0100718 -0.0592119 0.615557)
(-0.0190988 -0.0460295 1.17899)
(0.0630479 0.0454183 0.945973)
(-0.10317 -0.0834791 0.983731)
(0.0467325 0.0113947 0.779091)
(-0.0968089 0.0452439 1.10453)
(-0.249666 -0.00258429 0.426372)
(-0.263865 -0.103623 0.440652)
(-0.131756 0.10528 0.341538)
(-0.00594689 0.208963 0.321561)
(0.00902767 0.201283 2.07098)
(-0.0215578 0.279931 1.18799)
(-0.122149 0.107051 0.450128)
(-0.200897 -0.0330844 0.448706)
(-0.068068 -0.0667729 0.297083)
(-0.101134 0.122137 0.342577)
(0.15355 0.260563 1.49685)
(0.168405 -0.108999 0.804919)
(-0.237602 -0.0780914 0.457601)
(-0.0957309 -0.0821818 0.226047)
(-0.00639111 0.00639076 0.205925)
(0.356744 0.181038 1.50089)
(0.135412 -0.0439978 0.867845)
(0.246004 -0.126709 0.370029)
(-0.0987919 -0.0852303 0.816061)
(-0.0616127 0.0032913 1.24353)
(0.0277937 0.0260846 1.03113)
(-0.129814 -0.079137 0.967111)
(-0.0617419 -0.00572396 0.742569)
(-0.0823719 0.108138 1.05219)
(-0.211139 -0.0690575 0.453281)
(-0.251989 -0.178099 0.388228)
(-0.149048 0.0608997 0.275426)
(-0.0602549 0.0744308 0.182749)
(0.00871712 0.19782 2.17)
(-0.0452235 0.256319 1.14371)
(-0.0991448 0.0041786 0.477828)
(-0.170817 -0.155363 0.423566)
(-0.0686138 -0.127544 0.305377)
(-0.0672914 0.095129 0.299688)
(0.204885 0.303789 1.55766)
(0.166691 -0.168319 0.83542)
(-0.136043 -0.11208 0.477315)
(-0.0757628 -0.109529 0.239337)
(-0.0233226 0.0524646 0.208086)
(0.366321 0.167416 1.54121)
(0.110889 -0.104683 0.786079)
(0.231491 -0.133124 0.303478)
(-0.192721 -0.0741275 0.971317)
(-0.113495 0.0381641 1.28161)
(-0.041817 0.069185 1.09889)
(-0.173778 -0.0729893 0.972698)
(-0.118509 -0.111207 0.67942)
(-0.0314936 0.18756 1.05139)
(-0.130408 -0.0462186 0.503746)
(-0.185946 -0.190782 0.380976)
(-0.0958662 -0.0492556 0.255003)
(-0.0201045 0.0107106 0.126988)
(0.00823997 0.201301 2.27655)
(-0.0580002 0.232498 1.11042)
(-0.0766185 -0.0047948 0.479623)
(-0.115782 -0.158111 0.384534)
(-0.0532804 -0.181098 0.297147)
(0.00196473 0.0259347 0.221771)
(0.208839 0.313563 1.60495)
(0.151575 -0.173776 0.83429)
(-0.0168324 -0.111065 0.466293)
(-0.0285193 -0.128169 0.250776)
(-0.0102204 0.0119778 0.215919)
(0.364425 0.163313 1.57637)
(0.0931913 -0.0583811 0.67408)
(0.220019 -0.116408 0.236686)
(-0.23951 -0.0631371 1.0531)
(-0.126362 0.0692475 1.29383)
(-0.132394 0.112469 1.15187)
(-0.241654 -0.0650747 0.993285)
(-0.116498 -0.209972 0.604888)
(-0.000317172 0.230125 1.07404)
(0.0143729 0.00545176 0.536508)
(-0.0399912 -0.172185 0.377737)
(-0.0348792 -0.144221 0.258087)
(0.0152391 -0.0244719 0.11152)
(0.00568389 0.190714 2.388)
(-0.0183533 0.169915 1.11105)
(0.0133652 0.0564234 0.468227)
(0.00514504 -0.0668252 0.35933)
(-0.0129514 -0.193422 0.27673)
(0.0230828 -0.0345108 0.194683)
(0.201707 0.279907 1.65599)
(0.140763 -0.163853 0.803607)
(0.0967664 -0.0902297 0.435053)
(0.0374308 -0.138483 0.259675)
(0.0214241 -0.0556888 0.213318)
(0.357036 0.156038 1.59272)
(0.183733 0.00495338 0.593479)
(0.254994 -0.119727 0.200452)
(-0.27692 -0.0542583 1.12978)
(-0.149209 0.132905 1.29531)
(-0.230529 0.146566 1.17075)
(-0.253335 -0.139271 0.949484)
(-0.11067 -0.239902 0.559973)
(0.0220122 0.261425 1.08181)
(0.156211 0.0324533 0.50738)
(0.0985985 -0.176736 0.347379)
(0.0109574 -0.179694 0.269723)
(0.0350946 -0.0490952 0.13165)
(0.0126583 0.201832 2.46105)
(0.0616186 0.15416 1.13772)
(0.177447 0.137873 0.427026)
(0.139691 0.0253955 0.350149)
(0.0381867 -0.178106 0.294701)
(0.045332 -0.0637973 0.21343)
(0.179656 0.223434 1.68312)
(0.177157 -0.108597 0.741681)
(0.192199 -0.0525723 0.426421)
(0.107522 -0.142006 0.291321)
(0.0501103 -0.102158 0.225891)
(0.3404 0.133721 1.58372)
(0.301473 0.013687 0.550055)
(0.304022 -0.131625 0.222865)
(-0.228944 -0.035811 1.25825)
(-0.189027 0.189273 1.2867)
(-0.255205 0.154394 1.18555)
(-0.21916 -0.167859 0.900815)
(-0.104023 -0.206155 0.551081)
(0.0936867 0.220983 1.01433)
(0.247431 0.0588277 0.450156)
(0.181675 -0.182788 0.303652)
(0.0337685 -0.167981 0.293195)
(0.0467121 -0.0391726 0.184276)
(0.00941906 0.201464 2.50652)
(0.0804162 0.218467 1.20339)
(0.29514 0.177642 0.386998)
(0.227358 0.0523646 0.354826)
(0.0706913 -0.158027 0.341187)
(0.0678261 -0.0686452 0.263423)
(0.178217 0.162903 1.70204)
(0.276362 -0.00485515 0.68413)
(0.262725 -0.0193319 0.450081)
(0.168678 -0.14286 0.357222)
(0.0646687 -0.120921 0.270748)
(0.221709 0.0685008 1.5317)
(0.371809 0.00823237 0.543246)
(0.336434 -0.144571 0.30143)
(-0.165203 0.0634177 1.17477)
(-0.209315 0.204674 1.3023)
(-0.237176 0.190148 1.18705)
(-0.168261 -0.0814215 0.922899)
(-0.0538813 -0.0333753 0.579409)
(0.168886 0.123242 0.946261)
(0.289462 0.097434 0.40037)
(0.227114 -0.155607 0.300809)
(0.0303113 -0.107459 0.340042)
(0.0555926 0.0204693 0.257775)
(0.0127715 0.222209 2.5119)
(0.155365 0.311533 1.15397)
(0.35405 0.175027 0.361368)
(0.258352 0.0384473 0.378098)
(0.0710498 -0.134612 0.409594)
(0.0752861 -0.0471335 0.329279)
(0.154486 0.127265 1.70884)
(0.358092 0.0470122 0.646131)
(0.309517 -0.00489355 0.498657)
(0.209289 -0.148403 0.44837)
(0.06924 -0.120228 0.346918)
(0.143868 0.0031897 1.41124)
(0.414245 0.0161676 0.561928)
(0.341779 -0.151264 0.420091)
(0.0558 -0.00410768 0.596295)
(-0.163534 0.177346 1.31756)
(-0.1872 0.179934 1.17018)
(-0.144191 0.220379 0.944806)
(0.0434038 0.110529 0.620818)
(0.143968 0.182016 0.938433)
(0.337946 0.0965677 0.366144)
(0.249884 -0.102838 0.361975)
(-0.00146192 -0.0196328 0.414454)
(0.0569991 0.097862 0.327724)
(0.010148 0.23668 2.50609)
(0.102305 0.406978 1.02323)
(0.369919 0.137723 0.357924)
(0.240056 0.00473532 0.427315)
(0.0413163 -0.0921915 0.497461)
(0.059444 -0.0124246 0.395015)
(0.180572 0.081912 1.74463)
(0.414091 0.0607357 0.601313)
(0.33969 -0.0124946 0.563147)
(0.22223 -0.147899 0.555514)
(0.0660701 -0.108698 0.449565)
(0.244763 0.0679952 1.17648)
(0.453217 0.0121634 0.60934)
(0.314268 -0.148437 0.565408)
(0.326914 -0.00251145 0.518225)
(-0.114029 0.164706 1.20845)
(-0.195404 0.121661 1.08224)
(-0.127325 0.185775 0.910497)
(0.0986193 0.131534 0.690302)
(0.0821735 0.378188 0.783681)
(0.365158 0.0691798 0.369364)
(0.204195 -0.0664529 0.486517)
(-0.0288282 0.064231 0.483826)
(0.043393 0.161807 0.369022)
(0.00861636 0.248568 2.5184)
(0.0566089 0.304815 1.0392)
(0.35729 0.105848 0.385322)
(0.16414 -0.0314994 0.52933)
(0.00959407 -0.027139 0.590993)
(0.0415886 0.037416 0.461045)
(0.0777163 -0.0852142 1.73166)
(0.431849 0.0823416 0.580975)
(0.324092 -0.0441079 0.64648)
(0.200142 -0.131856 0.673866)
(0.0524368 -0.0849803 0.565508)
(0.433883 0.169454 0.9279)
(0.46141 0.00286569 0.706986)
(0.245319 -0.12702 0.705961)
(0.425847 -0.000404466 0.687843)
(-0.00384275 0.029167 1.15985)
(0.193079 -0.0792401 0.850036)
(0.211725 0.0133832 0.846412)
(0.157065 0.124495 0.753458)
(0.196575 0.206563 0.486515)
(0.312518 0.046282 0.419033)
(0.0757672 -0.0119785 0.631328)
(-0.0283914 0.130671 0.519111)
(0.02544 0.211991 0.374375)
(-0.0025855 0.174796 2.48562)
(0.341884 -0.113264 1.10963)
(0.281226 0.101638 0.467213)
(0.0692861 -0.00974313 0.640485)
(0.00542206 0.041969 0.671017)
(0.0430542 0.0814116 0.544035)
(0.247313 0.0116876 1.39221)
(0.375166 0.0948692 0.623124)
(0.237786 -0.0560586 0.74925)
(0.157074 -0.101378 0.792431)
(0.0380656 -0.0595325 0.681476)
(0.43979 0.173666 0.887673)
(0.336406 -0.0412576 0.833958)
(0.155469 -0.0841422 0.795839)
(0.226416 0.018875 0.855092)
(0.14872 -0.0520664 0.752474)
(0.308736 0.0175347 0.685057)
(0.297216 0.00892631 0.861844)
(0.0937239 0.0847836 0.837476)
(0.236867 -0.0147306 0.409156)
(0.15213 0.0689784 0.523539)
(-0.0237133 0.0923281 0.704155)
(-0.0138749 0.152814 0.529991)
(0.00401891 0.214208 0.373146)
(0.0170599 0.0922999 2.35947)
(0.511241 -0.155528 0.827028)
(0.15251 0.12359 0.582229)
(0.0109223 0.0747876 0.718824)
(0.0137781 0.0888049 0.733409)
(0.0564949 0.0825446 0.644375)
(0.308621 0.0781928 0.852532)
(0.226762 0.0662676 0.741814)
(0.138657 -0.0159926 0.839518)
(0.120519 -0.068031 0.888803)
(0.0361526 -0.0448992 0.788267)
(0.206763 0.00670906 0.885462)
(0.145797 -0.0618436 0.88742)
(0.0705998 -0.0312762 0.843891)
(-0.0860241 -0.004939 0.643256)
(0.0260412 0.00282611 0.572595)
(0.0944739 0.100848 0.615374)
(0.126462 0.109694 0.915196)
(-0.00647743 0.0619839 0.742527)
(0.196968 -0.0260406 0.450591)
(0.0248995 0.125 0.591188)
(-0.0534615 0.178253 0.688689)
(-0.00880276 0.123569 0.535217)
(-0.0276964 0.118969 0.396023)
(0.0592448 -0.226729 1.63465)
(0.398607 -0.0306816 0.67849)
(0.0687447 0.151378 0.678178)
(0.0045143 0.163275 0.77121)
(0.0214762 0.105161 0.789009)
(0.053339 0.0253657 0.735461)
(0.10869 -0.0189868 0.740303)
(0.134309 0.0170436 0.834851)
(0.0951125 0.0221201 0.907826)
(0.0999941 -0.039605 0.951923)
(0.0490518 -0.0546957 0.85275)
(0.0143003 -0.0485009 0.82862)
(0.0283576 -0.00375778 0.90668)
(0.0119149 0.00780497 0.862358)
(-0.101006 -0.0223216 0.588945)
(-0.0250644 0.0216057 0.55816)
(-0.0829621 0.0344943 0.618309)
(-0.105283 0.089547 0.879735)
(0.0160815 0.0334199 0.552733)
(0.125689 0.0241157 0.505589)
(-0.0308216 0.160764 0.615205)
(-0.0574273 0.189841 0.651562)
(-0.0410488 0.00161153 0.5382)
(-0.0427278 -0.0151551 0.452331)
(0.0394112 -0.172889 0.83417)
(0.164258 0.030639 0.68863)
(0.0360904 0.174476 0.757484)
(0.0366399 0.202557 0.836741)
(0.0384847 0.0895498 0.83528)
(0.0316393 -0.0460079 0.783154)
(-0.00862073 -0.0650609 0.724549)
(0.100215 -0.00631651 0.880467)
(0.0912713 -0.00140274 0.974136)
(0.0843789 -0.0406678 0.993323)
(0.0638117 -0.0724584 0.876468)
(-0.0856837 -0.0463775 0.792914)
(-0.031082 0.0261661 0.915508)
(-0.0273153 0.0263287 0.875284)
(-0.0570546 -0.0194627 0.625145)
(-0.0371951 0.0281139 0.585634)
(-0.147347 0.0128966 0.61688)
(-0.173128 0.0306352 0.695554)
(-0.0373328 -0.0122816 0.474781)
(0.0801416 0.0450001 0.545013)
(-0.0357432 0.163536 0.625234)
(-0.0660325 0.126029 0.630126)
(-0.0836469 -0.112848 0.522566)
(-0.0548791 -0.113735 0.499176)
(0.00815595 -0.0923424 0.627057)
(0.0725467 0.0283503 0.673437)
(0.0224724 0.182417 0.807307)
(0.0437068 0.186623 0.902742)
(0.0395546 0.0335808 0.8621)
(0.0156218 -0.105495 0.779695)
(-0.060254 -0.0654261 0.744214)
(0.0737879 0.0134661 0.910858)
(0.0576604 -0.0611708 1.03857)
(0.0605724 -0.0542313 1.01684)
(0.063719 -0.0934494 0.868738)
(-0.119793 -0.0441031 0.785175)
(-0.097748 0.0182797 0.881042)
(-0.0598504 0.0311211 0.855245)
(-0.0247969 -0.00842001 0.645659)
(-0.0336697 0.0301447 0.607103)
(-0.128137 0.0361714 0.592093)
(-0.149722 0.0359729 0.56461)
(-0.0779087 -0.055062 0.463577)
(0.053149 0.022561 0.578551)
(-0.0189577 0.138766 0.64292)
(-0.0910686 -0.0244399 0.627097)
(-0.106828 -0.175781 0.498519)
(-0.0712763 -0.170158 0.518627)
(-0.00416526 -0.046758 0.591134)
(0.042184 -0.0182878 0.664536)
(0.00708763 0.163107 0.841749)
(-0.0140344 0.133167 0.941562)
(6.90227e-05 -0.0699747 0.83396)
(0.0312899 -0.155546 0.746256)
(-0.0877274 -0.0428591 0.773587)
(0.0106252 0.0134681 0.958981)
(-0.0119923 -0.0884592 1.07143)
(0.0313297 -0.082869 1.01716)
(0.0817488 -0.114491 0.813574)
(-0.119289 -0.0401573 0.793153)
(-0.114113 0.0146219 0.85654)
(-0.118373 0.0584592 0.721977)
(-0.0212848 -0.00851903 0.639398)
(-0.0304213 0.0276054 0.621893)
(-0.114553 0.0438569 0.574559)
(-0.123781 0.0068766 0.536189)
(-0.0812125 -0.0790428 0.482631)
(0.0295462 -0.0246157 0.612861)
(-0.00513765 0.0539776 0.676474)
(-0.09635 -0.11544 0.632387)
(-0.107811 -0.194448 0.49203)
(-0.0893291 -0.199806 0.521043)
(-0.016119 0.00884548 0.610902)
(0.00965314 -0.102776 0.667438)
(-0.0162245 0.0994488 0.879576)
(-0.0631105 0.0609355 0.952604)
(-0.0267727 -0.159521 0.728546)
(0.0326352 -0.167508 0.716355)
(-0.133344 -0.0539579 0.798411)
(-0.0637216 -0.0374886 0.986966)
(-0.0503453 -0.0718935 1.06399)
(-0.0214477 -0.0604453 0.897029)
(0.0770589 -0.108872 0.787393)
(-0.0935604 -0.010246 0.803836)
(-0.064699 0.0136206 0.851821)
(-0.0569462 0.0343051 0.63351)
(-0.0238846 -0.00884408 0.63901)
(-0.0361676 0.026512 0.647495)
(-0.107117 0.0275309 0.579403)
(-0.10659 -0.0739916 0.570037)
(-0.0656928 -0.0850749 0.534085)
(-0.00205417 -0.0487978 0.660448)
(-0.0326423 -0.0703528 0.71344)
(-0.0802856 -0.170249 0.625511)
(-0.100233 -0.190916 0.500504)
(-0.0870651 -0.195778 0.533184)
(-0.0204426 0.0649075 0.654947)
(-0.00947392 -0.181749 0.715832)
(-0.0569008 -0.0303983 0.886873)
(-0.0320699 -0.00816028 0.93301)
(0.0022289 -0.193169 0.630195)
(0.00650024 -0.173678 0.654822)
(-0.160084 -0.119682 0.794566)
(-0.095116 -0.0796556 0.950156)
(-0.0408298 -0.0522188 1.03875)
(-0.00412787 0.00360081 0.782382)
(0.0370963 -0.0957428 0.650248)
(-0.0865835 0.0231786 0.80004)
(-0.0331112 0.0201233 0.850871)
(0.0501617 -0.00508137 0.600471)
(-0.0289104 -0.0100382 0.676299)
(-0.0490532 0.0315231 0.69028)
(-0.104037 -0.0349961 0.626947)
(-0.0977788 -0.143184 0.621231)
(-0.0457218 -0.0748523 0.610781)
(-0.0383221 -0.0617022 0.726278)
(-0.0837979 -0.176264 0.742529)
(-0.079874 -0.207068 0.614354)
(-0.0955346 -0.170646 0.521912)
(-0.0616599 -0.158329 0.554751)
(-0.00884465 0.101413 0.707017)
(-0.0282535 -0.180465 0.805156)
(-0.10229 -0.166683 0.831538)
(0.016422 -0.130336 0.845008)
(0.0291445 -0.21245 0.573057)
(-0.00101417 -0.176957 0.589921)
(-0.116224 -0.152563 0.806204)
(-0.0689621 -0.0930882 0.839964)
(0.0330048 -0.0286514 0.915136)
(0.109688 -0.0101745 0.714771)
(0.0729304 -0.132958 0.559222)
(-0.0930227 0.0203713 0.770315)
(-0.00694483 0.0521722 0.832287)
(0.118118 -0.0219909 0.609602)
(-0.0184316 -0.00849899 0.766125)
(-0.0592106 0.0354618 0.762476)
(-0.104493 -0.0904833 0.717737)
(-0.0959818 -0.173197 0.672284)
(-0.0271465 -0.0538256 0.693719)
(-0.0761217 -0.0817884 0.804996)
(-0.125396 -0.213175 0.764114)
(-0.102446 -0.225886 0.614517)
(-0.0965511 -0.14591 0.532582)
(-0.0465606 -0.126619 0.554799)
(-0.00261098 0.122802 0.774703)
(-0.0977816 -0.141974 0.869936)
(-0.122692 -0.226341 0.741462)
(-0.0012199 -0.218059 0.733389)
(0.0213431 -0.218512 0.54905)
(-0.00884831 -0.148267 0.562545)
(-0.0204278 -0.0503692 0.897799)
(-0.00227868 -0.0953512 0.686328)
(0.0918695 -0.0442359 0.740989)
(0.1633 -0.0709083 0.653304)
(0.0954219 -0.166274 0.562003)
(-0.0401494 0.0078477 0.667738)
(0.0961096 0.0231189 0.781561)
(0.163878 -0.0529261 0.664906)
(0.00263142 -0.00352356 0.857004)
(-0.0597544 0.0350281 0.855458)
(-0.103035 -0.107157 0.812181)
(-0.104237 -0.174923 0.72611)
(-0.0140535 -0.0298836 0.772748)
(-0.114288 -0.100056 0.893287)
(-0.14537 -0.194247 0.785789)
(-0.120022 -0.225892 0.619399)
(-0.090079 -0.120712 0.53587)
(-0.042758 -0.102153 0.531415)
(0.000439129 0.134952 0.865028)
(-0.140427 -0.126652 0.918129)
(-0.103165 -0.199385 0.652027)
(-0.0419682 -0.225753 0.6406)
(-0.00342478 -0.200018 0.543123)
(-0.012431 -0.106606 0.541643)
(0.0568969 0.0501568 0.962611)
(0.0435987 -0.0856169 0.57819)
(0.0802038 -0.0799381 0.634031)
(0.114791 -0.135294 0.610602)
(0.076418 -0.154118 0.580392)
(0.0321614 0.0240055 0.584667)
(0.136486 -0.0255827 0.704204)
(0.171135 -0.0782094 0.701066)
(0.0127978 -0.00328502 0.946573)
(-0.0620815 0.0395304 0.950055)
(-0.105648 -0.0965745 0.904568)
(-0.10745 -0.170392 0.769136)
(-0.0156258 -0.0282064 0.843296)
(-0.118289 -0.0822936 0.981123)
(-0.144563 -0.176575 0.80365)
(-0.119348 -0.21915 0.617737)
(-0.0739253 -0.0947905 0.529965)
(-0.030278 -0.0780184 0.503081)
(0.00465446 0.152052 0.959017)
(-0.139596 -0.0843303 0.971071)
(-0.0527597 -0.136394 0.59087)
(-0.0443696 -0.18497 0.577746)
(-0.0159618 -0.165708 0.537658)
(-0.00309221 -0.0768654 0.505222)
(0.0707414 0.0497585 0.968288)
(0.0686831 -0.0560756 0.513451)
(0.0597632 -0.098571 0.568373)
(0.0536858 -0.147 0.583068)
(0.0319029 -0.0909399 0.566347)
(0.0721062 0.0374138 0.52801)
(0.111296 -0.0215015 0.642704)
(0.155074 -0.0854422 0.682492)
(0.0306693 -0.000124459 1.04433)
(-0.0700865 0.0487616 1.04113)
(-0.115494 -0.0715172 0.979333)
(-0.0897934 -0.147304 0.788577)
(-0.00202589 -0.00967881 0.926024)
(-0.0980619 -0.0475026 1.04923)
(-0.128311 -0.177407 0.810985)
(-0.0875702 -0.197068 0.606524)
(-0.0486743 -0.0628884 0.518167)
(-0.00606042 -0.0540339 0.484021)
(0.00988748 0.166497 1.02387)
(-0.0962428 0.00648255 0.995754)
(0.0107667 -0.0745783 0.558118)
(-0.0156676 -0.13237 0.540432)
(-0.00827756 -0.125137 0.530718)
(0.0114726 -0.0555206 0.473227)
(0.101601 0.0116885 0.93506)
(0.0877668 -0.0149032 0.48597)
(0.0533585 -0.0954889 0.54031)
(0.0324416 -0.119227 0.566158)
(0.0119897 -0.0497691 0.528272)
(0.0906637 0.046217 0.498809)
(0.0979781 -0.014819 0.598855)
(0.0972218 -0.0656553 0.61613)
(0.0393938 0.00188187 1.09932)
(-0.0650892 0.0501855 1.11219)
(-0.106853 -0.0605843 1.01462)
(-0.079431 -0.0848645 0.790637)
(0.017396 0.00798657 0.986187)
(-0.0653522 0.00975659 1.10043)
(-0.0882521 -0.174638 0.808861)
(-0.00658976 -0.14119 0.600757)
(-0.0155257 -0.0287796 0.519648)
(0.0205677 -0.0197265 0.48104)
(0.00912784 0.15951 1.03935)
(-0.00561027 0.0711643 0.994341)
(0.0681121 -0.0188714 0.531858)
(0.0210505 -0.0836369 0.526665)
(0.00577639 -0.0797527 0.531392)
(0.0199514 -0.032344 0.457834)
(0.155665 0.0340105 0.806364)
(0.102282 0.0187784 0.484362)
(0.0540598 -0.0871964 0.537247)
(0.0330602 -0.0849428 0.55539)
(0.00284422 -0.0195727 0.499542)
(0.103597 0.0537767 0.496551)
(0.0924968 -0.0157798 0.571732)
(0.0448826 -0.0347692 0.573028)
(0.0343791 0.00131208 1.14875)
(-0.0704222 0.059596 1.1426)
(-0.088986 -0.0303155 1.0328)
(-0.0496496 -0.042812 0.764999)
(0.0168176 0.00498288 0.995512)
(-0.0230246 0.0591057 1.11817)
(-0.00636143 -0.127766 0.800537)
(0.0716764 -0.0807546 0.601541)
(0.0227137 -0.00174099 0.542295)
(0.0355286 0.0223862 0.500044)
(0.0108276 0.13982 1.02692)
(0.101547 0.0445286 0.990897)
(0.106382 0.0318369 0.50878)
(0.0464076 -0.0488845 0.53707)
(0.0183972 -0.042227 0.544917)
(0.0203143 -0.00796821 0.459646)
(0.142113 0.0933001 0.654094)
(0.108374 0.0310782 0.500195)
(0.056253 -0.0798836 0.550033)
(0.0367756 -0.0587683 0.553874)
(-0.00241881 0.00406053 0.490118)
(0.112917 0.053375 0.521482)
(0.0772831 -0.0256981 0.557553)
(0.00203192 -0.00723347 0.561994)
(0.0418193 0.00889299 1.16957)
(-0.0546944 0.0524584 1.14749)
(-0.0682146 -0.00911609 1.03594)
(-0.0104428 0.0328823 0.754958)
(0.00399335 -0.0131264 0.978863)
(-0.00365288 0.0574221 1.09751)
(0.113586 -0.0243224 0.767509)
(0.13548 -0.0322556 0.600429)
(0.0599834 0.0155119 0.576641)
(0.0412169 0.0603429 0.54403)
(0.0235561 0.0733535 0.94305)
(0.11269 0.000795439 0.943264)
(0.120273 0.0603847 0.506551)
(0.0542864 -0.0288651 0.569152)
(0.0277366 -0.0188688 0.566651)
(0.0170231 0.0143536 0.477137)
(0.123545 0.15029 0.570334)
(0.102095 0.0198091 0.529889)
(0.0522978 -0.0747593 0.574412)
(0.0330255 -0.0371272 0.559219)
(-0.00548535 0.0196137 0.496175)
(0.109538 0.0421081 0.567356)
(0.0592462 -0.032665 0.554069)
(-0.0216438 0.00936717 0.56835)
(0.0489695 0.0115131 1.15748)
(-0.0423041 0.042615 1.11544)
(-0.00749539 0.0369992 1.00647)
(-0.0202807 0.101861 0.798412)
(-0.0229733 0.00483513 0.934407)
(0.0514709 0.062519 1.06032)
(0.188886 0.0511082 0.708087)
(0.177206 -0.0129129 0.611388)
(0.0781921 0.0272193 0.619441)
(0.0437159 0.08827 0.60246)
(0.0105805 0.113238 0.805688)
(0.0826893 0.0988473 0.824351)
(0.115064 0.0625705 0.523666)
(0.048992 -0.0134971 0.61314)
(0.0292702 -0.00139987 0.590672)
(0.0131821 0.0321181 0.504893)
(0.125909 0.182464 0.555279)
(0.0742213 -0.0191461 0.57926)
(0.0414661 -0.0609904 0.594974)
(0.0264422 -0.0164931 0.565939)
(-0.0080857 0.0267255 0.514025)
(0.0896929 0.0283731 0.620622)
(0.0352124 -0.0299918 0.562802)
(-0.0335732 0.019192 0.572736)
(0.0526172 0.00877845 1.14154)
(-0.00703356 0.0432896 1.05581)
(0.0460335 0.0236527 0.995777)
(-0.011239 0.0825436 0.852958)
(-0.0605626 0.0107813 0.856188)
(0.0316234 0.10699 1.00625)
(0.203451 0.0690371 0.669987)
(0.189024 -0.0172146 0.642397)
(0.0678266 0.0330132 0.671728)
(0.0428726 0.108409 0.667106)
(0.0120984 0.214187 0.704234)
(0.0746938 0.212481 0.66675)
(0.0649396 0.0449289 0.581231)
(0.0382117 0.00969952 0.645113)
(0.0196167 0.0178714 0.611546)
(0.00911514 0.0443886 0.535546)
(0.12176 0.180448 0.58435)
(0.03752 -0.0476679 0.615887)
(0.0242318 -0.0278884 0.608909)
(0.0224728 0.00671835 0.572232)
(-0.00880491 0.0260255 0.542039)
(0.0612749 0.0174422 0.662445)
(0.00622722 -0.0168924 0.578353)
(-0.0371019 0.022635 0.57225)
(0.0711605 -0.000566274 1.12569)
(0.00868027 0.0262547 0.809383)
(0.184504 -0.00553943 0.975908)
(0.138087 0.0166159 0.907148)
(-0.0205232 -0.00718101 0.820147)
(0.0315612 0.0768895 0.854452)
(0.164831 0.0409227 0.662261)
(0.153337 -0.0280782 0.690761)
(0.0378868 0.038379 0.722903)
(0.0316788 0.121133 0.728311)
(0.0160874 0.22392 0.676969)
(0.0494385 0.166881 0.620526)
(-0.00496277 0.0368402 0.6292)
(0.0130395 0.0404391 0.644565)
(0.00216368 0.0415949 0.622422)
(0.00556587 0.0451229 0.561879)
(0.0912411 0.123845 0.65027)
(-0.00181673 -0.0493828 0.641872)
(-0.000789889 0.0185382 0.617298)
(0.0144392 0.0362132 0.580231)
(-0.0041177 0.0186799 0.576239)
(0.0365286 0.00339869 0.685937)
(-0.0194464 0.000535381 0.596534)
(-0.0351781 0.0216983 0.57314)
(0.0974554 0.00876002 1.1079)
(0.0294144 -0.0267401 0.704433)
(0.173919 0.0576887 0.856248)
(0.253322 0.0693123 0.932184)
(0.126468 -0.0060554 0.882831)
(0.0450402 0.0414258 0.719247)
(0.0279576 -0.0261241 0.659628)
(0.0457523 -0.0129494 0.718419)
(0.0126963 0.0578382 0.750757)
(0.00780017 0.110335 0.775751)
(0.00947241 0.139541 0.672801)
(-0.00737087 0.0692859 0.64644)
(-0.052969 0.0411483 0.643535)
(-0.0351055 0.0735274 0.617111)
(-0.0165752 0.0721571 0.616758)
(-0.00190131 0.0384414 0.581607)
(0.0520107 0.0698892 0.700533)
(-0.0385487 -0.033193 0.666475)
(-0.0294781 0.0594743 0.622148)
(-0.00103716 0.0643321 0.586199)
(0.00285917 0.0108334 0.60843)