/*--------------------------------*- C++ -*----------------------------------*\
| =========                 |                                                 |
| \\      /  F ield         | OpenFOAM: The Open Source CFD Toolbox           |
|  \\    /   O peration     | Version:  5.x                                   |
|   \\  /    A nd           | Web:      www.OpenFOAM.org                      |
|    \\/     M anipulation  |                                                 |
\*---------------------------------------------------------------------------*/
FoamFile
{
    version     2.0;
    format      ascii;
    class       volVectorField;
    location    "5.7";
    object      U;
}
// * * * * * * * * * * * * * * * * * * * * * * * * * * * * * * * * * * * * * //

dimensions      [0 1 -1 0 0 0 0];

internalField   nonuniform List<vector> 
10571
(
(0.127715 0.0332297 1.79147)
(0.0332128 0.00711358 0.711603)
(0.0909717 -0.0561216 1.1073)
(0.0779639 2.22154e-05 1.20763)
(0.00294831 0.0188616 1.00812)
(0.00757478 0.00722978 1.07782)
(0.146423 0.133901 0.979722)
(0.0831238 0.069238 0.943581)
(0.00798703 0.175024 1.05515)
(-0.0490889 0.118238 1.04194)
(0.184787 0.0233783 1.14911)
(0.130268 0.0785916 1.03066)
(0.142271 0.302283 1.03814)
(0.175214 0.486838 1.07499)
(0.110384 0.383109 1.11097)
(0.0653343 0.116804 0.903965)
(0.114162 0.074722 0.704913)
(0.18712 0.266308 1.18148)
(0.169765 0.629729 1.24811)
(0.0653687 0.236011 1.06411)
(-0.063503 0.0149542 0.574708)
(0.103309 -0.0148722 0.919733)
(0.0476413 0.167119 0.899688)
(-0.0330244 -0.0159772 0.603384)
(-0.00862958 0.0927478 1.12746)
(0.00582162 -0.000953505 0.662429)
(-0.0253996 0.030918 0.83564)
(0.0373669 0.0351369 0.907242)
(0.139905 0.0376704 0.852902)
(0.0212615 -0.018248 0.788845)
(0.0343153 0.0441518 0.47247)
(-0.00197712 0.0469158 0.456258)
(0.0171564 -0.0251474 0.444697)
(-0.0627833 -0.0266251 0.825143)
(0.021298 0.0379568 0.878447)
(0.0100585 0.0712358 0.78084)
(0.0499585 -0.038604 0.427968)
(-0.0336481 -0.0428895 0.430574)
(-0.0162526 -0.0432333 0.453419)
(0.0377395 -0.053444 0.778165)
(-0.0446287 0.0663853 0.786545)
(-0.0192995 -0.0598247 0.454586)
(0.00440364 -0.0755613 0.524995)
(-0.00279707 -0.0436697 0.881063)
(0.0698173 -0.0319283 0.959125)
(-0.0216936 -0.105155 1.11373)
(-0.0417675 0.0360323 1.17282)
(0.0153902 0.101051 1.14851)
(-0.0261143 -0.0400023 0.599252)
(-0.0049995 -0.0185174 0.443951)
(-0.0235872 -0.00889029 0.510211)
(-0.0143285 -0.0145152 0.5945)
(0.0569651 -0.015994 0.499339)
(0.0141394 -0.0183643 0.496416)
(0.0387984 0.0511645 0.98968)
(-0.00447628 0.0688713 0.853049)
(-0.0257187 0.0103918 0.8355)
(-0.0186684 -0.0368717 0.536227)
(-0.00744029 -0.00370522 0.470234)
(0.0116806 -0.000684 0.4938)
(0.0453969 -0.0223545 1.0382)
(-0.0145019 -0.0355954 0.843357)
(-0.0488473 -0.0944109 0.692225)
(-0.0290288 -0.0571621 0.465544)
(-0.0131492 0.00997431 0.419467)
(-0.002485 -0.101411 0.831225)
(-0.0596225 -0.130169 0.522499)
(-0.0499638 -0.112545 0.509931)
(0.0650578 -0.0491477 0.716706)
(-0.101358 -0.0512487 0.527498)
(-0.0616304 -0.141225 0.641875)
(0.0459997 -0.0544363 0.636427)
(0.0419463 -0.0249333 0.645387)
(0.0155449 0.027247 0.0344403)
(0.0927125 0.0886313 0.215688)
(0.0563108 0.113614 0.416676)
(-0.0379646 0.093176 0.215562)
(0.0645947 0.079805 0.223241)
(0.251933 0.224216 0.989055)
(0.00492731 0.272778 1.03301)
(-0.233341 0.267976 0.906036)
(0.0114203 0.0736536 0.357818)
(-0.00605939 0.0015722 0.306364)
(0.0789367 -0.0110364 0.188804)
(0.229793 0.0339123 1.01698)
(0.0410272 0.0417318 1.00196)
(-0.255357 -0.246487 1.00473)
(-0.0983564 0.0714198 0.172933)
(0.142147 0.00139133 0.197215)
(0.334453 -0.297063 1.02717)
(-0.274306 -0.319322 1.05549)
(-0.182021 -0.110123 0.471681)
(-0.00343896 0.0304126 0.710403)
(0.142677 -0.0584663 0.394643)
(0.0942031 -0.0360041 0.854506)
(-0.00374659 0.00748605 0.980507)
(0.0305976 0.0319951 0.511601)
(-0.00860961 0.0511894 0.00632944)
(0.0576222 0.0774137 0.187401)
(0.0124244 0.0803439 0.208201)
(-0.0302986 0.0907775 0.102639)
(0.0333991 0.141975 0.217862)
(0.0585571 0.0695207 0.611568)
(0.0172401 0.0418703 0.654102)
(-0.0218112 0.0831148 0.566335)
(-0.00118504 0.121421 0.322143)
(0.0123335 0.0209948 0.298491)
(0.0637001 0.00790104 0.200549)
(0.0367048 0.0404049 0.73453)
(0.0427503 0.0493077 0.747083)
(-0.0272905 -0.0843827 0.608619)
(-0.0955727 -0.0384717 0.00301682)
(0.112559 -0.00954 0.09205)
(0.135688 -0.119666 0.646331)
(-0.117944 -0.133347 0.598509)
(0.0550089 0.00751776 -0.00764346)
(0.0256777 -0.157556 0.229751)
(-0.00137811 -0.0754508 0.0353741)
(0.00700661 -0.197735 0.143682)
(-0.0100015 -0.0704736 0.354345)
(-0.0544811 0.012026 0.304062)
(0.0318134 0.0168925 -0.0484967)
(-0.0331313 0.132229 0.164002)
(-0.0388332 0.0733607 0.248675)
(0.0237683 0.0642957 0.0399926)
(0.0596905 0.101369 0.259706)
(-0.00258199 0.0247353 0.709921)
(0.0220856 -0.0450412 0.771251)
(0.0185611 0.0124589 0.681056)
(0.0821265 0.0494656 0.296917)
(-0.0539331 0.0414609 -0.0047695)
(0.00634355 -0.0116882 0.312105)
(0.0604551 -0.0611512 0.316723)
(-0.0410646 0.042604 0.838562)
(0.0271212 0.0467604 0.871614)
(0.0385863 -0.0410398 0.692379)
(0.089591 -0.112699 0.185418)
(0.16581 -0.00861372 0.127034)
(0.00646523 -0.0699251 0.13433)
(0.0770647 -0.0744048 0.761935)
(-0.0799297 -0.0702428 0.728287)
(0.110075 0.0527044 0.144059)
(0.0826675 -0.0276055 0.0607865)
(-0.0769976 0.0926427 0.144976)
(-0.0354322 0.0564145 0.184502)
(0.0550755 -0.00479687 0.0877732)
(-0.0493138 -0.000234769 0.299396)
(0.0681416 -0.0430334 -0.0494559)
(-0.0149258 0.119005 0.125979)
(-0.0870171 0.0875927 0.20867)
(-0.000320729 -0.00730884 0.0781195)
(0.0152022 -0.0139213 0.31909)
(-0.0712522 -0.0159345 0.734455)
(0.0205919 -0.0777377 0.751008)
(0.0263899 -0.0422029 0.672384)
(-0.0108244 -0.0241516 0.262398)
(0.0381111 -0.0016439 0.033023)
(-0.013418 -0.092664 0.395701)
(-0.0187538 -0.12067 0.366364)
(-0.0905873 0.0332053 0.820567)
(0.00483316 0.0293838 0.851231)
(0.0539175 -0.0289656 0.674111)
(0.0170686 -0.113429 0.263034)
(0.00856016 -0.013168 0.107979)
(-0.0552691 -0.0925154 0.174456)
(0.002211 -0.0361976 0.738202)
(-0.060887 -0.0456341 0.697098)
(0.0631008 -0.00288693 0.180431)
(0.0642056 -0.0466102 0.107399)
(-0.0305696 -0.0222505 -0.0390594)
(-0.0920467 0.0472248 0.124673)
(-0.00633533 0.00472444 0.161758)
(0.0322023 -0.00166885 0.0520002)
(0.0130221 0.0135484 0.286533)
(0.102738 -0.0925123 -0.0368839)
(0.110305 0.020046 0.125457)
(-0.0503904 0.117832 0.184548)
(-0.0387224 -0.0379903 0.166494)
(-0.0718775 -0.065237 0.384605)
(-0.109163 -0.0678784 0.6969)
(0.0161662 -0.111668 0.674631)
(0.0295008 -0.0477677 0.653148)
(-0.016661 -0.057134 0.253942)
(0.00588304 -0.0475513 0.053081)
(-0.0101537 -0.0570156 0.529706)
(-0.0795992 -0.0842709 0.387835)
(-0.109007 0.0253666 0.747871)
(0.00283833 0.0216103 0.761272)
(0.0543729 -0.0177766 0.636229)
(0.00772532 -0.0941516 0.315198)
(0.0240597 0.0369695 0.131329)
(-0.122171 -0.0819453 0.219377)
(-0.116048 -0.0320823 0.672318)
(0.00577161 -0.0261788 0.645084)
(0.0446091 -0.00733887 0.169171)
(-0.0682161 -0.0016715 0.148578)
(-0.0106233 0.0308672 -0.0492521)
(-0.0477113 0.070637 0.119965)
(-0.000255322 0.0134536 0.142276)
(0.0101994 0.00454916 0.0575742)
(0.0444651 0.0149437 0.135542)
(0.0670039 -0.0705564 -0.00678304)
(0.153749 -0.0438586 0.148031)
(-0.0269698 0.0935247 0.205921)
(-0.0702503 -0.0230475 0.236702)
(-0.0707016 -0.0975872 0.435049)
(-0.125174 -0.132084 0.677548)
(0.0108331 -0.1267 0.649897)
(0.01954 -0.0474464 0.65244)
(-0.0611171 -0.0984343 0.251)
(-0.0119226 -0.0869647 -0.0277994)
(0.00248129 0.0126685 0.646293)
(-0.128599 -0.0614457 0.430199)
(-0.140327 -0.0706545 0.650732)
(-0.0122156 -0.0167715 0.675805)
(0.0349834 -0.0202727 0.632205)
(0.0133379 -0.0480533 0.350178)
(0.0225707 0.0430433 0.104667)
(-0.159807 -0.059779 0.29185)
(-0.155872 -0.0441285 0.552528)
(0.0103113 -0.0443229 0.562685)
(0.0277299 -0.00069536 0.183066)
(-0.0596817 0.0628603 0.156941)
(0.0208917 0.080732 0.146075)
(-0.000141227 0.0407332 0.16616)
(0.0143844 0.0157708 0.111126)
(0.0606152 0.00383855 0.0908352)
(0.00625068 -0.0237475 0.0357267)
(0.136307 -0.0966992 0.217145)
(0.0346024 -0.000879077 0.291176)
(-0.0652526 -0.015479 0.268068)
(0.0170874 -0.13283 0.396533)
(-0.0872947 -0.175233 0.665513)
(0.00462542 -0.142855 0.646233)
(0.0125218 -0.0609013 0.632561)
(-0.0832206 -0.104064 0.226704)
(0.0206914 0.116396 0.687225)
(-0.123132 -0.011189 0.536561)
(-0.132943 -0.150324 0.542292)
(-0.0500424 -0.0751118 0.611247)
(0.0232921 -0.0215342 0.596149)
(-0.0878838 0.0854527 0.310381)
(-0.123616 0.0204077 0.361925)
(-0.059065 -0.0281698 0.4247)
(-0.0161592 -0.0724922 0.46903)
(0.00992693 -0.00270855 0.213122)
(-0.0532934 0.0902072 0.220496)
(0.0863018 0.081869 0.165114)
(0.0235413 0.0272914 0.196407)
(0.0270611 0.0120752 0.158373)
(0.0488155 0.000272277 0.131512)
(0.0089927 -0.028023 0.0529197)
(0.0875246 -0.096834 0.285189)
(0.0991622 -0.0719972 0.382659)
(-0.0253949 0.00179247 0.293347)
(-0.0639875 -0.0171004 0.309984)
(0.00337497 -0.193175 0.695571)
(-0.0152839 -0.164148 0.665201)
(0.00122937 -0.0954672 0.612247)
(0.0238921 -0.0189542 0.18592)
(-0.00268108 0.189439 0.731497)
(-0.00379115 0.187446 0.657085)
(-0.0469132 -0.13937 0.490392)
(-0.0514059 -0.114499 0.556119)
(0.00330829 -0.0533507 0.560793)
(-0.0157359 0.0646181 0.293064)
(-0.0211847 0.138605 0.458768)
(0.0781723 -0.00824965 0.350964)
(-0.00508241 -0.0833563 0.423247)
(-0.015899 -0.00157987 0.24583)
(-0.0575909 0.0816629 0.228826)
(0.139087 0.0815764 0.196418)
(0.0580599 0.00377332 0.225935)
(0.0349918 0.00111406 0.195463)
(0.00592591 -0.00359543 0.212073)
(0.0409299 -0.0480062 0.0559077)
(0.0194523 -0.116099 0.290403)
(0.144867 -0.0928089 0.458536)
(0.0251339 0.0221306 0.337005)
(-0.0666501 0.0831248 0.233884)
(0.0421507 -0.151534 0.742281)
(-0.0434739 -0.155277 0.707658)
(-0.016394 -0.108308 0.570159)
(0.0389418 0.0840997 0.189471)
(-0.0223255 0.121223 0.780419)
(0.0308326 0.170004 0.529924)
(0.072282 -0.0453389 0.504408)
(-0.0343887 -0.120328 0.540631)
(-0.0103557 -0.0709253 0.526875)
(-0.0375358 0.0514371 0.258613)
(0.0726766 0.182893 0.508538)
(0.159599 0.00563441 0.335557)
(0.0554908 -0.075256 0.411779)
(0.00204612 -0.0340672 0.28957)
(-0.0377488 0.0491074 0.1675)
(0.170962 0.0740011 0.232705)
(0.0752811 -0.0105144 0.250244)
(0.0439175 -0.0139532 0.213744)
(-0.0269719 -0.0088581 0.298024)
(0.0364627 -0.0326878 0.033189)
(-0.00125414 -0.143427 0.245694)
(0.133567 -0.114638 0.491249)
(0.0647467 0.0480185 0.347746)
(0.0747853 0.0477311 0.170192)
(0.0718505 -0.0194408 0.760138)
(-0.0575537 -0.07567 0.765268)
(-0.0366894 -0.0858727 0.553361)
(0.0164763 0.140918 0.174441)
(0.0120934 0.0527563 0.779964)
(0.0530101 0.13779 0.406464)
(0.129838 0.0650867 0.531354)
(-0.00380256 -0.10394 0.555595)
(-0.0165571 -0.0655716 0.513183)
(-0.0291031 0.0457573 0.256324)
(0.0994972 0.136359 0.507817)
(0.191094 0.0328068 0.346892)
(0.122602 -0.0536576 0.417552)
(0.0795461 -0.0590948 0.355425)
(-0.0117326 0.0323863 0.136175)
(0.161535 0.0420481 0.264036)
(0.0724377 -0.0180627 0.271616)
(0.0383102 -0.0166676 0.205879)
(-0.0438449 -0.0101834 0.380744)
(0.00679674 0.00848355 0.0304225)
(0.00715583 -0.0683744 0.207412)
(0.0640987 -0.077957 0.507685)
(0.0688942 0.0515484 0.327169)
(0.0739325 0.0561618 0.110021)
(0.14074 0.0697463 0.724647)
(-0.0517471 -0.0213962 0.816132)
(-0.051042 0.00391556 0.559368)
(-0.0158976 0.160117 0.166447)
(0.0125943 0.0874075 0.662741)
(0.126995 0.080598 0.324949)
(0.170678 0.126903 0.542718)
(0.0695212 -0.0629859 0.608794)
(-0.0235702 -0.0364614 0.514548)
(0.00818701 0.0447918 0.273869)
(0.122872 0.127938 0.478559)
(0.189485 0.0553803 0.385217)
(0.141288 -0.0353949 0.438374)
(0.0992069 -0.0447254 0.408251)
(0.00594485 0.0197572 0.166417)
(0.101518 -0.00702191 0.295222)
(0.0516709 -0.0142996 0.291775)
(0.0144682 -0.00501449 0.196809)
(-0.0395327 -0.00363284 0.439736)
(-0.019125 0.0333819 0.0241831)
(-0.0263941 0.0123544 0.196454)
(-0.0577437 0.0186801 0.482008)
(0.0539549 0.002085 0.295905)
(0.0553008 0.0376196 0.0540624)
(0.152427 0.0998901 0.674271)
(-0.0266031 -0.0306946 0.895586)
(-0.0411066 0.148341 0.576421)
(-0.064725 0.138487 0.170215)
(0.0207532 -0.0289164 0.409605)
(0.162777 0.0359288 0.251613)
(0.171026 0.167369 0.561259)
(0.0958883 -0.0401297 0.670232)
(-0.0324565 0.0578336 0.544535)
(0.0373974 0.0429 0.293884)
(0.125236 0.0975639 0.418844)
(0.162885 0.0942826 0.444384)
(0.121844 -0.0292751 0.468793)
(0.0669157 0.00811674 0.457105)
(0.0171619 0.0068388 0.211121)
(0.0271029 -0.016765 0.312524)
(0.0297306 -0.00572478 0.311587)
(-0.0174938 0.0125108 0.210833)
(-0.0233244 0.00140152 0.445137)
(-0.0325768 0.0421219 0.0164101)
(-0.0534395 0.0345958 0.189078)
(-0.0705456 0.0170371 0.406385)
(0.0345812 -0.0406383 0.263954)
(0.0435412 0.0348384 0.0247145)
(0.0724158 0.14439 0.624256)
(-0.00363398 0.0154311 0.994615)
(-0.0114537 0.229264 0.584958)
(-0.0976767 0.0776481 0.163026)
(0.0118223 -0.0126803 0.221806)
(0.130312 0.014604 0.246706)
(0.120922 0.22859 0.565566)
(0.0832763 0.012718 0.742752)
(-0.0238682 0.142666 0.583694)
(0.0520822 0.0288764 0.308878)
(0.0425056 -0.020334 0.388204)
(0.118438 0.137591 0.492081)
(0.080259 -0.0132112 0.51853)
(0.0182439 0.0842242 0.508297)
(0.0254102 -0.0051855 0.25667)
(-0.0255823 -0.00155622 0.319937)
(0.0139966 0.0049118 0.338247)
(-0.046778 0.0291569 0.242007)
(-0.0218941 -0.000520878 0.42658)
(-0.0352855 0.0422275 0.0203224)
(-0.0684748 0.0314611 0.181774)
(-0.0549034 -0.0108951 0.330823)
(0.01267 -0.0227843 0.245124)
(0.0394355 0.0312821 0.0262563)
(3.89576e-05 0.18066 0.517575)
(0.0218312 0.128876 1.00029)
(0.0149704 0.252928 0.584146)
(-0.0852314 0.0104872 0.140829)
(0.00148903 -0.0165602 0.158062)
(0.0951759 -0.0242672 0.260112)
(0.059238 0.258466 0.566344)
(0.0684184 0.109477 0.804596)
(0.0024885 0.17654 0.618182)
(0.0559938 0.00483893 0.323428)
(-0.013074 -0.055083 0.377232)
(0.0635776 0.122683 0.530918)
(0.0535715 0.0377366 0.579233)
(0.0014887 0.131639 0.555924)
(0.031102 -0.0147766 0.30647)
(-0.0565308 -0.000193765 0.338644)
(-0.00202138 0.0223577 0.374251)
(-0.0576322 0.0371056 0.285252)
(-0.0454884 0.00538175 0.339043)
(-0.0282681 0.0352083 0.0328231)
(-0.0678647 0.041228 0.17471)
(-0.0311842 0.0482916 0.28792)
(-0.0154414 0.0147207 0.237989)
(0.0425374 0.0201392 0.0447141)
(0.0160207 0.149058 0.438959)
(0.0558249 0.196689 0.934061)
(0.0241267 0.245363 0.578114)
(-0.0546901 -0.0373901 0.1244)
(-0.00478369 -0.0430385 0.13238)
(0.0581823 -0.0603388 0.279939)
(0.0247594 0.229436 0.579262)
(0.0563772 0.18361 0.83685)
(0.0241433 0.162067 0.650161)
(0.0478937 -0.0174188 0.337061)
(-0.0466484 -0.0566574 0.376886)
(0.00919934 0.0536162 0.567667)
(0.0430341 0.103301 0.650554)
(0.0024308 0.130513 0.603798)
(0.0317209 -0.0231025 0.355904)
(-0.0656305 -0.0070871 0.361828)
(-0.0236295 0.0433688 0.416244)
(-0.0497281 0.0356581 0.332262)
(-0.0546831 0.00516428 0.234679)
(-0.0186121 0.0249303 0.0417803)
(-0.0524497 0.0564285 0.167596)
(-0.0225185 0.0828123 0.245189)
(-0.0420934 0.00522977 0.220679)
(0.0462174 0.00799146 0.060824)
(0.0325176 0.104451 0.402445)
(0.0864486 0.209556 0.872041)
(0.0212607 0.20135 0.570093)
(-0.0248046 -0.0584294 0.118926)
(-0.00894277 -0.0594069 0.131683)
(0.030846 -0.0847512 0.299291)
(-0.00379756 0.138061 0.604583)
(0.0447498 0.199462 0.853885)
(0.0300338 0.0983332 0.699824)
(0.0310461 -0.034891 0.340018)
(-0.0588436 -0.057633 0.376509)
(-0.0412219 -0.0116844 0.584551)
(0.0400812 0.135591 0.71139)
(0.00964547 0.0946589 0.649821)
(0.0283218 -0.0280496 0.393292)
(-0.0580336 -0.0119679 0.382123)
(-0.0465993 0.0556702 0.457945)
(-0.0335804 0.0303629 0.374812)
(-0.0581092 0.00135487 0.163836)
(-0.0112648 0.0170385 0.0439829)
(-0.0336997 0.0613551 0.163314)
(-0.0355228 0.0822792 0.2174)
(-0.0571133 -0.0354434 0.205708)
(0.0432404 -0.00143553 0.070363)
(0.0170422 0.0796195 0.397062)
(0.0840617 0.198405 0.821566)
(-0.0149331 0.0606668 0.561751)
(-0.00344575 -0.056878 0.122304)
(-0.00980699 -0.0576975 0.152672)
(0.0152717 -0.0992928 0.316312)
(-0.0257362 0.0407015 0.627785)
(0.0416755 0.190231 0.863771)
(0.0236633 0.0548624 0.726106)
(0.0174507 -0.0435903 0.330774)
(-0.0630611 -0.0619689 0.360729)
(-0.0773407 -0.0366736 0.580946)
(0.0307807 0.122858 0.750333)
(0.0266707 0.0583807 0.678385)
(0.0272301 -0.0299666 0.420063)
(-0.0505111 -0.0173488 0.395438)
(-0.0635984 0.0543662 0.486776)
(-0.0251259 0.0280927 0.413636)
(-0.0545245 -0.00248967 0.132455)
(-0.00882283 0.0138866 0.0441567)
(-0.0279998 0.0574396 0.164034)
(-0.0504308 0.0578061 0.215717)
(-0.0617399 -0.0686097 0.200188)
(0.0320559 -0.00423829 0.077198)
(-0.0234042 0.0622798 0.417823)
(0.0297722 0.151836 0.770101)
(-0.0428149 -0.0421984 0.531665)
(0.00350188 -0.0507501 0.126367)
(-0.00857365 -0.0577589 0.17687)
(0.00703115 -0.0936648 0.328716)
(-0.0441466 -0.0179167 0.649256)
(0.0371724 0.157384 0.872544)
(0.0187749 0.0484595 0.723877)
(0.014235 -0.0529519 0.316099)
(-0.0627502 -0.0789376 0.327779)
(-0.0946433 -0.0370809 0.574804)
(-0.000676182 0.084912 0.763338)
(0.0412096 0.0318956 0.688188)
(0.0293829 -0.0280564 0.442821)
(-0.0414155 -0.0194686 0.405981)
(-0.0734535 0.0473526 0.501378)
(-0.0307794 0.0315964 0.445611)
(-0.0444546 -0.00375169 0.127527)
(-0.0107709 0.0140565 0.0477754)
(-0.034703 0.0479032 0.175835)
(-0.0630185 0.0369493 0.221608)
(-0.0579213 -0.0756417 0.200858)
(0.01615 0.000155748 0.0864328)
(-0.0674604 0.028845 0.459249)
(-0.0359539 0.0915254 0.726836)
(-0.0417679 -0.0647159 0.479558)
(-0.00368905 -0.0506532 0.130863)
(-0.00611623 -0.0627437 0.191315)
(0.00322463 -0.0680889 0.336475)
(-0.068823 -0.0314439 0.677382)
(-0.00291311 0.0913667 0.870154)
(0.0152722 0.0614662 0.699486)
(0.014452 -0.0726253 0.297833)
(-0.0492391 -0.0704433 0.301321)
(-0.0974619 -0.0296875 0.572336)
(-0.0410296 0.0467564 0.741027)
(0.0432947 0.032783 0.677421)
(0.0342387 -0.0188381 0.4758)
(-0.0292882 -0.0173194 0.419195)
(-0.0759721 0.036268 0.515272)
(-0.0484364 0.0428253 0.476201)
(-0.0304498 -0.00246905 0.126664)
(-0.0134619 0.0154743 0.0552391)
(-0.0495706 0.0373784 0.199825)
(-0.0794099 0.0308978 0.224447)
(-0.046324 -0.0754786 0.197463)
(0.0023847 0.00446324 0.100001)
(-0.0849704 -0.0250103 0.496096)
(-0.0454042 0.0368495 0.705005)
(-0.0315114 -0.0598974 0.42431)
(-0.012597 -0.0524364 0.135662)
(-0.00357277 -0.0675246 0.195959)
(0.0169626 -0.0596918 0.33022)
(-0.0948308 -0.00443635 0.699255)
(-0.0499843 0.0299619 0.847932)
(0.0154422 0.0732606 0.620745)
(0.00033595 -0.0923854 0.278974)
(-0.0374527 -0.0475636 0.282834)
(-0.0920501 -0.0097443 0.574736)
(-0.0585202 0.0245152 0.705327)
(0.0221647 0.0863561 0.638543)
(0.0374391 -0.0115159 0.519876)
(-0.00430012 -0.00931467 0.431863)
(-0.0595069 0.00836472 0.539177)
(-0.0640138 0.0561434 0.523472)
(-0.0137365 -0.00182273 0.124162)
(-0.0160235 0.0173553 0.0654701)
(-0.0668393 0.0258467 0.228989)
(-0.0995972 0.0257262 0.230424)
(-0.0330349 -0.0761455 0.190751)
(-0.00568658 0.00652645 0.119915)
(-0.057828 -0.0703892 0.509264)
(-0.00424776 -0.0113871 0.682612)
(-0.0282925 -0.0662718 0.384929)
(-0.0122984 -0.0498002 0.139828)
(-0.00427975 -0.0628829 0.200423)
(0.0180399 -0.0828685 0.32948)
(-0.103166 0.0495432 0.685664)
(-0.0600988 0.00818543 0.812541)
(0.0163084 0.0442923 0.554008)
(-0.0232627 -0.0972178 0.261431)
(-0.0241435 -0.0255981 0.256729)
(-0.0796083 0.0349201 0.591556)
(-0.0536258 0.0228725 0.684934)
(0.00453684 0.0915105 0.612072)
(0.0438158 -0.012965 0.550814)
(0.0231258 0.00707568 0.45111)
(-0.0247409 -0.0177105 0.561061)
(-0.0460509 0.0285802 0.57454)
(0.00566784 -0.00228241 0.128452)
(-0.0180313 0.0182267 0.0760463)
(-0.0795551 0.0124258 0.258596)
(-0.11384 0.00136446 0.257871)
(-0.0233362 -0.0678923 0.19622)
(-0.00924532 0.0127744 0.142509)
(0.00932134 -0.0768316 0.497706)
(0.0264858 -0.0327042 0.656062)
(-0.0343434 -0.0870728 0.364795)
(-0.00362718 -0.040078 0.144909)
(-0.00380107 -0.0428307 0.208584)
(0.010387 -0.0981139 0.332466)
(-0.0766075 0.0724773 0.65042)
(-0.030031 0.0219421 0.761231)
(0.011152 -0.00424196 0.514556)
(-0.0338625 -0.0893787 0.245476)
(-0.0240517 -0.0015885 0.219464)
(-0.0637661 0.0747252 0.623231)
(-0.0393336 0.0456932 0.671764)
(0.0156727 0.0554876 0.592675)
(0.0491003 -0.0389177 0.568633)
(0.0240793 0.0297409 0.503776)
(0.00386939 -0.0108106 0.569216)
(0.00593154 -0.013786 0.572918)
(0.0278119 -0.00147915 0.142642)
(-0.0187552 0.0153184 0.0851323)
(-0.0822542 -0.00131187 0.292023)
(-0.122722 -0.0160001 0.289262)
(-0.0144862 -0.0466505 0.210736)
(-0.0104929 0.023232 0.161011)
(0.0622544 -0.04412 0.480612)
(0.0272769 -0.0324087 0.643039)
(-0.0398414 -0.104242 0.358592)
(0.00666873 -0.022316 0.149917)
(-0.00142498 -0.0106229 0.212079)
(0.000311442 -0.0903223 0.329386)
(-0.00437303 0.0497132 0.608284)
(0.00646764 0.0499121 0.706122)
(-0.00321617 -0.0452108 0.490893)
(-0.0303477 -0.061244 0.23984)
(-0.0238611 -0.00206754 0.174745)
(-0.0399959 0.0929922 0.658979)
(-0.0183202 0.077298 0.65591)
(0.0260939 0.039823 0.586814)
(0.0208833 -0.075157 0.521457)
(0.0101916 0.0523694 0.584968)
(0.0135424 0.0172626 0.584407)
(0.0471214 -0.0211389 0.567656)
(0.0488893 0.000177416 0.162161)
(-0.0179221 0.00942462 0.0954606)
(-0.0743073 -0.015917 0.326391)
(-0.11785 -0.0242626 0.314769)
(-0.00631624 -0.022411 0.22702)
(-0.0108684 0.0330932 0.176026)
(0.0665117 -0.00321056 0.471334)
(0.00502301 -0.0300831 0.635244)
(-0.0385887 -0.109356 0.357725)
(0.0142643 0.00178292 0.157908)
(0.000768685 0.0237255 0.203657)
(0.0010053 -0.0717383 0.326766)
(0.0526765 0.029982 0.5787)
(0.00200207 0.0664957 0.684112)
(-0.0187392 -0.0658725 0.46954)
(-0.0256568 -0.0222471 0.238833)
(-0.00769039 -0.00612473 0.147767)
(0.00122088 0.0844653 0.677548)
(0.00512569 0.0885683 0.655101)
(0.0278668 0.0358947 0.598088)
(0.0158214 -0.0696399 0.387023)
(0.00843331 0.0449494 0.663735)
(0.0110804 0.0310151 0.61579)
(0.0651654 -0.0223135 0.588475)
(0.0641794 0.00208135 0.183787)
(-0.0137702 0.0019364 0.109045)
(-0.050154 -0.0297466 0.355905)
(-0.0948471 -0.0310167 0.337122)
(0.00387914 -0.00469468 0.241097)
(-0.0187308 0.0266494 0.186998)
(0.0452648 0.0131647 0.473327)
(-0.0598007 -0.035132 0.611731)
(-0.0334353 -0.106342 0.352508)
(0.0181509 0.0256612 0.166594)
(0.00244745 0.0540013 0.196287)
(0.00537226 -0.0575419 0.327466)
(0.0717191 0.027492 0.563153)
(-0.0318065 0.0718307 0.671581)
(-0.0261606 -0.0742285 0.440443)
(-0.0249254 0.00123416 0.233421)
(0.0184794 -0.00235748 0.14775)
(0.050996 0.0540991 0.676828)
(0.0240653 0.0906635 0.669377)
(0.017185 0.0353083 0.627617)
(0.0299598 -0.054031 0.310148)
(-0.00707304 0.0188727 0.696513)
(0.0014004 0.0399326 0.65222)
(0.0648326 -0.0219197 0.622486)
(0.0735929 0.00398419 0.205202)
(-0.00857136 -0.00464217 0.13234)
(-0.0180479 -0.0382442 0.37731)
(-0.0611711 -0.0342819 0.360987)
(0.0185453 0.00870505 0.254305)
(-0.0204138 -0.00834404 0.191217)
(0.032902 0.00475586 0.477889)
(-0.0948276 -0.0339115 0.58319)
(-0.0228457 -0.0985992 0.336873)
(0.0216647 0.0428767 0.175745)
(0.00482554 0.0764967 0.204499)
(-0.00423158 -0.0238129 0.331794)
(0.073538 0.0251897 0.558943)
(-0.0583007 0.0634069 0.658666)
(-0.0251316 -0.0843012 0.407956)
(-0.0255094 0.0100717 0.228496)
(0.0391123 0.00953289 0.164022)
(0.0805324 0.0233243 0.663305)
(0.0236632 0.0908785 0.687262)
(0.0163674 0.0302135 0.660534)
(0.0306234 -0.0579484 0.270656)
(-0.0221521 0.00657746 0.724177)
(-0.00326609 0.0556439 0.684673)
(0.06817 -0.0160196 0.653438)
(0.0771743 0.00571403 0.225927)
(-0.00940309 -0.00235831 0.16152)
(0.00131235 -0.0441754 0.389893)
(-0.0282609 -0.0375991 0.384797)
(0.0366391 0.0211266 0.267883)
(-0.0150383 -0.0317829 0.182007)
(0.0260238 -0.0305575 0.478108)
(-0.0908927 -0.0317452 0.557982)
(-0.0139742 -0.0973481 0.330836)
(0.0268187 0.0545135 0.18731)
(0.00745043 0.0825865 0.211658)
(-0.0200658 0.00945897 0.34992)
(0.061535 0.00622437 0.556691)
(-0.0599015 0.0423807 0.649871)
(-0.0179775 -0.101777 0.383896)
(-0.0233331 0.0143439 0.230375)
(0.0504295 0.0264074 0.191315)
(0.0749766 0.00802423 0.651245)
(0.00255143 0.0790999 0.7087)
(-0.00332387 -0.0110428 0.667942)
(0.0270367 -0.0685695 0.253401)
(-0.00490625 0.00120928 0.764588)
(-0.00474435 0.0618919 0.71204)
(0.0836698 -0.00353664 0.699266)
(0.0729503 0.00645932 0.244915)
(-0.0190698 0.0107571 0.182811)
(0.0102663 -0.0558312 0.401918)
(-0.00529899 -0.0468399 0.411592)
(0.0530336 0.0318922 0.280269)
(-0.0173929 -0.0271333 0.175345)
(0.00659627 -0.0832456 0.481136)
(-0.0654435 -0.0476439 0.539129)
(-0.00725108 -0.0999348 0.335586)
(0.0333564 0.0635344 0.201793)
(0.0064959 0.0709789 0.206704)
(-0.0354475 0.0343079 0.375877)
(0.00789815 -0.0671821 0.53569)
(-0.0389518 -0.00900362 0.634642)
(-0.00706874 -0.11789 0.376438)
(-0.0170024 0.02194 0.242747)
(0.0523206 0.0440844 0.22588)
(0.0263142 -0.0176291 0.630581)
(-0.0152569 0.0493125 0.722207)
(-0.0303869 -0.0765189 0.627016)
(0.0212354 -0.0648428 0.257772)
(0.00529694 0.0058175 0.77002)
(-0.0104932 0.056502 0.734753)
(0.0505861 -0.0173183 0.721794)
(0.0606717 0.00537082 0.264971)
(-0.0333453 0.0313648 0.192303)
(0.0141017 -0.065991 0.419181)
(0.0106196 -0.0550878 0.439385)
(0.06338 0.0349564 0.293427)
(-0.0206082 0.0130253 0.180908)
(-0.0185081 -0.11557 0.497241)
(-0.0342167 -0.0812202 0.528607)
(0.00110306 -0.1025 0.355577)
(0.0391125 0.0712536 0.219954)
(0.00445139 0.0612916 0.219869)
(-0.0266875 0.060325 0.364191)
(-0.0299965 -0.122992 0.512054)
(-0.0104564 -0.0798026 0.597369)
(0.00451439 -0.125391 0.38259)
(-0.0127208 0.0330201 0.260902)
(0.0500045 0.061111 0.264298)
(-0.0209817 -0.0641744 0.579381)
(-0.0132266 0.0113856 0.705189)
(0.00619696 -0.118806 0.547648)
(0.00487157 -0.0377516 0.280482)
(-0.00582734 0.0185168 0.751624)
(-0.0297269 0.0317676 0.747475)
(-0.0335506 -0.00742426 0.614439)
(0.0454318 0.00324741 0.284397)
(-0.0464018 0.0482864 0.197353)
(0.00745675 -0.0672736 0.43525)
(0.0162717 -0.0578914 0.468869)
(0.070665 0.0346683 0.308338)
(-0.0254058 0.0476098 0.185144)
(-0.0249092 -0.124103 0.520259)
(-0.0088426 -0.105321 0.526452)
(0.00936714 -0.0985996 0.384286)
(0.0440281 0.0773245 0.241695)
(0.00460639 0.0588513 0.248059)
(-0.0126889 0.057076 0.326283)
(-0.0322086 -0.136292 0.501306)
(0.00536645 -0.119623 0.558745)
(0.0131584 -0.12458 0.393838)
(-0.0117958 0.0468876 0.280959)
(0.042636 0.0627474 0.302643)
(-0.0124276 -0.0942722 0.52593)
(0.00107607 -0.0510115 0.628847)
(0.0448128 -0.10951 0.459121)
(-0.0135236 -0.004101 0.304322)
(-0.0195511 0.0338996 0.73576)
(-0.0302679 0.0264866 0.758165)
(0.00576055 0.00886402 0.521033)
(0.0189237 -0.00355125 0.301616)
(-0.0551959 0.0565572 0.203346)
(-0.00670551 -0.0663632 0.438241)
(0.0199597 -0.0639397 0.487398)
(0.0768829 0.0342769 0.322963)
(-0.0336088 0.0748842 0.189773)
(-0.00388085 -0.118753 0.54096)
(0.0058996 -0.104453 0.530834)
(0.0217284 -0.0806438 0.416405)
(0.0499505 0.084011 0.266122)
(0.00239095 0.0449565 0.280485)
(-0.0227208 0.0607429 0.287786)
(-0.0164596 -0.135408 0.494686)
(0.0127415 -0.124903 0.535601)
(0.0184967 -0.112273 0.404998)
(-0.0120311 0.0626003 0.302501)
(0.0317969 0.0360939 0.333516)
(0.00853995 -0.10937 0.484791)
(0.00923948 -0.0876424 0.549852)
(0.0481354 -0.0918856 0.40068)
(-0.0227015 0.0216388 0.32407)
(-0.0324265 -0.00244986 0.711655)
(-0.00862401 0.0207395 0.754842)
(0.0567629 -0.0120162 0.468019)
(-0.00934841 -0.0118139 0.326498)
(-0.0564561 0.0570553 0.213455)
(-0.0303222 -0.0574351 0.42726)
(0.0376467 -0.0546687 0.488667)
(0.076114 0.0262093 0.336322)
(-0.0302055 0.0864525 0.201553)
(0.0419007 -0.0772195 0.548559)
(0.0282347 -0.0858992 0.541853)
(0.0431791 -0.043845 0.446894)
(0.0582502 0.0964567 0.292935)
(-0.0015947 0.02766 0.304493)
(-0.0332213 0.0792135 0.267192)
(0.0244055 -0.116827 0.500137)
(0.0173288 -0.110291 0.528043)
(0.0240952 -0.0809333 0.421244)
(-0.0115436 0.0760397 0.330255)
(0.0145238 0.0112948 0.357615)
(0.0262934 -0.106415 0.460069)
(0.0103787 -0.0833725 0.497401)
(0.0387548 -0.0781254 0.378778)
(-0.0251697 0.0382469 0.342672)
(-0.0501555 -0.0733209 0.619294)
(0.0193487 -0.0190713 0.698969)
(0.0783077 -0.0312814 0.434515)
(-0.0155696 -0.00919728 0.351072)
(-0.0440346 0.0441839 0.235482)
(-0.0796958 0.0126465 0.397351)
(0.0419554 -0.0373867 0.487084)
(0.0793071 0.0115117 0.342932)
(-0.015073 0.0767826 0.219868)
(0.0370476 -0.0085804 0.522979)
(0.0541646 -0.0563088 0.549895)
(0.0634845 0.00707701 0.468333)
(0.0652416 0.115462 0.325762)
(-0.00336838 -0.00288665 0.315192)
(-0.0181291 0.0866732 0.275844)
(0.0592517 -0.0516783 0.524093)
(0.023546 -0.0819222 0.531933)
(0.0316088 -0.030837 0.447444)
(-0.00777963 0.0785866 0.369273)
(-0.0050504 -0.0010234 0.371199)
(0.039499 -0.0831585 0.456992)
(0.00977098 -0.0625021 0.470783)
(0.0299813 -0.0601473 0.384187)
(-0.0222989 0.0443197 0.365124)
(-0.0580698 -0.0845716 0.502694)
(0.0161309 -0.0316549 0.60827)
(0.0756755 -0.0380564 0.411849)
(-0.0192263 -0.00489744 0.351002)
(-0.0124411 0.013734 0.262291)
(-0.092413 0.0650051 0.348882)
(0.000724037 -0.0216293 0.454788)
(0.0812151 0.00959902 0.337401)
(0.0010135 0.0522321 0.24075)
(-0.0127175 0.0599897 0.49184)
(0.0564211 -0.0140616 0.556225)
(0.070112 0.0527258 0.48821)
(0.0561261 0.115888 0.370789)
(-0.00426534 -0.0339892 0.308721)
(0.00312096 0.0730566 0.309388)
(0.0531288 0.0275801 0.537446)
(0.0257048 -0.0569052 0.542147)
(0.0364006 0.0158448 0.47782)
(-0.000580823 0.0669179 0.415548)
(-0.0147952 -0.00161895 0.37934)
(0.0427331 -0.0201888 0.476205)
(0.00416945 -0.0458371 0.463898)
(0.0253356 -0.0200504 0.417951)
(-0.0172091 0.0417351 0.39059)
(-0.0326244 -0.032676 0.428588)
(0.0244457 -0.0367518 0.518066)
(0.052008 -0.035191 0.393836)
(-0.0114589 0.00236427 0.310956)
(0.00780126 -0.0106512 0.277911)
(-0.0610912 0.0523419 0.330849)
(-0.0366258 0.0107418 0.361892)
(0.0474823 0.0354787 0.303162)
(0.0150695 0.030026 0.263114)
(-0.0397842 0.0913744 0.468291)
(0.0401216 0.029575 0.567261)
(0.0630329 0.0756501 0.507574)
(0.0264736 0.0674108 0.420945)
(-0.00479892 -0.0500315 0.298937)
(0.0170675 0.0407627 0.345354)
(0.0234373 0.0775564 0.536733)
(0.0231443 -0.0288693 0.55651)
(0.0365685 0.042436 0.504298)
(0.0101096 0.0476003 0.458582)
(-0.019706 0.005243 0.381969)
(0.0242887 0.0400286 0.496667)
(-0.00352851 -0.033564 0.465625)