/*--------------------------------*- C++ -*----------------------------------*\
| =========                 |                                                 |
| \\      /  F ield         | OpenFOAM: The Open Source CFD Toolbox           |
|  \\    /   O peration     | Version:  5.x                                   |
|   \\  /    A nd           | Web:      www.OpenFOAM.org                      |
|    \\/     M anipulation  |                                                 |
\*---------------------------------------------------------------------------*/
FoamFile
{
    version     2.0;
    format      ascii;
    class       volScalarField;
    location    "4";
    object      Ksl;
}
// * * * * * * * * * * * * * * * * * * * * * * * * * * * * * * * * * * * * * //

dimensions      [1 -3 -1 0 0 0 0];

internalField   nonuniform List<scalar> 
10571
(
9286.17
4667.21
1471.69
1220.05
6334.72
1017.68
1253.26
1716.89
892.961
628.909
5719.23
54.0187
886.33
127.046
1239.7
4447.37
1018.22
9.98435
6.55679
818.749
6213.02
1285.56
4.63649
7043.18
2377.21
1683.45
3477.77
1489.87
1168.42
437.605
424.907
1202.99
658.665
716.236
3688.82
344.614
43.5199
281.757
1198.45
712.883
1011.84
338.278
605.565
1927.61
768.951
360.522
181.845
3101.43
3284.72
2821.25
857.263
310.684
799.32
588.384
223.837
1047.22
494.134
150.706
2664.6
685.316
254.607
566.382
2219.78
906.999
2720.32
1658.25
742.387
1282.77
1578.29
329.431
1604.23
759.89
3027.05
3005.91
928.231
571.259
796.02
580.767
180.125
587.915
731.741
201.026
8069.74
521.82
207.148
841.766
2564.46
743.653
1406.12
591.131
250.23
269.721
756.241
2957.06
773.338
78.6131
4737.61
3635.81
3105.6
603.079
548.567
386.819
1039.47
2306.19
1116.8
213.308
5407.38
2507.9
640.617
3587.52
1287.42
966.76
624.789
480.183
402.34
122.6
37.505
517.966
386.482
165.494
6345.82
7786.61
765.648
258.74
642.278
1272.36
3683.98
1994.06
474.345
477.84
14763
1248.73
1949.52
854.359
156.827
38.0883
151.104
10672.7
34.9902
72.436
151.524
47.6475
1.90262
36.728
280.851
276.843
9995.72
1057.37
6842.75
4708.17
1014.16
432.313
601.686
54.3332
91.6971
44.4933
27.9474
132.068
223.594
107.246
7.23869
4.31311
13.2009
0.0672453
21.2541
20.4417
16.9223
24.0119
22.6181
0
16.1531
19.5058
45.061
1339.09
252.444
6182.76
212.236
50.6223
336.261
41.2834
19.4522
17.9725
33.0739
1.91992
12.6159
51.9247
19.2117
6.21435
3.92529
6.81847
0
37.0142
7.9961
10.6721
7.99035
0
0
26.4325
14.9349
16.4565
36.4884
46.3806
76.1719
27.2529
51.6985
176.776
16.1123
23.5891
19.4782
86.585
0
0
28.25
12.0339
8.71506
2.10826
0
0
2.41061
11.3513
9.99466
0
0
8.94923
28.6085
34.1708
11.0481
0
10.6387
13.2361
49.8654
34.5104
7.63978
15.6374
24.8745
56.1764
0
8.74167
8.7535
5.88305
4.45418
6.08734
17.6871
10.7922
9.57263
0
-5.64691e-14
18.2059
23.9672
16.9849
9.31466
12.8442
2.4082
27.388
30.6864
20.9435
3.21389
7.33907
35.562
72.5603
0
9.82122
9.08797
3.48383
8.37239
0
11.4984
7.39065
7.56708
0
21.7342
12.0176
14.136
16.9317
27.1029
0
4.31661
27.1
57.6841
5.57153
3.87173
4.19424
17.9868
30.8512
14.0299
10.5163
12.7241
3.80647
2.92596
5.52276
15.4781
6.0204
4.53883
0
0
9.05739
13.4029
0
27.3238
13.4557
4.15641
11.0479
7.04077
0
4.80394
2.53656
3.31745
0
0
5.00133
10.8418
1.94208
0.804658
5.69073
6.59754
5.19093
8.43355
15.9782
0
9.07663
13.5599
11.1776
10.6245
10.6728
9.27856
4.45159
1.1465
3.66991
3.65372
1.11343
0
0
0
3.0259
9.51971
1.53751
0
0
0.343082
7.08334
7.12716
7.82056
0
0
11.297
0
12.6888
0
0
0
3.64938
0
4.18842
1.26325
1.53671
6.76841
0
7.7903
1.59485
2.24445
0
0
0
12.7
3.59314
7.75844
15.9013
27.203
0
0
2.62556
0
0
0.10814
0
0
1.97175
0
0
4.95869
1.55665
0
3.00493
0.74382
2.02679
0
3.8218
1.97126
0.871052
8.09051
0
0
6.87097
0
12.545
0
0
4.74149
0
0
1.97483
0
0
0
0
0
0
0
0.936803
0
8.06038
2.68421
1.72544
0
0
9.09242
0
0
0
-3.73221e-13
0
0
0
0
1.00065
0
1.58951
0
0
0
1.11775
0
0
0
-5.14456e-13
1.22797
0.934778
7.71867
23.176
8.59529
7.29772
0
0
8.01601
0
-1.79887e-14
0
0
0.511936
0.520048
-7.1703e-14
0
0
3.64021
0
0
0
0
2.05924
1.71669
0
0
0
21.6054
7.31065
0
5.00266
0
0
0
0
0
0
0
0.819819
0
0
0
0.5514
0.728564
0.960713
0
4.0483
1.66518
0.153538
0
0
0
0
0
0
0
0
0
8.73706
0.115242
0
0
0
7.13818
0
0
0.530558
0
0
0
3.23701
2.97902
0.730657
0
0
0
0
18.149
8.6844
0
0
0
0
0
0
0
0.841248
0
0
-1.18027e-13
0.0172171
0
0
0
0
1.16724
0.954107
0
0
10.7836
-2.87426e-13
0
0
0
0
0
1.07348
0
0
0
0
7.15198
0
2.81602
0
0
0
0
0
0
0
0
0
0
0
0
0
0
0
0
0
0
0.50469
0
0
0
0
0
0
0
0.9844
0
0
0
0
0
0
0
0
0
0
0
0
0
0
0
0
0
0
7.19777
0
0
0
0
0
0
0
0
0
0
0
0
0
0
0
0
0
0
0
0
0
0
0
8.70023
0
0
0
0
0
0
0
0
0
0
0
0
0
0
0
0
0
0
0
0
0
0
0
7.59131
0
0
0
0
0
0
0
0.734619
0
0
0
0
0
0
0
0
0
0
0
0
0
0
0
0
0
0
0
0
0.993824
0
0
0
0.908388
0
0
0
0
0
0
0
0
0
0
0
0
0
0
0
0
0
0
0
0
0
0
0
0
0
0
0
0
0
0
0
0
0
0
0
0
0
0
0
0
0
0
0
0
0
0
0
0
0
0
0
0
0
0
0
0
0
0
0
0
0
0
0
0
0
0
0
0
0
0
0
0
0
0
0
0
0
0
0
0
0
0
0
0
0
0
0
0
0
0
0
0.993901
0
0
0
0
0
0
0
0
0
0
0
0
0
0
0
0
0
0
0
0
0
0
0
0
0
0
0
0
0
0
0
0
0
0
0
0
0
0
0
0
0
0
0
0
0
0
0
1.98928
0
0
0
0
0
0
0
0
0
0
0
0
0
0
0
0
0
0
0
0
0
0
0
0
0
0
0
0
0
0
0
0
0
0
0
0
0
0
0
0
0
0
0
0
0
0
0
0.982465
0
0
0
0
0
0
0
0
0
0
0
0
0
0
0
0
0
0
0
0
0
0
0
0
0
0
0
0
0
0
0
0
0
0
0
0
0
0
0
0
0
0
0
0
0
0
0.800923
0
1.63192
0
0
0
0
0
0
0
0
0
0
0
0
0
0
0
0
0
0
0
0
0
-3.19361e-14
0
0
0
0
0
7.77346
0
0
0
0
0
0
0
0
0
0
0
0
0.69721
0
0
0
0
0
0
0
0
0
0
0
0
0
0
0
0
0
0
0
0
0
0
0
0
0
0
0
0
0
0
0
0
0
0
0
0
0
0
0
0
0
0
0
0
0
0
0
0
0
0
0
0
0
0
0
0
0
0
0
0
0
0
0
0
0
0
0
0
0
0
0
0
0
0
0
0
0
0
0
0
0
0
0
0
0
0
0
0
0
0
0
0
0
0
0
0
0
0
0
0
0
0
0
0
0
0
0
0
0
0
0
0
0
0
0
0
0
0
0
0
0
0
0
0
0
0
0
0
0
0
0
0
0
0
0
0
0
0
0
0
0
0
0
0
0
0
0
0
0
0
0
0
0
0
0
0
0
0
0
0
0
0
0
0
0
0
0
0
0
0
0
0
0
0
0
0
0
0
0
0
0
0
0
0
0
0
0
0
0
0
0
0
0
0
0
0
0
0
0
0
0
0
0
0
0
0
0
0
0
0
0
0
0
0
0
0
0
0
0
0
0
0
0
0
0
0
0
0
0
0
0
0
0
0
0
0
0
0
0
0
0
0
0
0
0
0
0
0
0
0
0
0
0
0
0
0
0
0
0
0
0
0
0
0
0
0
0
0
0
0
0
0
0
0
0
0
0
0
0
0
0
0
0
0
0
0
0
0
0
0
0
0
0
0
0
0
0
0
0
0
0
0
0
0
0
0
0
0
0
0
0
0
0
0
0
0
0
0
0
0
0
0
0
0
0
0
0
0
0
0
0
0
0
0
0
0
0
0
0
0
0
0
0
0
0
0
0
0
0
0
0
0
0
0
0
0
0
0
0
0
0
0
0
0
0
0
0
0
0
0
0
0
0
0
0
0
0
0
0
0
0
0
0
0
0
0
0
0
0
0
0
0
0
0
0
0
0
0
0
0
0
0
0
0
0
0
0
0
0
0
0
0
0
0
0
0
0
0
0
0
0
0
0
0
0
0
0
0
0
0
0
0
0
0
0
0
0
0
0
0
0
0
0
0
0
0
0
0
0
0
0
0
0
0
0
0
0
0
0
0
0
0
0
0
0
0
0
0
0
0
0
0
0
0
0
0
0
0
0
0
0
0
0
0
0
0
0
0
0
0
0
0
0
0
0
0
0
0
0
0
0
0
0
0
0
0
0
0
0
0
0
0
0
0
0
0
0
0
0
0
0
0
0
0
0
0
0
0
0
0
0
0
0
0
0
0
0
0
0
0
0
0
0
0
0
0
0
0
0
0
0
0
0
0
0
0
0
0
0
0
0
0
0
0
0
0
0
0
0
0
0
0
0
0
0
0
0
0
0
0
0
0
0
0
0
0
0
0
0
0
0
0
0
0
0
0
0
0
0
0
0
0
0
0
0
0
0
0
0
0
0
0
0
0
0
0
0
0
0
0
0
0
0
0
0
0
0
0
0
0
0
0
0
0
0
0
0
0
0
0
0
0
0
0
0
0
0
0
0
0
0
0
0
0
0
0
0
0
0
0
0
0
0
0
0
0
0
0
0
0
0
0
0
0
0
0
0
0
0
0
0
0
0
0
0
0
0
0
0
0
0
0
0
0
0
0
0
0
0
0
0
0
0
0
0
0
0
0
0
0
0
0
0
0
0
0
0
0
0
0
0
0
0
0
0
0
0
0
0
0
0
0
0
0
0
0
0
0
0
0
0
0
0
0
0
0
0
0
0
0
0
0
0
0
0
0
0
0
0
0
0
0
0
0
0
0
0
0
0
0
0
0
0
0
0
0
0
0
0
0
0
0
0
0
0
0
0
0
0
0
0
0
0
0
0
0
0
0
0
0
0
0
0
0
0
0
0
0
0
0
0
0
0
0
0
0
0
0
0
0
0
0
0
0
0
0
0
0
0
0
0
0
0
0
0
0
0
0
0
0
0
0
0
0
0
0
0
0
0
0
0
0
0
0
0
0
0
0
0
0
0
0
0
0
6736.52
4014.62
5272.23
4477.71
6658.14
7640.82
7167.7
5184.68
7393.9
7433.58
5075.9
5348.12
2992.76
5433.11
2796.66
3036.2
3437.98
2909.05
2099.37
1259.54
3016.8
3850.31
5526.86
4368.5
6132.95
6624
3346.39
4518.56
4251.61
3166.29
2347.86
3755.39
5712.29
3834.59
3443.79
4722.37
444.47
2811.72
1222.87
106.356
129.223
651.585
804.307
201.116
866.7
2771.86
3239.15
4440.81
5556.79
3242.39
3778.41
587.616
2542.08
277.541
767.318
4136.82
882.817
1449.45
428.021
240.932
325.49
143.342
262.188
657.878
3840.4
709.009
2028.67
8026.53
7061.61
8796.13
6185.22
3191.15
256.435
6874.67
4053.92
211.803
216.432
254.119
110.812
101.662
134.465
114.631
178.184
1214.24
6743.42
4301.36
9132.23
9805.69
7477.3
1188.92
318.555
377.63
187.937
354.014
289.27
5053.57
4235.82
3347.7
1899.12
976.567
4318.15
1166.03
2806.09
695.964
9056.46
10510
3292.12
840.795
2679.22
9153.16
6104.6
10424.1
8695.48
1883.17
4002.35
648.744
872.472
1036.74
2788.52
3470.8
9788.77
4533.82
6859.49
6877.87
10040.9
7731.32
9240.57
5147.63
9577.69
5515.72
8780.53
1979.14
5957.27
10902.4
3138.42
209.5
744.412
3332.21
390.435
676.575
1181.24
1311.54
4160.97
972.738
847.558
5221.66
6246.99
1143.33
2238.2
2085.95
3645.31
464.019
307.464
2090.91
976.919
681.267
529.918
731.527
620.386
4350.04
3223.52
5547.8
1196.6
789.332
2386.94
450.699
735.292
2455.22
1059.03
77.6348
51.6377
614.031
220.007
217.757
791.104
0
111.449
1551.14
5.25867
6166.45
5335.2
8797.71
631.894
1555.61
83.4654
896.621
3252.19
137.066
403.814
460.272
3072.72
437.914
506.515
1763.71
1754.83
6517.48
5001.5
3452.93
2296.19
4121.34
2920.07
3670.71
2079.96
813.445
7760.88
2844.59
3035.72
722.268
3448.82
1197.17
963.221
2396.26
510.442
4670.82
3372.93
2230.75
2292.87
2033.38
1053.8
1496.05
1687.43
219.838
487.589
632.917
1344.28
628.667
2437.66
911.944
1006.71
698.301
804.643
586.595
453.322
1112.16
116.889
1116.05
787.362
750.674
861.985
1889.16
1394.8
2522.63
1081.4
428.307
968.436
294.804
2401.7
178.417
667.988
191.025
1108.31
1836.35
983.829
327.737
669.107
349.949
744.358
2074.7
550.759
28.7093
57.8133
1026.27
194.454
2353.38
10627.5
14007.1
1973.83
6826.3
1194.21
3988.14
8796.02
2668.79
610.657
646.337
2989.77
550.473
837.221
2967.69
4884.29
3179.49
1508.16
1770.04
1071.76
133.807
3008.71
1476.26
809.405
73.4103
2494.52
2162.75
885.311
879.361
1653.95
1524.14
1141.33
414.789
467.847
1700.95
2209.07
939.913
1452.14
4868.1
1529.03
569.712
459.458
153.317
528.371
184.799
645.075
2500.89
5579.98
2254.08
6547.23
422.725
2152.23
940.747
94.3726
1232.42
6545.71
8375.67
1154.95
2226.04
1230.4
2155.75
783.387
2319.27
1984.18
344.398
307.015
226.299
361.354
361.904
214.897
113.015
1297.88
945.225
1618.83
2351.7
1222.62
683.458
1366.5
626.134
2450.14
1702.13
3047.67
746.863
1193.24
226.164
14350.4
14654.5
4119.96
11162
3027.84
4585.22
9196.88
3487.93
581.763
1155.6
3836.32
784.491
1939.06
5609.67
5115.75
1610.22
1482.95
1999.71
703.975
291.867
3018.78
3057.58
870.327
400.391
1130.45
677.51
1556.33
619.724
1098.74
669.432
1302.46
411.808
663.262
1066.67
7245.73
2098.18
1054.38
7516.06
2371.01
403.722
133.376
162.042
656.428
316.612
5915.02
9925.82
9525.02
7865.51
4188.28
268.121
907.806
1042.77
90.9007
643.579
5159.97
657.18
504.901
2066.42
1403.93
1254.65
851.494
1304.13
1295.55
471.886
141.05
120.602
268.784
198.783
105.312
59.5091
176.936
3011.86
2300.29
1191.94
552.662
1012.29
1237.47
848.89
349.337
454.966
548.765
293.595
383.4
120.092
9565.27
5946.56
4427.73
4615.09
3550.29
5493.02
3365.05
4006.28
1143.66
2246.01
5365.4
1476.53
2474.82
4651.43
4744.88
2041.08
1849.05
4131.7
699.956
896.957
5664.77
1628.43
1177.06
2677.33
1085.58
812.844
1038.32
521.212
1689.3
840.9
1043.89
725.497
1022.66
926.912
5201.07
2393.87
647.558
4362.34
2220.16
923.947
437.343
163.499
773.508
839.132
3976.75
387.316
2583.48
1688.33
120.442
205.297
240.278
656.561
920.101
100.3
133.989
41.3348
1543.91
247.392
1151.61
140.298
1701.77
46.6183
286.347
19.3924
102.226
15.4808
71.5953
-7.06255e-13
122.55
16.0679
3.78316
1031.7
246.841
422.012
230.275
182.066
231.071
180.497
357.439
391.595
300.239
372.665
278.537
282.295
6306.86
10499.9
7384.01
5678.93
5220.48
8609.46
8725.15
8048.34
2313.97
3472.87
8179.12
4437.75
5328.11
5457.83
4708.66
1069.39
979.06
2060.8
2129.11
1050.46
5232.11
4056.72
1302.49
811.719
2128.54
715.208
2043.03
2155.4
909.015
1241.51
2375.73
1309.61
499.138
658.648
2124.83
1227.93
956.76
896.747
1276.54
3327.55
386.821
3819.71
225.11
425.694
154.349
103.287
10051.7
9961.24
12445.2
4843.78
11877.4
1975.58
9220.8
523.075
57.8532
571.856
343.383
31.5198
3287.46
43.1708
1925.86
46.2743
17.8105
1.35497
50.9928
11670.5
14487.9
8955.31
1380.6
11179.3
1415.34
13013.5
0.553841
15.2913
151.289
27.3494
32.1411
12.1127
22.5244
0.400219
21.2076
6.14397
93.2583
24.583
40.0373
0
65.9762
38.0895
0
56.3652
18.4328
85.8795
57.8152
17.0623
87.5628
47.5344
376.341
408.061
131.084
139.2
78.1657
87.1732
11445.1
7510.62
8944.01
9237.92
9499.87
11452.5
9213.68
10022.9
8669.14
7302.03
9453.23
9674.22
2175.9
1166.15
122.208
967.326
330.25
3759.77
713.925
754.621
576.917
2417.77
393.039
945.543
144.106
488.771
232.451
113.939
73.1288
33.7819
68.4365
108.933
16.5199
50.6857
0
25.6112
9.06865
8.2427
0
810.332
386.415
1446.27
714.436
96.3973
566.645
5.81244
28.2028
2.69064
47.2282
8.49913
29.1851
8.4371
79.319
0
15.0517
5.34804
0
0
0
237.295
39.5939
66.8262
39.8405
8.1777
0
-4.39368e-14
0
0.574355
0
15.2512
-1.74028e-13
83.0618
0
181.043
0
0
3.18405
0
41.732
41.9824
1.78695
14.5086
11.6478
6.09879
24.0442
12.3342
0
19.3529
21.852
26.4778
10.371
14.7366
16.2478
18.7793
0
10.5456
0
0.0872658
0
0
13.5339
18.1342
62.1444
70.8045
22.642
25.5852
0
52.2128
15.3166
13.9755
25.1036
0
12.7798
1162.51
67.6352
4217.18
5779.06
6643.06
65.7995
289.479
253.717
1479.91
145.866
50.3189
45.4131
52.5064
54.8216
48.7223
182.252
134.449
761.955
203.849
446.732
116.537
119.309
227.985
404.764
79.3515
16.037
42.4764
40.353
78.4189
9.79491
53.2144
49.5274
0
70.6866
0
-7.96921e-15
0
0
0
201.617
136.479
161.406
135.311
47.349
46.3959
7.651
10.2405
6.42475
29.1289
8.26749
23.855
26.3242
0
2.52993
0
2.85515
0
0
0
32.4084
35.9857
14.0163
18.7907
9.85972
0
8.05385
3.52408
-2.60861e-13
3.91122
0
0
0
3.08499
0
0
0
0
0
15.1998
18.2617
6.25602
12.5023
6.53233
24.6311
5.77916
12.0376
0
7.42287
13.7015
15.4289
0.447296
0
7.77691
0
0
11.0745
0
0
0
0
0
0
13.1405
24.8043
16.6037
9.0647
25.1736
33.8675
0
63.1914
19.3351
17.5992
0
36.7875
12.8172
15.8014
37.1408
30.5454
42.2241
31.1434
22.5763
21.7302
53.668
5.50913
38.8937
26.8784
29.6129
55.0898
112.029
6.31514
48.3952
97.6412
137.617
0
8.82127
30.1057
31.6767
30.801
22.6979
42.0908
59.7807
64.9576
49.9494
29.8904
50.1773
75.6741
83.1339
13.9799
33.5164
14.2032
13.2123
21.9589
12.1129
25.384
2.2818
45.5855
6.00006
26.2005
1.06154
0
0
0
0
0
0
0
13.2823
10.8117
15.3319
13.729
6.20503
4.88822
14.1057
0
0
2.65538
0
0
0
0
0
0
0
0
0
17.0074
14.0708
17.7855
24.5594
16.9126
22.6372
13.1493
11.8439
19.2032
0
0.2475
0
-3.82205e-14
15.5515
0
0
13.6446
12.2613
9.23854
18.1227
25.7239
0.347831
13.2458
51.1588
33.0244
32.1898
23.4809
8.88234
26.4096
0
38.8291
10.3119
21.2146
4.40436
17.5046
12.4728
11.1235
22.2071
12.9063
17.8841
48.2886
29.4344
20.6268
34.9569
27.4079
8.561
16.4794
21.6561
8.31053
22.2804
17.1073
17.2539
14.8138
4.27484
82.7788
56.4816
53.7388
32.5403
100.469
44.1075
60.4434
69.6297
50.0725
24.1966
0
23.0974
14.0479
0
14.8422
6.68486
17.2518
61.3682
43.7406
22.5096
7.08478
6.16113
0
5.76732
5.79292
3.05131
0
0
0
0
14.2548
0
-7.00436e-13
35.0567
-5.05136e-13
15.4054
18.6434
3.97341
6.66329
0
2.65933
-8.66333e-14
0
8.24906
12.244
0.384529
0
0
15.9762
7.07211
26.5513
24.728
27.139
0
12.0108
25.0758
6.67545
21.3686
19.7064
10.5735
16.9089
22.5051
10.5856
19.1731
12.7676
-9.71163e-13
17.6008
17.8503
24.5393
34.2593
53.4107
36.5236
45.6259
31.5668
31.4638
22.835
11.3479
13.7926
3.33922
2.28677
13.3502
8.66064
12.4128
3.65126
53.3785
43.8105
63.3116
35.2748
39.5002
22.2108
50.7294
95.1278
51.2417
0
1.28433
0
3.9705
24.7565
8.60655
24.4984
17.8504
100.946
50.2592
0
7.0192
12.735
0
20.6536
-2.01834e-13
0
0
0
15.2553
0
14.6055
-1.31463e-12
10.3673
10.84
12.6366
5.84277
2.1283
0
0
0
0
0
8.2245
0
0
0
10.6204
0
0
6.7803
25.7452
0
0.240802
-9.51885e-14
18.3618
30.5243
44.1459
26.6891
35.1179
0
7.00918
5.04056
21.4112
5.97351
21.4851
0
2.74844
9.12086
13.6176
35.1854
12.4552
17.0935
24.2624
44.9592
28.9961
6.92474
5.65249
12.8706
0.326279
7.89524
0
10.7545
10.3757
10.7154
34.3078
8.60594
20.5667
24.9974
5.22537
12.7217
9.04876
0.409997
10.6627
8.03406
0
8.99183
3.962
0
-2.42577e-13
21.7638
0
0
6.60662
0
2.60294
11.047
0
3.81545
4.69983
0
0
0
0
0
8.33674
0
0.637595
7.20406
3.77641
11.1508
12.6337
10.8194
6.63109
0
0
0
8.27134
0
15.3284
0
0
15.9459
0
18.4112
26.2295
0
16.4696
-1.06031e-13
0
0
0
0
24.6784
5.88695
0
4.42267
0
11.2364
7.38898
11.7926
4.96625
3.76003
21.0966
19.8581
0.494738
10.6991
13.436
34.0997
22.2762
6.50595
-2.62991e-14
5.69795
3.32679
2.44164
0.577709
6.12515
5.65834
8.11487
18.5722
13.4506
4.72417
11.2677
6.32486
1.35483
3.60971
0
0
3.695
0
4.57571
0
0
5.66045
6.71198
0
6.53721
5.97273
0
2.4431
-2.19725e-14
0
0
0
0
0
0
0
0
0
16.6812
17.8192
0
-1.53035e-13
-2.36648e-14
6.24032
23.786
0
0
0.16999
0
-1.88622e-13
16.2588
0
0
0
16.0202
0
0
0
8.94577
6.73131
5.09431
8.8432
0
13.5357
0
0
0
6.44713
13.9551
0
3.57502
1.02191
0
4.02626
2.61125
4.40801
12.6251
0
6.23821
7.05288
7.82312
0
0
2.65183
0
3.09346
5.41137
0
4.34404
4.72235
4.39523
1.13503
6.66982
-1.39364e-14
0
3.47457
3.81197
0
0
0
8.2484
11.1847
4.26655
12.6053
0
8.32206
0
0
7.51857
0
0
0
4.86495
0
16.8766
2.27926
0
0
0
0
0
-1.17112e-12
0
9.64631
23.9497
0.624392
0
0.748939
-1.27325e-12
2.42698
0.205901
7.495
0
0
0
0
0
0
16.0983
0
13.6294
19.7165
0
21.435
0
0.275928
0
15.5829
0
0
0
-2.36936e-13
0
25.3387
8.03527
0
11.9243
0
3.92645
-2.78983e-13
0
0
0
4.64381
0
0
0
0
-2.86786e-13
4.17765
2.05
0
2.99992
4.6687
0.683294
0
0
4.48358
3.36421
0.500744
4.20101
0
0
0
-4.2796e-13
13.9206
3.05008
0
3.84634
5.89082
0
0
7.11107
0
0
0.314825
-2.2506e-13
0
0
0
0
0
0
0
0.314879
0
0
1.57291
0
4.40157
0
6.03449
0
0
0
0.249879
0
0
0
0
0
0
16.8815
0
7.80329
0
9.50528
13.0688
0
0
24.6556
6.8507
0
24.5354
0
0
0
0
0
3.81241
0
13.8183
3.74024
7.08109
4.80627
0
4.23283
0.489312
0
3.95362
3.9986
0
3.29206
7.23326
0
1.46252
3.21978
1.80973
1.30563
0
0
1.64016
2.22338
0
-9.93299e-14
2.56469
0
0
3.41935
7.6704
0
-2.29673e-13
0
2.42898
0
0
2.58124
0
0
8.686
0
0
2.9349
0
0
7.69563
0
0
9.73326
0
9.47009
1.98179
23.7959
0
0
0
10.1385
0
0
0
0
0
7.45403
0
0
5.65263
0
0
4.44962
0
9.88657
2.34242
0
8.87543
0
7.26028
8.79006
0
0
0
3.31338
12.6331
8.60716
0
12.542
2.5191
0
0.0893164
4.83511
13.6335
0
0
0
0
7.30255
2.17067
0
0
9.09136
10.6191
0
7.96588
0
0
0
0
0
0
4.95978
0
0
0
7.35812
0
2.67423
5.25768
0
6.19394
0
0
0
0
0
0
0
10.0005
5.41297
0
0
0
0
0
0
0
9.59906
0
10.5899
14.0773
5.90769
0
0
-5.01947e-13
0
0
0
0
0
0
0
0
0
0
2.74164
0
0
4.74813
0
0
0
0
8.7744
24.4108
0
6.11071
0
12.6656
0
2.07287
-4.83612e-13
0
0
4.1378
0
14.169
1.47841
3.03353
0
0
0
0
0.149936
2.66017
0
4.31352
3.07952
-1.92722e-13
0
1.70519
0
4.44055
0
0
0
4.8382
12.3818
0
0
0
0.0966834
0
0
0
0
0
0
0
0
0.101629
0
0
0
4.57455
0
0.307069
0
0
7.37525
2.0402
6.84352
0
0
0
3.9388
0
0
7.20113
4.19518
0.251414
0
0
1.05508
7.75024
0
1.59947
0
0
4.43469
0
0
0
0
0
0
0
0
0
0
6.37218
-2.4753e-13
35.7265
0
0
19.9231
2.06461
2.54962
4.27651
4.31459
17.9409
4.28466
6.0273
0
0
0
0
0
1.27354
2.65815
0
0
2.49075
0
13.2709
0
7.86278
4.20423
5.87159
0
-7.67532e-14
0
0
2.60695
0
0
0
0
0
0
0
0
0
0
1.15953
3.33517
8.97331
5.67284
2.31844
0
0
0
0
0
0
5.45014
0
0
6.67635
0
0
0
0.275376
0
-3.01661e-14
0
0
0
0
0
0
0
0
0
0
6.16671
0
0
0
0
0
0
0
0
0
0
0
0
-1.49778e-14
12.9822
0
3.90739
0
6.83201
0
0
0
0
0
4.29572
-1.61048e-13
0
-5.89648e-14
0
0
3.03613
2.39094
0
0
0
0
0
0
0
0
12.7766
0
5.24763
0
0
3.14059
0
4.04485
0
18.6503
0
0
0
2.7605
0
0
0
0
0
0
0
0
0
0
0
0
0
6.80529
0
0
0
6.22197
0
0
0
0
0
0
15.9246
0
16.5458
0
0
0
0
0.290735
0
0
0
0
0
0
0
0
2.2073
0
0
0
0
0
0
0
5.06051
14.7484
6.59726
11.9575
0
15.4233
0
0
2.85142
0
0
0
1.99913
0
0
8.77857
0
5.28896
-1.62233e-13
8.79259
0
0
0
0
2.55489
0
0
0
0
0
-2.10475e-14
18.6283
0
5.62866
0
2.39573
0
0
-9.98505e-14
0
20.1922
0
0
0
0
0
0
0.368517
0
0
0
0
0
6.42714
0
0
0
0
0
0
0
0
34.8583
-6.78864e-14
14.3625
0
7.5206
3.33094
0
0
0
7.41103
0
0
0
0
0
0
0
0
0
0
0
0.151636
5.39078
9.12899
0.124881
0
9.63042
15.0062
0
0
0
0
0
0
0
0
0
8.95392
0
0
2.14542
7.31268
0
5.27983
0
0.464887
2.35943
0
3.80512
0
0
1.90877
0
0
0
0
0
0
0
0
0
3.34804
0
0
5.84751
0
0
0
0
0
0
0
3.03801
0
0
8.13254
0
0
0
0
0
0
0
0
0
0
14.4996
0
15.6558
0
27.5877
0
27.2165
0
1.52137
0
15.851
0
0
0
0
0
0
0
0
3.96071
0
0
0
9.84494
0
5.71636
0
0.418231
0
0
2.99136
0
0
0
0
10.2462
0
0
4.71944
0.297798
0
0
0
0
0
0
0
0
0
0
0
0
7.17019
0
0
0.219195
0
0
0
0
0
0
0
0
0
0
0
0
0
-7.42154e-13
0
0
0
0
0
0
0
8.4886
0
0
0
0
0
0
14.8097
0
0
0
0
0
0
0
0
0
0
0
0
0
0
0
0
0
0
0
1.07463
0
0
0
7.02865
7.23303
3.30147
0
0
0
0
0
0
0
0
0
0
0
6.27181
0
0
0
0
0
0
0
2.01465
0
0
0
0
0
0
0
0
0
0
0
0
0
0
0
6.36823
0
0
0
0
0
0
0
0
0
0
0
0
0
0
0
0
0
0
0
0
0
9.81781
0
0
4.77095
0
0
0
0
0
0
18.2278
0
0
0
0
0
0
0
0
0
0
0
0
0
0
0
0
0
0
0
0
0
0
0
0
0
0
0
0
9.70847
0
0
0
0
0
0
0
0
0
0
0
0
0
0
0
0
0
0
0
0
0
0
0
0
0
0
0
0
0
0
0
0
0
0
0
0
0
0
0
0
0
0
0
0
0
0
0
0
0
9.64045
0
0
0
0
0
0
0
0
0
0
0
0
0
0
0
0
0
0
0
0
0
0
0
0
0
0
0
0
0
0
0
0
0
0
0
0
0.57106
12.0054
0
0
0
0
0
0
0
0
0.248237
0
0
0
0
0
0
0
0
0
0
0
0
0
0
3.57347
0
0
0
0
0
0
8.4624
0
0
0
0
0
0
0
0
0
0
0
0
0
0
0
0
0
0
0
0
0
0
0
0
0
0
0
0
0
0
0
0
0
0
0
0
0
0
0
0
0
0
0
0
9.53915
0
5.55237
0
9.3615
0
2.41394
0
12.5827
0
0
0
0
0
0
0
0
-1.74332e-13
0
0
0
0
0
0
0
0
0
7.07015
0
0
0
0
0
0
0
0
0
0
0
0
0
0
0
0
0
0
0
0
0
0
0
0
0
0
0
0
0
0
0
0
0
0
0
0
0
0
0
0
0
0
0
0
0
0
0
0
0
0
0
0
0
0
0
0
0
0
3.61997
0
0
0
5.50191
0
0
0
0
0
0
0
0
0
0
0
0
0
0
0
0
0
0
0
0
0
0
0
0
0
0
0
0
0
0
0
0
0
0
0
0
0
0
0
0
0
0
0
0
0
0
0
0
0
0
0
0
0
0
0
0
0
0
0
0
0
0
0
0
0
0
0
0
0
0
0
0
0
0
0
0
0
0
0
-1.29904e-13
0
0
0
0
0
0
0
0
0
0
0
0
0
0
0
6.73797
0
0
0
0
0
0
0
0
0
0
0
0
0
0
0
0
0
0
0
0
0
0
0
0
0
0
0
0
0
0
0
0
0
0
0
0
0
0
0
0
0
0
0
0
0
0
0
0
0
0
0
0
0
0
0
0
0
0
0
0
0
0
0
0
0
0
0
0
0
0
0
0
0
0
0
0
0
0
0
0
0
0
0
0
0
0
0
0
0
0
0
0
0
0
0
0
0
0
0
0
0
0
0
0
0
0
0
0
0
0
0
19.5313
0
0
0
0
0
0
0
0
0
0
0
0
0
0
0
0
0
0
0
0
0
0
0
0
0
0
0
0
0
0
0
0
0
0
0
0
0
0
0
0
0
0
0
0
0
0
0
0
0
0
0
0
0
0
0
0
0
0
0
0
0
0
0
0
0
0
0
0
0
0
0
0
0
0
0
0
0
0
0
0
0
0
0
0
0
0
0
0
0
0
0
0
0
0
0
0
0
0
0
0
0
0
0
0
0
0
0
0
0
0
0
0
0
0
0
0
0
0
0
0
0
0
0
0
0
0
0
0
0
0
0
0
0
0
0
0
0
0
0
0
0
0
0
0
0
0
0
0
0
0
0
0
0
0
0
0
0
0
0
0
0
0
0
0
0
0
0
0
0
0
0
0
0
0
0
0
0
0
0
0
0
0
0
0
0
0
0
0
0
0
0
0
0
0
0
0
0
0
0
0
0
0
0
0
0
0
0
0
0
0
0
4.18627
0
0
0
0
0
0
0
0
2.84865
0
0
4.80694
0
0
0
0
0
0
0
0
0
0
9.98079
0
0
0
0
0
0
0
0
0
0
0
0
0
8.07619
7.47284
0
0.620084
0
0
0
0
0
0
0
0
0
0
0
0
0
0
0
0
0
0
0
0
0
0
0
0
0
0
0
0
0
0
0
0
0
0
0
0
0
0
0
1.66457
0
0
0
0
0
0
0
0
0
0
0
0
0
26.4943
0
0
0
0
0
0
0
0
0
0
0
28.8141
0
0
0
0
0
0
0
0
0
0
0
0
0
0
0
0
0
0
0
0
0
0
0
0
0
0
0
0
0
0
0
0
0
0
0
0
0
0
0
0
0
0
0
0
0
0
0
0
0
0
0
0
0
0
0
0
0
0
0
0
0
0
0
0
0
0
0
0
0
0
0
0
0
0
0
0
0
0
0
0
-1.12252e-13
0
0
0
10.2585
0
0
0
0
0
0
0
0
0
0
0
0
0
7.90333
0
0
0
0
0
0
0
0
0
0
0
0
0
0
0
0
0
0
0
0
0
0
0
0
0
0
0
0
0
0
0
0
0
0
0
0
0
0
0
0
0
0
0
0
0
0
4.55695
0
0
0
0
0
0
0
0
0
10.1965
0
0
17.5029
0
0
0
0
0
0
0
0
0
0
0
0
0
0
0
0
0
0
0
7.83039
0
0
0
0
0
0
0
0
0
0
0
0
0
0
0
0
0
0
0
0
0
0
0
0
0
0
0
0
0
0
0
0
0
0
0
0
0
0
0
0
0
0
0
0
0
0
0
0
0
0
0
0
0
0
0
0
0
0
0
0
0
0
0
0
0
0
0
0
0
0
0
0
0
0
0
0
0
0
0
0
0
0
0
0
0
0
2.45216
7.62252
4.54843
0
0
0
0
0
0
0
0
0
0
0
0
0
0
0
0
0
0
0
0
0
0
0
0
0
0
0
0
0
0
0
0
0
0
0
0
0
0
0
0
0
0
0
0
0
0
0
12.6553
0
0
0
0
0
0
0
2.22182
0
0
0
0
0
0
0
0
20.5354
0
0
-1.1061e-13
0
0
0
0
0
0
0
0
0
0
0
0
0
0
0
0
0
0
0
0
0
0
0
0
0
0
0
0
0
0
0
0
0
0
0
0
0
0
0
0
0
0
0
0
0
0
0
0
0
0
0
0
0
0
0
0
0
0
0
0
0
0
0
0
0
0
0
0
0
0
0
0
0
0
0
0
0
0
0
0
0
0
0
0
0
0
0
0
0
0
0
0
0
0
0
0
0
0
0
0
0
0
0
0
0
0
0
0
0
0
0
0
0
0
0
0
0
0
0
0
0
0
0
0
0
0
0
0
0
0
0
0
0
0
0
0
0
0
0
0
0
0
0
0
0
0
0
0
0
0
0
0
0
0
0
0
0
0
0
0
0
0
0
0
0
0
0
0
0
0
0
0
0
0
0
0
0
0
0
0
0
0
0
0
0
0
0
0
0
0
0
0
0
0
0
0
0
0
0
0
0
0
0
0
0
0
0
0
0
0
0
0
0
0
0
0
0
0
0
0
0
0
0
0
0
0
0
0
0
0
0
0
0
0
0
0
0
0
0
0
0
6.17767
0
0
0
0
0
0
0
0
0
0
0
0
0
0
0
0
0
0
0
0
0
0
0
0
0
0
0
0
0
0
0
0
0
0
0
0
0
0
0
0
0
0
0
0
0
0
0
0
0
0
0
0
0
0
0
0
0
0
0
0
0
0
0
0
0
0
0
0
0
0
0
0
0
0
0
0
0
0
0
0
-2.41731e-14
0
0
0
0
0
0
0
0
0
0
0
0
0
0
0
0
0
0
0
0
0
0
0
0
0
0
0
0
0
0
0
0
0
0
0
0
0
0
0
0
0
0
0
0
0
0
0
0
0
0
0
0
0
0
0
0
0
0
0
0
0
0
0
0
0
0
0
0
0
0
0
0
0
0
0
0
0
0
0
0
0
0
0
0
0
0
0
0
0
0
0
0
0
0
0
0
0
0
0
0
0
0
0
0
0
0
0
0
0
0
0
0
0
0
0
0
0
0
0
0
0
0
0
0
0
0
0
0
0
0
0
0
0
0
0
0
0
0
0
0
0
0
0
0
0
0
0
0
0
0
0
0
0
0
0
0
0
0
0
0
0
0
0
0
0
0
0
0
0
0
0
0
0
0
0
0
0
0
0
0
0
0
0
0
0
0
0
0
0
0
0
0
0
0
0
0
0
0
0
0
0
0
0
0
0
0
0
0
0
0
0
0
0
0
0
0
0
0
0
0
0
0
0
0
0
0
0
0
0
0
0
0
0
0
0
0
0
0
0
0
0
0
0
0
0
0
0
0
0
0
0
0
0
0
0
0
0
0
0
0
0
0
0
0
0
0
0
0
0
0
0
0
0
0
0
0
0
0
0
0
0
0
0
0
0
0
0
0
0
0
0
0
0
0
0
0
0
0
0
0
0
0
0
0
0
0
0
0
0
0
0
0
0
0
0
0
0
0
0
0
0
0
0
0
0
0
0
0
0
0
0
0
0
0
0
0
0
0
0
0
0
0
0
0
0
0
0
0
0
0
0
0
0
0
0
0
0
0
0
0
0
0
0
0
0
0
0
0
0
0
0
0
0
0
0
0
0
0
0
0
0
0
0
0
0
0
0
0
0
0
0
0
0
0
0
0
0
0
0
0
0
0
0
0
0
0
0
0
0
0
0
0
0
0
0
0
0
0
0
0
0
0
0
0
0
0
0
0
0
0
0
0
0
0
0
0
0
0
0
0
0
0
0
0
0
0
0
0
0
0
0
0
0
0
0
0
0
0
0
0
0
0
0
0
0
0
0
0
0
0
0
0
0
0
0
0
0
0
0
0
0
0
0
0
0
0
0
0
0
0
0
0
0
0
0
0
0
0
0
0
0
0
0
0
0
0
0
0
0
0
0
0
0
0
0
0
0
0
0
0
0
0
0
0
0
0
0
0
0
0
0
0
0
0
0
0
0
0
0
0
0
0
0
0
0
0
0
0
0
0
0
0
0
0
0
0
0
0
0
0
0
0
0
0
0
0
0
0
0
0
0
0
0
0
0
0
0
0
0
0
0
0
0
0
0
0
0
0
0
0
0
0
0
0
0
0
0
0
0
0
0
0
0
0
0
0
0
0
0
0
0
0
0
0
0
0
0
0
0
0
0
0
0
0
0
0
0
0
0
0
0
0
0
0
0
0
0
0
0
0
0
0
0
0
0
0
0
0
0
0
0
0
0
0
0
0
0
0
0
0
0
0
0
0
0
0
0
0
0
0
0
0
0
0
0
0
0
0
0
0
0
0
0
0
0
0
0
0
0
0
0
0
0
0
0
0
0
0
0
0
0
0
0
0
0
0
0
0
0
0
0
0
0
0
0
0
0
0
0
0
0
0
0
0
0
0
0
0
0
0
0
0
0
0
0
0
0
0
0
0
0
0
0
0
0
0
0
0
0
0
0
0
0
0
0
0
0
0
0
0
0
0
0
0
0
0
0
0
0
0
0
0
0
0
0
0
0
0
0
0
0
0
0
0
0
0
0
0
0
0
0
0
0
0
0
0
0
0
0
0
0
0
0
0
0
0
0
0
0
0
0
0
0
0
0
0
0
0
0
0
0
0
0
0
0
0
0
0
0
0
0
0
0
0
0
0
0
0
0
0
0
0
0
0
0
0
0
0
0
0
0
0
0
0
0
0
0
0
0
0
0
0
0
0
0
0
0
0
0
0
0
0
0
0
0
0
0
0
0
0
0
0
0
0
0
0
0
0
0
0
0
0
0
0
0
0
0
0
0
0
0
0
0
0
0
0
0
0
0
0
0
0
0
0
0
0
0
0
0
0
0
0
0
0
0
0
0
0
0
0
0
0
0
0
0
0
0
0
0
0
0
0
0
0
0
0
0
0
0
0
0
0
0
0
0
0
0
0
0
0
0
0
0
0
0
0
0
0
0
0
0
0
0
0
0
0
0
0
0
0
0
0
0
0
0
0
0
0
0
0
0
0
0
0
0
0
0
0
0
0
0
0
0
0
0
0
0
0
0
0
0
0
0
0
0
0
0
0
0
0
0
0
0
0
0
0
0
0
0
0
0
0
0
0
0
0
0
0
0
0
0
0
0
0
0
0
0
0
0
0
0
0
0
0
0
0
0
0
0
0
0
0
0
0
0
0
0
0
0
0
0
0
0
0
0
0
0
0
0
0
0
0
0
0
0
0
0
0
0
0
0
0
0
0
0
0
0
0
0
0
0
0
0
0
0
0
0
0
0
0
0
0
0
0
0
0
0
0
0
0
0
0
0
0
0
0
0
0
0
0
0
0
0
0
0
0
0
0
0
0
0
0
0
0
0
0
0
0
0
0
0
0
0
0
0
0
0
0
0
0
0
0
0
0
0
0
0
0
0
0
0
0
0
0
0
0
0
0
0
0
0
0
0
0
0
0
0
0
0
0
0
0
0
0
0
0
0
0
0
0
0
0
0
0
0
0
0
0
0
0
0
0
0
0
0
0
0
0
0
0
0
0
0
0
0
0
0
0
0
0
0
0
0
0
0
0
0
0
0
0
0
0
0
0
0
0
0
0
0
0
0
0
0
0
0
0
0
0
0
0
0
0
0
0
0
0
0
0
0
0
0
0
0
0
0
0
0
0
0
0
0
0
0
0
0
0
0
0
0
0
0
0
0
0
0
0
0
0
0
0
0
0
0
0
0
0
0
0
0
0
0
0
0
0
0
0
0
0
0
0
0
0
0
0
0
0
0
0
0
0
0
0
0
0
0
0
0
0
0
0
0
0
0
0
0
0
0
0
0
0
0
0
0
0
0
0
0
0
0
0
0
0
0
0
0
0
0
0
0
0
0
0
0
0
0
0
0
0
0
0
0
0
0
0
0
0
0
0
0
0
0
0
0
0
0
0
0
0
0
0
0
0
0
0
0
0
0
0
0
0
0
0
0
0
0
0
0
0
0
0
0
0
0
0
0
0
0
0
0
0
0
0
0
0
0
0
0
0
0
0
0
0
0
0
0
0
0
0
0
0
0
0
0
0
0
0
0
0
0
0
0
0
0
0
0
0
0
0
0
0
0
0
0
0
0
0
0
0
0
0
0
0
0
0
0
0
0
0
0
0
0
0
0
0
0
0
0
0
0
0
0
0
0
0
0
0
0
0
0
0
0
0
0
0
0
0
0
0
0
0
0
0
0
0
0
0
0
0
0
0
0
0
0
0
0
0
0
0
0
0
0
0
0
0
0
0
0
0
0
0
0
0
0
0
0
0
0
0
0
0
0
0
0
0
0
0
0
0
0
0
0
0
0
0
0
0
0
0
0
0
0
0
0
0
0
0
0
0
0
0
0
0
0
0
0
0
0
0
0
0
0
0
0
0
0
0
0
0
0
0
0
0
0
0
0
0
0
0
0
0
0
0
0
0
0
0
0
0
0
0
0
0
0
0
0
0
0
0
0
0
0
0
0
0
0
0
0
0
0
0
0
0
0
0
0
0
0
0
0
0
0
0
0
0
0
0
0
0
0
0
0
0
0
0
0
0
0
0
0
0
0
0
0
0
0
0
0
0
0
0
0
0
0
0
0
0
0
0
0
0
0
0
0
0
0
0
0
0
0
0
0
0
0
0
0
0
0
0
0
0
0
0
0
0
0
0
0
0
0
0
0
0
0
0
0
0
0
0
0
0
0
0
0
0
0
0
0
0
0
0
0
0
0
0
0
0
0
0
0
0
0
0
0
0
0
0
0
0
0
0
0
0
0
0
0
0
0
0
0
0
0
0
0
0
0
0
0
0
0
0
0
0
0
0
0
0
0
0
0
0
0
0
0
0
0
0
0
0
0
0
0
0
0
0
0
0
0
0
0
0
0
0
0
0
0
0
0
0
0
0
0
0
0
0
0
0
0
0
0
0
0
0
0
0
0
0
0
0
0
0
0
0
0
0
0
0
0
0
0
0
0
0
0
0
0
0
0
0
0
0
0
0
0
0
0
0
0
0
0
0
0
0
0
0
0
0
0
0
0
0
0
0
0
0
0
0
0
0
0
0
0
0
0
0
0
0
0
0
0
0
0
0
0
0
0
0
0
0
0
0
0
0
0
0
0
0
0
0
0
0
0
0
0
0
0
0
0
0
0
0
0
0
0
0
0
0
0
0
0
0
0
0
0
0
0
0
0
0
0
0
0
0
0
0
0
0
0
0
0
0
0
0
0
0
0
0
0
0
0
0
0
0
0
0
0
0
0
0
0
0
0
0
0
0
0
0
0
0
0
0
0
0
0
0
0
0
0
0
0
0
0
0
0
0
0
0
0
0
0
0
0
0
0
0
0
0
0
0
0
0
0
0
0
0
0
0
0
0
0
0
0
0
0
0
0
0
0
0
0
0
0
0
0
0
0
0
0
0
0
0
0
0
0
0
0
0
0
0
0
0
0
0
0
0
0
0
0
0
0
0
0
0
0
0
0
0
0
0
0
0
0
0
0
0
0
0
0
0
0
0
0
0
0
0
0
0
0
0
0
0
0
0
0
0
0
0
0
0
0
0
0
0
0
0
0
0
0
0
0
0
0
0
0
0
0
0
0
0
0
0
0
0
0
0
0
0
0
0
0
0
0
0
0
0
0
0
0
0
0
0
0
0
0
0
0
0
0
0
0
0
0
0
0
0
0
0
0
0
0
0
0
0
0
0
0
0
0
0
0
0
0
0
0
0
0
0
0
0
0
0
0
0
0
0
0
0
0
0
0
0
0
0
0
0
0
0
0
0
0
0
0
0
0
0
0
0
0
0
0
0
0
0
0
0
0
0
0
0
0
0
0
0
0
0
0
0
0
0
0
0
0
0
0
0
0
0
0
0
0
0
0
0
0
0
0
0
0
0
0
0
0
0
0
0
0
0
0
0
0
0
0
0
0
0
0
0
0
0
0
0
0
0
0
0
0
0
0
0
0
0
0
0
0
0
0
0
0
0
0
0
0
0
0
0
0
0
0
0
0
0
0
0
0
0
0
0
0
0
0
0
0
0
0
0
0
0
0
0
0
0
0
0
0
0
0
0
0
0
0
0
0
0
0
0
0
0
0
0
0
0
0
0
0
0
0
0
0
0
0
0
0
0
0
0
0
0
0
0
0
0
0
0
0
0
0
0
0
0
0
0
0
0
0
0
0
0
0
0
0
0
0
0
0
0
0
0
0
0
0
0
0
0
0
0
0
0
0
0
0
0
0
0
0
0
0
0
0
0
0
0
0
0
0
0
0
0
0
0
0
0
0
0
0
0
0
0
0
0
0
0
0
0
0
0
0
0
0
0
0
0
0
0
0
0
0
0
0
0
0
0
0
0
0
0
0
0
0
0
0
0
0
0
0
0
0
0
0
0
0
0
0
0
0
0
0
0
0
0
0
0
0
0
0
0
0
0
0
0
0
0
0
0
0
0
0
0
0
0
0
0
0
0
0
0
0
0
0
0
0
0
0
0
0
0
0
0
0
0
0
0
0
0
0
0
0
0
0
0
0
0
0
0
0
0
0
0
0
0
0
0
0
0
0
0
0
0
0
0
0
0
0
0
0
0
0
0
0
0
0
0
0
0
0
0
0
0
0
0
0
0
0
0
0
0
0
0
0
0
0
0
0
0
0
0
0
0
0
0
0
0
0
0
0
0
0
0
0
0
0
0
0
0
0
0
0
0
0
0
0
0
0
0
0
0
0
0
0
0
0
0
0
0
0
0
0
0
0
0
0
0
0
0
0
0
0
0
0
0
0
0
0
0
0
0
0
0
0
0
0
0
0
0
0
0
0
0
0
0
0
0
0
0
0
0
0
0
0
0
0
0
0
0
0
0
0
0
0
0
0
0
0
0
0
0
0
0
0
0
0
0
0
0
0
0
0
0
0
0
0
0
0
0
0
0
0
0
0
0
0
0
0
0
0
0
0
0
0
0
0
0
0
0
0
0
0
0
0
0
0
0
0
0
0
0
0
0
0
0
0
0
0
0
0
0
0
0
0
0
0
0
0
0
0
0
0
0
0
0
0
0
0
0
0
0
0
0
0
0
0
0
0
0
0
0
0
0
0
0
0
0
0
0
0
0
0
0
0
0
0
0
0
0
0
0
0
0
0
0
0
0
0
0
0
0
0
0
0
0
0
0
0
0
0
0
0
0
0
0
0
0
0
0
0
0
0
0
0
0
0
0
0
0
0
0
0
0
0
0
0
0
0
0
0
0
0
0
0
0
0
0
0
0
0
0
0
0
0
0
0
0
0
0
0
0
0
0
0
0
0
0
0
0
0
0
1749.55
946.145
1721.33
4443.98
1485.49
6179.38
4458.6
2263.74
816.772
957.627
1502.09
3639.88
1165.83
1647.78
361.235
129.204
493.674
880.181
3664.38
58.7976
1939.67
1160.57
845.826
130.356
1165.01
1121.31
1102.78
361.229
1530.84
327.663
496.103
2617
3193.59
517.122
232.098
1001.31
355.564
259.296
1412.97
2775.82
94.5044
55.3102
461.608
422.026
74.3503
104.088
668.194
560.038
47.9408
83.0504
89.4208
46.6189
669.035
27.2097
22.8308
6.84164
585.643
8.57223
61.9892
166.475
312.797
27.8909
254.197
3054.83
806.404
4175.95
707.722
992.947
1081.78
2591.79
12.0039
157.21
5.58636
0.130599
6.444
232.597
0
49.3637
17.5147
167.418
18.8418
276.481
72.5545
983.845
1334.16
2980.12
3053
2040.67
1187.26
512.506
1394.96
2159.4
639.266
1427.01
445.827
561.822
1085.51
2319.11
1632.28
153.913
822.386
669.535
249.525
359.302
96.8942
113.538
961.285
221.829
557.823
105.396
1130.11
522.087
618.126
294.736
468.377
753.965
302.567
263.857
365.163