/*--------------------------------*- C++ -*----------------------------------*\
| =========                 |                                                 |
| \\      /  F ield         | OpenFOAM: The Open Source CFD Toolbox           |
|  \\    /   O peration     | Version:  5.x                                   |
|   \\  /    A nd           | Web:      www.OpenFOAM.org                      |
|    \\/     M anipulation  |                                                 |
\*---------------------------------------------------------------------------*/
FoamFile
{
    version     2.0;
    format      ascii;
    class       volScalarField;
    location    "4";
    object      p;
}
// * * * * * * * * * * * * * * * * * * * * * * * * * * * * * * * * * * * * * //

dimensions      [0 2 -2 0 0 0 0];

internalField   nonuniform List<scalar> 
10571
(
137.46
139.021
146.98
140.019
168.935
128.057
130.351
132.5
130.619
127.382
127.787
121.324
116.7
121.883
125.554
123.674
119.576
118.515
118.796
120.204
116.069
117.267
116.781
117.386
115.042
126.037
118.172
113.651
107.046
112.653
108.244
112.05
107.174
102.354
114.567
115.731
110.568
113.206
108.819
106.937
115.696
114.129
109.677
108.074
105.175
110.17
111.851
104.122
106.756
107.483
104.162
103.705
101.759
105.342
104.381
101.057
100.143
98.8519
108.353
107.63
104.609
106.394
96.9789
98.1093
103.439
99.6756
94.7682
89.9779
94.2291
104.919
108.382
91.2431
99.4905
100.553
101.259
98.4758
94.418
99.2409
101.734
97.1355
93.0809
92.7684
98.4131
99.3887
97.165
97.9297
83.6741
86.6521
86.5884
82.6779
82.9661
81.4267
81.2611
91.3888
82.8312
83.9364
93.6217
94.9566
96.6078
91.9436
88.6555
92.1102
97.9932
89.6088
80.7487
84.2014
79.6069
89.6041
88.4557
78.508
70.425
75.9469
74.2189
74.6244
74.8147
74.7821
74.6753
74.5084
77.296
78.5984
86.97
85.0512
90.1596
85.4189
83.6426
81.8601
79.6648
70.4058
69.324
73.828
69.5334
70.9255
70.1894
72.8723
65.7549
68.1672
69.0362
69.1904
70.4114
69.8058
69.4461
70.7593
70.8619
71.4385
72.0459
72.1127
76.8532
70.1574
82.7918
79.406
68.1955
70.7116
66.286
65.9309
67.2075
68.0961
68.7587
68.0685
67.6205
66.1671
68.0969
68.6153
68.3638
68.7068
68.9074
68.233
67.9395
68.9894
69.4584
68.6856
70.097
69.2152
69.1639
66.991
67.2597
66.9628
66.8544
67.2769
67.8696
66.9343
67.5841
67.5669
68.1902
68.5838
67.2324
67.0687
67.0487
68.2048
68.1623
68.527
68.6254
67.7977
67.8388
67.8365
68.4257
69.9097
68.7577
69.0155
68.9972
68.8142
66.8321
66.7276
66.7375
66.8014
67.1145
66.7557
66.7872
67.1338
67.3711
67.7522
68.7568
66.9058
66.8733
67.1062
67.4482
67.5216
68.2124
68.6485
67.2914
67.5048
67.5869
68.011
68.6152
68.1988
68.2247
68.1863
66.7597
66.6612
66.6426
66.7579
66.8995
66.6002
66.6613
66.7816
66.999
66.1301
66.697
66.7051
66.8272
66.918
67.0858
66.9527
66.9753
67.0555
67.1398
67.4746
66.7183
67.7058
67.5347
67.5668
66.6265
66.6282
66.6017
66.6358
66.6572
66.6037
66.6047
66.5653
66.6091
66.2054
66.6347
66.6144
66.6862
66.6142
66.7553
66.2473
66.7523
66.6877
66.734
67.0827
66.879
67.1627
67.1754
67.0948
66.4949
66.585
66.5388
66.502
66.4383
66.5744
66.5566
66.4282
66.3067
65.9885
66.6585
66.6314
66.6792
66.4608
66.5033
66.4411
66.7424
66.5504
66.5015
66.8157
66.6283
66.9712
66.7482
66.7935
66.4054
66.5378
66.4694
66.3715
66.2625
66.5536
66.516
66.3348
66.135
65.9744
66.6871
66.6484
66.6811
66.3812
66.3436
66.3838
66.7441
66.524
66.4799
66.5874
66.5417
66.8571
66.6815
66.656
66.3551
66.501
66.4312
66.3096
66.1847
66.5594
66.485
66.2881
66.1323
66.0846
66.6594
66.6465
66.6154
66.3414
66.2839
66.3515
66.6864
66.5023
66.4725
66.4686
66.4772
66.7689
66.6503
66.5538
66.34
66.4662
66.3895
66.301
66.1969
66.5419
66.4503
66.2872
66.196
66.1902
66.599
66.6245
66.5345
66.3253
66.2983
66.2743
66.5929
66.4564
66.4413
66.4603
66.3902
66.7127
66.5494
66.5392
66.3454
66.4386
66.3719
66.3197
66.2342
66.5075
66.4152
66.3092
66.2507
66.2322
66.555
66.5597
66.4996
66.3452
66.315
66.1861
66.4116
66.4082
66.4371
66.4552
66.3486
66.5757
66.5397
66.5533
66.3723
66.4279
66.3511
66.3461
66.2816
66.4827
66.3951
66.3347
66.2946
66.2227
66.5603
66.5485
66.5283
66.396
66.3279
66.269
66.4373
66.3885
66.4848
66.4767
66.3818
66.612
66.5459
66.5577
66.4003
66.4177
66.3528
66.3734
66.3349
66.4749
66.3861
66.365
66.3331
66.2484
66.5997
66.6082
66.5338
66.455
66.3791
66.3582
66.6409
66.5335
66.5336
66.4834
66.4433
66.6963
66.6009
66.5683
66.4395
66.4178
66.3662
66.4076
66.3831
66.4675
66.3734
66.4031
66.3906
66.3333
66.6398
66.6648
66.5018
66.4975
66.4195
66.429
66.8719
66.7042
66.5817
66.4821
66.474
66.7432
66.6128
66.586
66.4554
66.4266
66.387
66.4419
66.4197
66.4532
66.3588
66.4338
66.417
66.4083
66.6147
66.6296
66.4663
66.5135
66.4159
66.4414
67.0982
66.6545
66.5918
66.5076
66.4962
66.6576
66.6065
66.588
66.4831
66.4355
66.41
66.4658
66.4397
66.4263
66.348
66.4532
66.403
66.3967
66.5256
66.5045
66.4227
66.5162
66.396
66.4093
66.7508
66.4583
66.5133
66.461
66.4545
66.5104
66.5604
66.5456
66.4792
66.4436
66.426
66.4787
66.4352
66.4046
66.3523
66.4658
66.3985
66.3622
66.4232
66.3841
66.3732
66.5607
66.4012
66.3499
66.326
66.2261
66.4135
66.4035
66.3846
66.3553
66.4427
66.4887
66.4543
66.453
66.4359
66.475
66.4365
66.411
66.3754
66.4751
66.4046
66.3675
66.3738
66.3361
66.351
66.6012
66.4336
66.2901
66.0065
66.191
66.3552
66.3768
66.303
66.2417
66.4158
66.4317
66.4177
66.465
66.449
66.4622
66.422
66.4422
66.411
66.4872
66.4159
66.3763
66.4079
66.3768
66.3468
66.5868
66.4726
66.3245
66.1116
66.1989
66.4857
66.3779
66.3409
66.3624
66.4924
66.5214
66.363
66.4769
66.4467
66.4248
66.4218
66.4785
66.4379
66.4865
66.4206
66.4211
66.4844
66.4636
66.3558
66.5484
66.504
66.3974
66.4291
66.4556
66.6961
66.4581
66.4238
66.521
66.5946
66.5539
66.342
66.4901
66.4114
66.3009
66.4337
66.5097
66.4638
66.4668
66.426
66.4725
66.5612
66.5481
66.4328
66.4773
66.5325
66.4595
66.6853
66.7973
66.821
66.5415
66.4975
66.6209
66.6832
66.6524
66.4288
66.5146
66.4002
66.2131
66.4784
66.5332
66.4938
66.4343
66.4585
66.5259
66.6123
66.5971
66.4779
66.4176
66.5624
66.5413
66.8235
66.9056
66.8026
66.5793
66.5738
66.6909
66.7207
66.6886
66.5974
66.5614
66.47
66.3546
66.5795
66.5485
66.4954
66.4112
66.5277
66.5769
66.6352
66.6067
66.4741
66.3858
66.5736
66.6026
66.8436
66.8763
66.7512
66.619
66.6257
66.7283
66.7341
66.7353
66.7251
66.6228
66.5828
66.528
66.6816
66.5646
66.4844
66.3874
66.5813
66.6287
66.6434
66.603
66.457
66.3546
66.5905
66.6023
66.7965
66.7588
66.7183
66.6367
66.6721
66.691
66.7064
66.7342
66.7814
66.6861
66.6763
66.6519
66.7243
66.5965
66.497
66.4182
66.5702
66.647
66.6598
66.6106
66.4571
66.3479
66.6091
66.642
66.7487
66.625
66.6777
66.6324
66.7331
66.6183
66.6766
66.7167
66.8197
66.7518
66.7434
66.7321
66.7714
66.6571
66.5556
66.4916
66.5961
66.6778
66.7011
66.6476
66.4786
66.381
66.6145
66.6623
66.7419
66.5551
66.6281
66.6144
66.692
66.6424
66.6905
66.7119
66.8592
66.8287
66.8081
66.7897
66.8248
66.7492
66.6595
66.6096
66.7038
66.7299
66.7699
66.7188
66.5212
66.4118
66.639
66.7277
66.78
66.5722
66.6147
66.6253
66.7409
66.7635
66.7354
66.7485
66.9164
66.9228
66.8898
66.8604
66.8911
66.8634
66.7933
66.7514
66.8243
66.8251
66.859
66.8113
66.565
66.5
66.6977
66.8125
66.8483
66.6309
66.6384
66.6819
66.8332
66.8718
66.8113
66.8019
66.9987
67.0331
66.9953
66.9574
66.9726
66.9863
66.932
66.8825
66.9114
66.943
66.9598
66.9135
66.6566
66.5935
66.7476
66.8854
66.9479
66.7294
66.6584
66.7254
66.8704
67.0008
66.8757
66.85
67.1109
67.1557
67.1199
67.0768
67.0674
67.1114
67.0562
67.03
66.9729
67.0637
67.0672
67.0255
66.7967
66.7066
66.8082
66.9634
67.0482
66.8261
66.6806
66.7805
66.9578
67.0735
66.8597
66.8959
67.2495
67.2866
67.2536
67.2196
67.1842
67.2357
67.1707
67.171
67.0593
67.1443
67.1857
67.1461
66.9643
66.8842
66.9221
67.0831
67.1581
66.9283
66.7726
66.8687
67.0414
67.0252
66.8695
66.9562
67.4059
67.4231
67.3959
67.3803
67.3415
67.3666
67.3109
67.3136
67.2057
67.2211
67.3221
67.2793
67.1406
67.1457
67.109
67.2511
67.2899
67.0604
66.9504
67.0183
67.1782
66.9545
66.9596
67.0762
67.5647
67.5609
67.5432
67.5469
67.5375
67.5057
67.486
67.4883
67.4215
67.384
67.4708
67.4275
67.3132
67.393
67.3428
67.4868
67.4435
67.2509
67.2022
67.2061
67.3675
67.1488
67.2279
67.2862
67.714
67.6943
67.6849
67.7017
67.7404
67.6465
67.6536
67.6897
67.6579
67.6856
67.6255
67.5835
67.5008
67.5757
67.4908
67.699
67.605
67.4676
67.4613
67.4033
67.5352
67.4369
67.4758
67.5021
67.8475
67.8192
67.814
67.8367
67.92
67.7791
67.7966
67.8929
67.94
68.2903
67.7757
67.7402
67.6943
67.6995
67.6369
67.9471
67.7526
67.6382
67.6408
67.5573
67.709
67.6737
67.662
67.6382
67.9627
67.9342
67.9271
67.948
68.0479
67.8982
67.9172
68.0191
68.1858
68.6398
67.908
67.883
67.8631
67.838
67.8488
68.1603
67.8748
67.7481
67.7396
67.6979
67.8488
67.833
67.8653
67.7472
68.0671
68.0411
68.0264
68.0379
68.1083
68.0048
67.9591
68.0217
68.1822
68.4935
68.0201
67.996
68.0123
67.9783
67.8859
68.1766
67.9658
67.8535
67.8137
67.8074
67.9224
67.9797
68.0082
67.8649
68.17
68.1461
68.1251
68.1182
68.1427
68.1065
68.033
67.9922
68.0015
68.22
68.1264
68.0878
68.1216
68.0603
67.9373
68.0944
68.0466
67.8903
67.8722
67.8825
67.9615
68.0545
67.9597
67.8494
68.2868
68.2546
68.2321
68.2129
68.2239
68.2141
68.1293
68.0351
67.9211
68.046
68.2327
68.1774
68.1727
68.0745
68.0697
67.7569
68.1246
67.9417
67.8735
67.9666
68.0273
68.0664
67.7297
67.8804
68.4247
68.3659
68.3483
68.3256
68.367
68.3299
68.2482
68.1445
68.0438
68.1134
68.3399
68.2853
68.2348
68.1552
68.2048
67.9768
68.2225
68.1541
68.1512
68.0696
68.1372
68.1453
67.9495
68.0579
68.5658
68.4687
68.4626
68.4642
68.5326
68.4393
68.3895
68.3066
68.2632
68.3842
68.4439
68.4001
68.3446
68.3928
68.4582
68.3513
68.364
68.35
68.6151
68.4843
68.5094
68.2592
68.4266
68.4657
68.6644
68.5416
68.5458
68.566
68.6532
68.5144
68.4718
68.4668
68.4759
68.6901
68.5096
68.4783
68.4104
68.5985
68.8212
68.8534
68.4381
68.4069
68.9338
68.9187
68.9497
68.3357
68.7255
68.8405
68.6833
68.572
68.5739
68.5946
68.6785
68.5433
68.4847
68.5079
68.5651
68.8168
68.5283
68.5055
68.4163
68.5788
68.8897
69.0488
68.4616
68.3728
68.8901
69.0914
69.3813
68.3942
68.7578
68.9303
68.6317
68.5691
68.5601
68.56
68.6091
68.5408
68.4606
68.4686
68.5275
68.7094
68.5242
68.5054
68.3731
68.4869
68.7296
68.8947
68.5048
68.4213
68.7659
68.9697
69.1218
68.4794
68.7028
68.8401
68.561
68.5503
68.5284
68.5101
68.5271
68.5284
68.4401
68.4249
68.4706
68.5517
68.5236
68.5136
68.3464
68.4236
68.5775
68.662
68.6127
68.5133
68.6239
68.738
68.7915
68.5234
68.6159
68.704
68.4996
68.5298
68.4996
68.4659
68.4652
68.5157
68.438
68.3954
68.4219
68.4433
68.5108
68.4907
68.3708
68.3844
68.4751
68.4832
68.5429
68.497
68.504
68.553
68.5681
68.5087
68.5333
68.5652
68.4535
68.5141
68.476
68.43
68.42
68.508
68.4265
68.3689
68.3788
68.3997
68.4843
68.4417
68.3593
68.3654
68.4147
68.4228
68.4636
68.4515
68.4138
68.4279
68.4437
68.466
68.4626
68.445
68.4192
68.5082
68.4604
68.4007
68.3805
68.5109
68.4112
68.3325
68.3471
68.3782
68.5312
68.4641
68.35
68.3544
68.3795
68.4058
68.4517
68.4141
68.3677
68.3612
68.3926
68.4311
68.4173
68.3889
68.3874
68.5201
68.4556
68.3715
68.3363
68.53
68.4104
68.2983
68.3027
68.3369
68.5784
68.5521
68.3736
68.3505
68.3345
68.3824
68.4591
68.4145
68.3389
68.326
68.355
68.4182
68.395
68.3736
68.3549
68.5442
68.4629
68.3385
68.2754
68.5643
68.4253
68.2661
68.2213
68.2671
68.5928
68.5623
68.4089
68.3409
68.2637
68.3183
68.4877
68.4478
68.3159
68.2895
68.3004
68.4285
68.3825
68.3592
68.324
68.5914
68.4857
68.3016
68.1983
68.6031
68.4503
68.2237
68.1078
68.1471
68.6241
68.5481
68.4332
68.3095
68.1686
68.2161
68.5478
68.4791
68.2978
68.2465
68.213
68.4522
68.3736
68.3357
68.3118
68.6706
68.5337
68.2729
68.0842
68.668
68.4803
68.1546
67.9391
67.9775
68.6823
68.5732
68.553
68.2388
68.0177
68.0495
68.6233
68.5347
68.272
68.1726
68.0797
68.4868
68.3685
68.3021
68.3282
68.8
68.624
68.2502
67.938
68.7768
68.5155
68.0404
67.6661
67.6749
68.8039
68.6971
68.5956
68.1491
67.7845
67.7369
68.7331
68.576
68.2412
68.0647
67.8811
68.5279
68.3591
68.2298
68.3807
68.9888
68.7498
68.2379
67.7411
68.9394
68.5205
67.8503
67.2271
67.1835
68.9919
68.9044
68.4886
67.9666
67.3988
67.1929
68.8947
68.6058
68.1702
67.8859
67.5549
68.5821
68.3452
68.1528
68.4783
69.2416
68.9296
68.256
67.4908
69.2073
68.5401
67.6028
66.4969
66.3155
69.2167
69.1544
68.34
67.6727
66.7785
66.1774
69.1189
68.6171
68.0588
67.5941
67.0521
68.6839
68.3188
68.0371
68.642
69.5801
69.2088
68.3136
67.1842
69.5789
68.5942
67.2952
65.3794
64.5663
69.5189
69.4351
68.1999
67.2235
65.7756
63.8435
69.3718
68.5238
67.8406
67.1269
66.175
68.8602
68.2954
67.8936
68.8841
70.0037
69.5681
68.4136
66.8534
70.0548
68.6637
66.8536
63.8969
60.3717
69.9665
69.7186
68.0791
66.5238
64.3341
58.2016
69.469
68.2246
67.4211
66.3531
64.4698
68.9472
68.1919
67.7225
69.2123
70.397
69.9575
68.61
66.6614
70.5029
68.8015
66.2614
62.3595
49.3363
70.0174
69.7499
67.7908
65.7521
62.5591
50.5786
-30.3796
69.104
67.5858
66.9025
65.1585
60.6346
68.4991
67.8775
67.6617
69.5988
70.6737
70.2268
68.9008
66.6307
70.7404
68.8549
66.0714
61.5977
41.4774
-3.50038
70.2983
70.0087
67.4869
65.3099
61.5076
49.5411
6.50223
68.4049
66.6079
66.5221
64.1681
53.9185
67.6949
67.5316
67.7021
69.941
70.7347
70.245
69.1139
67.1192
70.3792
68.7436
66.1773
63.0254
50.1035
16.3821
69.7319
69.3717
66.8374
65.0897
62.6532
50.8385
17.2212
67.1678
65.6008
66.5856
65.2106
55.9214
18.1351
66.2447
67.1682
67.9998
69.9669
70.2371
69.8791
69.0149
67.8851
69.4727
67.975
66.0029
65.5136
56.2698
21.312
68.5515
68.0576
65.3926
64.914
65.4516
56.1607
20.7268
65.9358
64.445
66.3386
66.7276
62.7445
65.4007
66.6738
68.1029
69.25
69.3557
68.9036
68.2614
68.1209
68.3416
66.4695
65.4767
66.851
65.3213
67.4045
66.748
63.9737
64.6793
67.2027
65.4834
2.93347
65.1229
63.4193
65.8831
67.6659
69.7175
64.3857
65.8588
67.7519
68.2966
68.211
67.5416
67.0534
67.6559
67.3048
65.3684
65.0049
67.085
69.381
66.7846
66.0555
63.6122
64.8746
67.8425
69.4581
64.9867
63.5384
65.6724
67.712
70.1739
64.035
65.5231
67.2038
67.1471
67.2801
66.4473
65.9666
66.9448
66.636
65.0189
64.452
66.5511
68.4765
66.6326
65.9202
64.0708
64.9397
67.0615
68.516
65.3966
64.013
65.6436
66.9481
68.8036
64.6313
65.649
66.8676
66.2221
66.6867
65.862
65.2828
66.2096
66.3793
64.7988
63.9965
66.1139
67.4257
66.7817
66.1625
64.505
64.9903
66.7048
67.5843
66.0622
64.7144
65.8227
66.7112
67.9149
65.5093
66.0224
66.9409
65.4816
66.4826
65.5497
64.7938
65.3453
66.4671
64.8346
63.9083
65.795
66.8437
67.1809
66.6125
65.0027
65.0925
66.7147
67.2751
66.8448
65.6049
66.246
66.8946
67.7018
66.5941
66.7965
67.3477
64.8899
66.6989
65.4675
64.4858
64.6119
66.9256
65.0576
64.2241
65.9582
66.8864
67.8611
67.2345
65.5777
65.4767
67.0335
67.4893
67.7112
66.5012
66.8288
67.2831
67.9673
67.5444
67.6118
67.9989
64.4351
67.2457
65.6582
64.2537
64.0713
67.6809
65.3275
64.8661
66.6374
67.6762
68.81
68.0603
66.1458
66.2161
67.7765
68.3966
68.5771
67.3207
67.6763
68.1073
68.7802
68.3683
68.3646
68.7591
65.441
68.5534
66.571
64.8288
64.3331
68.7959
66.3439
65.3059
66.6756
69.1955
70.1983
69.0988
66.9
66.3739
67.9607
69.8661
69.4792
67.8249
67.7086
68.9406
70.0594
69.1056
68.9523
69.4662
66.8916
69.1803
67.3988
65.7513
66.3318
69.4041
67.0205
66.2612
68.0373
70.5181
70.9755
69.7484
67.4499
67.1428
68.9482
71.0453
70.0633
68.2751
68.3371
69.5948
71.0716
69.3611
69.2915
70.006
182.27
171.168
171.916
186.467
208.183
221.873
224.36
210.34
194.41
182.894
176.186
182.723
162.248
176.924
169.416
164.77
166.632
164.544
174.894
153.194
160.41
204.49
207.414
178.012
193.3
174.393
176.414
169.653
163.661
152.828
150.885
137.032
148.274
156.004
147.74
143.553
127.126
149.136
145.611
129.127
130.406
140.282
142.147
130.987
133.41
139.799
135.664
137.677
158.189
142.996
140.049
127.722
134.571
126.491
126.37
136.863
125.8
124.715
121.718
126.378
129.296
122.504
124.556
135.181
155.294
132.26
154.225
185.758
176.547
200.248
145.289
132.751
123.657
139.162
131.673
121.341
120.568
120.363
119.749
120.705
121.583
119.983
120.494
129.59
164.003
141.378
162.831
186.552
137.221
122.961
119.632
117.8
118.904
119.06
117.081
137.047
144.739
136.033
130.592
143.049
137.092
120.222
132.655
119.158
132.074
145.973
116.492
114.203
114.423
169.471
119.358
153.378
129.435
142.438
142.334
144.97
131.575
137.321
127.106
139.905
174.135
144.527
146.333
121.124
128.765
119.572
116.884
134.577
114.524
147.978
139.656
133.744
125.401
119.91
121.393
121.204
115.559
115.642
117.188
115.872
124.393
122.315
118.433
119.08
118.175
118.649
127.226
110.908
110.28
109.229
120.228
116.864
120.809
118.039
117.02
117.399
117.83
116.375
115.578
114.602
117.03
110.235
113.899
104.602
105.569
103.429
106.214
116.747
115.06
117.554
117.904
113.004
115.807
116.357
117.661
117.108
114.168
112.298
114.988
108.777
124.946
114.327
117.765
120.462
116.615
116.507
113.241
115.984
113.299
110.637
111.726
110.69
109.199
109.281
107.804
115.915
107.707
128.969
116.993
114.134
116.1
112.314
108.351
103.687
108.098
107.702
103.598
105.035
103.395
104.182
101.032
102.622
100.758
112.465
112.022
111.899
106.819
108.428
107.686
110.227
109.398
100.393
102.39
102.051
114.8
115.982
110.784
110.449
113.465
105.85
106.766
103.07
102.495
103.601
116.326
114.917
114.916
114.735
113.177
111.903
109.028
110.581
108.494
101.936
99.5433
101.748
98.6471
97.8715
94.8739
98.277
101.085
112.091
108.215
113.735
114.114
108.1
111.052
109.934
107.994
112.497
111.146
106.665
111.022
98.1298
106.258
103.39
113.74
106.779
114.368
107.947
103.597
107.86
106.596
106.581
102.167
102.73
103.252
104.649
100.408
103.441
101.213
104.959
103.702
102.918
103.351
102.901
101.388
102.605
100.013
100.883
98.9126
98.0169
96.9198
96.4363
96.4277
98.8721
96.3634
103.922
106.234
105.723
100.892
103.254
102.893
98.7116
98.1476
96.2785
94.8549
94.7077
108.325
109.49
104.801
105.609
102.077
97.6574
96.7726
91.8575
92.7105
88.8286
110.131
94.7691
100.862
102.719
103.257
94.0695
94.638
94.8451
96.333
92.8133
90.8565
92.8839
84.8644
87.5911
87.3496
88.1805
87.1317
104.478
99.3946
103.218
100.918
101.269
93.3852
92.818
97.2612
105.494
92.134
86.4054
91.633
86.8183
101.815
100.078
101.68
101.317
100.394
98.8438
99.5519
97.9306
100.034
99.5945
96.7994
97.5771
95.2598
95.6345
91.5428
99.043
96.353
101.281
99.3881
101.664
98.1453
99.3682
97.15
100.207
93.9962
93.6037
93.3895
91.3983
91.1988
91.5396
90.0144
93.4171
90.0682
97.7881
99.022
99.2033
94.3259
93.8019
94.7435
91.1834
91.5594
88.7706
87.3873
88.0212
98.8844
89.4445
88.7122
88.513
77.4159
87.7687
82.9351
81.6816
83.1286
77.7481
82.5353
77.9303
90.7734
86.44
88.242
79.7025
88.0283
79.143
81.6678
82.0277
83.8996
83.8253
78.1117
77.1987
80.674
79.9654
77.3964
90.8848
80.597
85.9209
86.0615
78.8892
79.394
80.0077
82.7891
83.5242
80.2379
81.2197
80.5679
81.4282
97.1996
92.7603
96.3041
97.1646
96.0091
93.2885
94.8626
93.3914
94.5251
90.7426
90.2399
91.1315
87.1439
88.172
84.7879
92.884
87.3041
95.5473
94.5235
98.1826
91.1425
91.5797
90.4447
91.4969
88.1733
88.4182
86.3421
86.134
84.8228
84.5139
82.838
85.9664
81.3756
90.0235
87.9138
89.5716
85.9419
81.0041
83.2717
81.6786
82.1935
79.2925
75.7371
73.9811
78.1145
74.3851
74.1555
72.9206
73.2056
78.1804
73.7633
71.4778
71.7875
71.3257
75.8399
73.5387
82.2796
74.5381
74.8007
71.5189
72.0846
72.3099
70.5468
74.2406
77.5658
76.6616
72.3359
72.5663
74.613
73.9994
72.6178
74.3744
71.5962
75.3055
75.696
72.4785
73.4088
73.7485
78.8732
77.547
74.5593
75.6223
74.7984
75.4351
87.9368
81.6419
89.5566
91.2629
90.1377
84.5723
85.5086
85.3954
87.7791
83.4968
82.9753
83.3901
77.9207
80.5536
73.0003
81.1935
75.8128
88.4032
83.1079
82.1065
74.4556
81.088
75.1861
76.5832
79.3021
80.3202
77.9046
77.4621
71.8567
73.9565
69.6185
74.4484
68.0073
81.4588
75.5244
77.1676
76.5033
71.7707
73.0073
69.2921
71.6528
74.4167
68.7088
66.1638
68.3385
67.5175
69.1139
69.6905
69.0218
68.6196
69.0797
68.5105
68.8419
70.475
71.6715
69.1899
68.9905
69.9448
73.5558
69.7859
68.5448
68.2013
67.4104
69.0649
67.2513
68.8748
68.7894
68.7527
68.5437
68.764
68.7356
68.6854
71.3922
69.8786
67.8166
70.9002
69.8565
69.6416
68.5406
69.9747
69.536
71.3461
72.0552
71.9152
69.6988
70.3449
70.2353
70.431
69.6061
70.5738
70.0781
72.1459
72.2131
70.7697
71.1817
71.2163
72.3145
72.1353
70.0848
70.0438
70.1246
70.0531
73.7533
68.6524
78.247
78.4414
78.448
70.8572
71.0452
71.0126
76.6906
69.9333
68.738
67.8449
66.9608
68.0985
66.9745
71.1212
68.3622
72.0901
70.6427
72.5709
68.3098
68.1652
68.3798
69.2662
67.9806
67.709
67.0475
66.6866
67.9692
66.7029
67.733
67.7192
67.9958
68.1375
68.4422
68.6425
68.7905
68.4412
68.705
71.8312
68.9119
69.3711
68.5543
67.4776
67.3249
68.4363
68.0879
68.9513
68.1835
68.7828
68.4311
69.0085
68.8224
68.712
68.7566
68.5111
68.7594
68.4804
68.7271
67.8781
68.6579
67.458
67.3259
67.8916
68.6915
69.1229
68.3543
68.5283
68.953
68.9268
68.6455
68.7763
68.6956
68.6735
68.5733
68.7696
68.6588
68.7386
68.8764
68.1137
68.5487
69.2158
69.0211
68.2633
68.0798
68.5505
68.4954
69.6269
69.156
69.4456
68.6152
69.2151
68.7698
68.8964
68.2581
69.6689
69.0297
68.6762
68.6649
68.7236
69.5862
69.0398
70.1707
70.2666
69.517
69.4021
69.5168
69.147
69.2643
69.0899
69.0096
69.0319
68.9167
66.9615
66.8042
67.0062
66.9086
66.9213
66.813
66.7867
66.8045
66.9078
66.8638
66.8723
66.8715
66.9128
67.149
67.1214
67.4735
67.1157
66.9595
67.468
67.4174
66.8842
66.7538
67.0418
66.8616
67.8391
67.4302
67.8965
67.2785
67.4653
67.5331
67.7148
68.0762
68.6695
67.4818
68.7958
68.5297
68.7796
68.535
68.8395
67.1705
67.1469
66.968
67.0202
66.9388
66.9078
68.7823
68.5282
68.8203
67.9488
68.9121
68.3687
68.8843
68.8376
68.5565
68.7889
68.6725
68.8829
68.6669
68.8402
67.2013
67.4789
67.0561
67.0535
67.1811
68.8656
68.6304
68.4089
68.4201
68.9109
68.2965
68.4804
68.7991
68.5557
68.6576
68.6533
68.8187
68.7109
68.8182
67.6325
67.346
67.6597
68.0562
68.0454
67.4819
67.4329
67.7108
67.6904
68.9144
68.5787
68.625
68.2508
68.5796
68.3674
68.3851
69.5771
69.4961
69.7511
68.7082
68.992
68.8517
68.5002
68.1013
68.9401
69.0648
68.5708
68.6268
68.7458
68.9462
68.9078
68.7138
68.6616
68.6907
68.5757
66.7386
66.6857
66.7968
66.7349
66.7824
66.7412
66.6886
66.735
66.8446
66.9478
66.7926
66.8041
66.8911
67.0696
66.9694
66.7983
66.6574
66.7147
66.7257
66.5815
66.6775
66.6775
66.6139
66.5558
67.2367
67.3441
67.4332
67.0066
67.2075
67.136
67.224
67.1978
66.9828
66.8128
66.7971
66.807
66.6874
66.6895
66.7036
69.7883
68.1225
69.0297
67.0693
69.3493
67.5519
68.5105
68.9841
68.6263
68.9031
68.8545
68.9746
68.6531
68.8526
66.9076
66.9537
66.7858
66.7805
66.7408
68.8252
68.1599
69.1515
67.6109
68.17
67.3344
68.5968
68.8932
68.8147
68.8735
68.6857
68.9064
68.8412
68.8916
67.1348
66.9583
67.2895
67.4567
67.433
67.1493
67.1246
67.2368
67.1677
68.1947
68.0755
68.0781
67.728
67.756
67.7751
67.7209
67.3126
67.8062
67.5591
68.3122
68.4055
67.9429
67.9638
68.0098
68.2042
68.2994
67.8278
67.7984
67.8678
67.8255
66.6551
66.6205
66.6963
66.6583
66.6964
66.6579
66.6358
66.6545
66.7546
66.8234
66.6945
66.6926
66.7442
66.8613
66.7567
66.6728
66.6563
66.6498
66.6325
66.584
66.644
66.6155
66.6389
66.5834
67.0796
66.9137
67.0287
66.7757
66.8353
66.7197
66.7997
66.7679
66.6855
66.6678
66.6398
66.6456
66.6333
66.6191
66.6051
67.0663
67.7252
66.0824
66.4241
64.7407
66.6888
66.6242
66.6523
66.638
66.5904
67.5338
66.7578
66.2496
65.0306
66.567
66.8085
66.7125
66.9908
66.9947
66.9798
66.8287
66.8839
66.8322
66.8643
67.3526
67.516
67.3966
67.251
67.1031
67.2633
67.1598
66.8856
67.3663
67.1949
67.6482
67.6445
67.4247
67.4052
67.4044
67.5513
67.5379
67.3145
67.3708
67.3335
67.3359
66.597
66.5648
66.613
66.6048
66.6094
66.5793
66.5649
66.5656
66.6228
66.6542
66.5653
66.5493
66.5569
66.6533
66.5536
66.6215
66.6002
66.5917
66.6331
66.579
66.6102
66.5755
66.6212
66.5695
66.63
66.5765
66.6022
66.5527
66.503
66.4459
66.4391
66.5308
66.3309
66.6121
66.616
66.5955
66.6008
66.6141
66.5981
66.2522
65.5683
66.1563
66.2622
66.211
66.6288
66.5891
66.6456
66.6332
66.6285
65.9056
66.5246
66.3963
66.396
66.513
66.6796
66.6816
66.7598
66.7772
66.7591
66.7259
66.7325
66.7577
66.6941
66.9315
67.0228
66.9791
66.9239
66.7961
66.8813
66.8472
66.7487
67.0243
66.9155
67.16
67.2278
67.029
67.0256
67.0602
67.1711
67.1812
67.0039
66.9518
66.962
66.9052
66.5371
66.5145
66.5332
66.5255
66.5188
66.4942
66.4987
66.4775
66.4795
66.4674
66.4477
66.4278
66.3984
66.461
66.374
66.5874
66.5779
66.5554
66.5915
66.5554
66.5611
66.5312
66.5625
66.5357
66.3851
66.3541
66.3109
66.3305
66.29
66.2825
66.2108
66.2128
66.1353
66.5939
66.6054
66.5977
66.5925
66.6174
66.6105
66.2217
66.3289
65.9247
66.1538
66.2586
66.6507
66.6905
66.6739
66.6813
66.7542
66.4062
66.4921
66.4049
66.3848
66.4619
66.7631
66.8667
66.7705
66.7527
66.667
66.7535
66.7862
66.7385
66.6298
66.6962
66.7967
66.752
66.6972
66.6271
66.7054
66.6775
66.573
66.8788
66.8415
66.9371
66.9238
66.9003
66.8207
66.8141
66.7584
66.781
66.6821
66.6853
66.7162
66.7396
66.4955
66.4786
66.4706
66.4715
66.4487
66.4478
66.4454
66.4259
66.3817
66.3413
66.3722
66.3484
66.2991
66.3095
66.2631
66.5681
66.5624
66.5071
66.5429
66.5236
66.5168
66.4862
66.5347
66.5122
66.2138
66.207
66.1198
66.2109
66.1439
66.1567
66.0396
66.0735
66.0253
66.595
66.6298
66.6252
66.5963
66.6326
66.624
66.151
66.218
66.0261
66.1646
66.2007
66.6923
66.7802
66.6803
66.6835
66.7424
66.3744
66.4321
66.3729
66.3691
66.3938
66.8916
66.7937
66.7451
66.7165
66.5936
66.7191
66.7006
66.6908
66.5765
66.5848
66.6172
66.617
66.4877
66.5451
66.5584
66.557
66.5153
66.7817
66.7285
66.7561
66.7815
66.8075
66.7592
66.7829
66.6594
66.686
66.6753
66.6271
66.6753
66.5808
66.4625
66.4424
66.4331
66.4272
66.414
66.4322
66.4115
66.4087
66.3312
66.2811
66.3467
66.3238
66.2783
66.2369
66.236
66.5533
66.5397
66.4707
66.5257
66.4963
66.4834
66.4567
66.5135
66.4763
66.1199
66.137
66.0139
66.1816
66.1319
66.1337
66.0535
66.0241
66.0818
66.5907
66.6235
66.6161
66.5722
66.6052
66.5987
66.1484
66.193
66.1542
66.16
66.2415
66.6627
66.6845
66.6297
66.6298
66.6247
66.3527
66.3398
66.321
66.3441
66.3118
66.6933
66.62
66.6425
66.584
66.5388
66.6471
66.6146
66.5368
66.5129
66.4861
66.5234
66.5147
66.4483
66.4482
66.5068
66.4953
66.4384
66.6828
66.6519
66.753
66.7691
66.7723
66.676
66.6698
66.5953
66.6623
66.5976
66.5675
66.6255
66.5395
66.4285
66.42
66.429
66.3968
66.4086
66.4063
66.3895
66.4064
66.3229
66.2909
66.3361
66.3299
66.3081
66.2514
66.2672
66.5223
66.5064
66.4451
66.4982
66.4587
66.4507
66.4352
66.4816
66.4466
66.1678
66.154
66.1212
66.2118
66.206
66.1797
66.1933
66.1334
66.2093
66.555
66.5832
66.5764
66.5407
66.5613
66.5562
66.1916
66.2833
66.2248
66.2113
66.274
66.5928
66.5728
66.5736
66.5702
66.5258
66.331
66.3142
66.2028
66.2637
66.3247
66.5552
66.4901
66.6034
66.5359
66.4975
66.5175
66.5743
66.5251
66.477
66.4298
66.5184
66.4989
66.4406
66.4334
66.5264
66.5075
66.3409
66.6103
66.5399
66.6014
66.6169
66.6031
66.566
66.5952
66.5515
66.5955
66.5431
66.5677
66.5528
66.5491
66.4098
66.3975
66.4024
66.3897
66.4008
66.4055
66.3836
66.3982
66.3402
66.3205
66.3567
66.3464
66.3376
66.2841
66.3022
66.4888
66.4757
66.4222
66.4625
66.4332
66.4308
66.4067
66.4485
66.4196
66.2409
66.1967
66.241
66.2554
66.2638
66.2168
66.2561
66.2552
66.2582
66.5258
66.5454
66.5393
66.5133
66.5365
66.5303
66.23
66.2539
66.218
66.2646
66.2603
66.5509
66.4799
66.547
66.5406
66.4579
66.1988
66.3497
66.2202
66.2173
66.3456
66.4202
66.3825
66.5315
66.4895
66.4739
66.3749
66.5201
66.4657
66.4886
66.4553
66.5247
66.5204
66.4456
66.4659
66.5302
66.5278
66.3734
66.5208
66.5406
66.5357
66.5806
66.6042
66.5376
66.5802
66.5882
66.5229
66.5299
66.5737
66.5419
66.552
66.3875
66.3801
66.4093
66.3691
66.3994
66.3999
66.3688
66.4011
66.3584
66.3566
66.3797
66.377
66.3802
66.3229
66.3452
66.4667
66.4572
66.3948
66.4411
66.3978
66.4244
66.3818
66.4344
66.3771
66.2854
66.2456
66.263
66.3085
66.305
66.2692
66.2743
66.2568
66.2672
66.5064
66.5367
66.5272
66.499
66.5371
66.5248
66.2885
66.2785
66.2335
66.2922
66.2964
66.5555
66.4803
66.5812
66.5813
66.526
66.2627
66.3375
66.3151
66.3084
66.3673
66.4463
66.5776
66.5849
66.4981
66.503
66.5483
66.7024
66.5549
66.5618
66.4648
66.5436
66.5337
66.4738
66.4735
66.5477
66.5384
66.413
66.5728
66.6201
66.5554
66.5961
66.6492
66.6066
66.6255
66.5705
66.5789
66.5839
66.582
66.5978
66.5633
66.3767
66.3794
66.3933
66.3765
66.4005
66.4065
66.3839
66.4032
66.3961
66.4051
66.421
66.4137
66.4264
66.3678
66.3873
66.4489
66.443
66.3736
66.4238
66.3642
66.4175
66.3702
66.4201
66.3543
66.3284
66.2914
66.2887
66.3575
66.3574
66.3203
66.3087
66.2701
66.2865
66.4953
66.5359
66.5253
66.4939
66.5377
66.5299
66.2916
66.315
66.279
66.3231
66.3485
66.6035
66.5811
66.6208
66.6271
66.6444
66.3511
66.4084
66.3981
66.39
66.4338
66.6801
66.7883
66.7464
66.6391
66.62
66.6867
66.6967
66.7009
66.5875
66.5008
66.559
66.5509
66.4605
66.5218
66.5733
66.5696
66.442
66.662
66.6657
66.642
66.6601
66.7359
66.6558
66.6775
66.5802
66.5974
66.6104
66.5894
66.6178
66.5807
66.3846
66.3918
66.4174
66.3926
66.4116
66.412
66.4014
66.4188
66.4326
66.442
66.4516
66.4434
66.4552
66.4065
66.4241
66.4404
66.4396
66.3715
66.419
66.3478
66.4199
66.3787
66.4225
66.3451
66.3847
66.3523
66.3371
66.4044
66.4009
66.3791
66.3747
66.3359
66.3879
66.493
66.54
66.5335
66.492
66.5356
66.5291
66.3839
66.3902
66.3912
66.4438
66.4202
66.6488
66.7133
66.6405
66.653
66.7443
66.4215
66.4576
66.4438
66.4376
66.4786
66.9193
66.9407
66.6545
66.8181
66.5257
67.0455
66.7058
66.997
66.686
66.5315
66.5709
66.5772
66.4845
66.5481
66.5758
66.5915
66.5035
66.6877
66.7624
66.6605
66.6898
66.7018
66.6471
66.6997
66.5979
66.6282
66.6103
66.607
66.6336
66.5878
66.4024
66.4131
66.4268
66.4118
66.4285
66.4389
66.4229
66.4374
66.4536
66.4634
66.469
66.4659
66.4761
66.4392
66.4518
66.4416
66.4406
66.3889
66.4261
66.3511
66.4321
66.399
66.4275
66.3626
66.4241
66.3988
66.403
66.4368
66.444
66.4138
66.42
66.4124
66.4157
66.4844
66.5231
66.5176
66.4708
66.5033
66.4994
66.4537
66.43
66.411
66.4222
66.3993
66.6317
66.7311
66.5786
66.5925
66.6822
66.4406
66.4797
66.4285
66.4293
66.4539
66.9074
66.8242
66.7191
67.3362
67.0382
66.9988
66.6659
67.3673
67.1468
66.5464
66.5778
66.6077
66.4821
66.5225
66.5557
66.5887
66.4753
66.8709
66.8657
66.6347
66.6965
66.5806
66.645
66.6823
66.6081
66.6294
66.5898
66.5938
66.6081
66.589
66.4232
66.4315
66.4449
66.4324
66.4445
66.4523
66.4409