/*--------------------------------*- C++ -*----------------------------------*\
| =========                 |                                                 |
| \\      /  F ield         | OpenFOAM: The Open Source CFD Toolbox           |
|  \\    /   O peration     | Version:  5.x                                   |
|   \\  /    A nd           | Web:      www.OpenFOAM.org                      |
|    \\/     M anipulation  |                                                 |
\*---------------------------------------------------------------------------*/
FoamFile
{
    version     2.0;
    format      ascii;
    class       surfaceScalarField;
    location    "4";
    object      phi;
}
// * * * * * * * * * * * * * * * * * * * * * * * * * * * * * * * * * * * * * //

dimensions      [0 3 -1 0 0 0 0];

internalField   nonuniform List<scalar> 
29271
(
-7.91784e-06
2.74048e-06
2.46479e-06
2.87769e-06
-1.58274e-05
-1.22223e-06
1.36639e-06
1.5834e-05
-4.56668e-05
-4.14966e-06
1.36353e-07
4.19415e-06
1.13626e-05
3.41234e-05
-6.34373e-05
-5.83981e-06
1.69784e-06
-1.61371e-05
1.69556e-05
6.67609e-05
-4.19685e-05
-1.59443e-06
-1.8223e-06
1.0405e-05
2.12822e-05
1.3698e-05
-6.33511e-05
-1.79001e-05
-1.47879e-05
5.63334e-06
2.55439e-05
6.48618e-05
-5.00473e-05
-2.60555e-05
-8.05585e-06
4.12495e-06
2.11058e-05
5.89279e-05
-3.96501e-05
-1.6778e-05
4.37754e-06
-3.70934e-06
2.22107e-05
3.35492e-05
-6.41985e-05
-2.36824e-05
-2.57794e-07
-1.36219e-06
2.87559e-05
6.0745e-05
-4.73457e-05
-1.17004e-05
2.23005e-05
3.90787e-05
-2.31969e-06
-6.73886e-06
-6.94573e-07
5.86204e-06
1.63533e-06
-6.93509e-05
-1.85674e-05
-1.11384e-05
1.14644e-05
1.4821e-06
8.61101e-05
-4.21408e-05
-1.35831e-05
-7.95328e-06
5.60603e-06
9.16948e-06
4.89016e-05
-6.28024e-05
-2.05747e-05
1.36674e-06
-1.1116e-05
1.40963e-05
7.90301e-05
-5.47564e-05
-7.33783e-06
1.50219e-05
-8.92843e-06
1.38936e-06
5.46114e-05
-4.01968e-05
1.6733e-06
-2.37222e-06
-1.50181e-06
3.8178e-05
4.21953e-06
-4.38101e-05
-2.52175e-06
9.72097e-06
4.25523e-07
3.45639e-05
1.62152e-06
-6.22221e-05
-1.5293e-05
-2.65741e-06
5.72869e-06
-1.98426e-06
7.6428e-05
-5.95311e-05
-5.81759e-06
2.75195e-06
-1.41742e-05
1.30722e-06
7.54638e-05
-5.93504e-05
-9.52086e-06
-1.43285e-06
4.9205e-05
-1.83189e-06
2.2931e-05
-1.33753e-05
-1.62455e-06
3.42182e-06
1.17681e-05
-3.13182e-05
-2.52041e-06
7.69097e-06
2.30845e-05
3.11658e-06
-7.11437e-05
-2.3091e-08
-1.58607e-05
5.47498e-06
8.33077e-05
-1.75524e-06
-6.0263e-06
7.80035e-07
4.31186e-06
9.90296e-07
-8.83854e-07
-2.40266e-06
3.18485e-06
1.0155e-07
-2.04348e-05
-5.09367e-06
1.07026e-05
1.47312e-05
-2.16088e-06
-2.33108e-06
-2.23905e-05
2.58061e-06
5.42217e-06
1.88796e-05
1.8231e-06
-5.90855e-05
-2.72225e-06
1.55554e-06
3.46541e-06
5.49637e-05
-1.94551e-05
-4.90169e-06
1.02619e-06
2.13009e-06
2.27234e-05
-1.52299e-06
-1.07771e-05
-1.71611e-06
-6.44785e-05
5.84951e-06
1.2968e-05
5.81541e-05
-1.77601e-05
2.87587e-05
0.000275125
-5.89593e-05
-5.28615e-05
-6.09756e-05
-8.28028e-05
-5.54643e-06
-5.59777e-06
-5.51397e-06
-4.27173e-06
-3.71751e-07
-2.85315e-06
-1.51889e-06
-4.85132e-06
8.26106e-06
3.2082e-05
0.000147008
-2.76462e-05
-2.4749e-05
-6.02297e-05
-6.82803e-05
-1.17778e-05
-7.15648e-06
-3.97258e-06
-1.2995e-06
2.99524e-06
1.6056e-05
0.000277664
-2.86999e-06
-2.96599e-06
-1.54425e-06
-1.52396e-06
2.72972e-06
1.13954e-05
5.56936e-06
-5.20801e-05
-4.015e-05
-0.000101176
-0.000105839
-3.55324e-05
2.56939e-07
-3.53555e-06
4.18011e-05
-4.1032e-07
3.41159e-07
-2.48181e-07
3.3222e-07
-6.68423e-06
-9.30141e-05
-6.98151e-06
2.04887e-05
6.88273e-07
8.55028e-05
-2.19923e-05
-5.67403e-06
0.000468794
-6.71288e-05
-9.8887e-05
-9.64034e-05
-9.295e-05
-1.27085e-05
-1.9759e-05
-1.27821e-05
-1.17503e-05
-1.19299e-05
3.09993e-05
0.000320568
-8.47138e-05
-7.30043e-05
-9.059e-05
-8.12392e-05
3.97933e-06
3.832e-06
0.00010035
3.23129e-06
6.10843e-06
3.58702e-06
1.05464e-05
5.08545e-06
1.53942e-05
-5.24087e-05
-3.82884e-05
-3.93626e-05
-1.79281e-05
-4.61167e-05
-5.80784e-06
-3.91694e-08
5.58335e-06
5.03597e-05
-2.41133e-05
-1.91672e-06
2.72315e-06
3.59556e-06
1.9207e-05
5.04261e-07
2.0891e-05
2.1296e-06
0.000274965
-5.61585e-06
-3.12237e-06
-6.45533e-07
-1.00825e-06
-1.86484e-06
7.39769e-06
5.74939e-07
-8.30084e-05
-7.86923e-05
-5.98012e-05
-7.78732e-05
2.99188e-06
-5.82293e-07
0.000334134
6.84392e-06
5.44491e-06
1.252e-05
7.79385e-07
-3.8771e-06
-3.27852e-08
-8.76213e-05
-8.12733e-05
-8.463e-05
-5.28074e-05
-3.1554e-05
5.67638e-06
6.17566e-06
2.65258e-05
-1.42698e-05
-5.92588e-06
6.03064e-06
1.41166e-05
-2.91721e-05
-1.89304e-06
-4.18592e-06
3.73879e-05
-8.71614e-05
-1.15446e-06
1.10535e-05
-4.39665e-06
8.10767e-05
-1.69333e-06
2.34999e-06
-6.1177e-06
5.337e-06
-3.66925e-07
-3.38268e-06
3.5161e-06
2.1317e-07
-8.22513e-06
1.84744e-06
2.37137e-06
3.8306e-06
-1.62379e-06
-5.38927e-07
-1.68375e-05
5.76663e-07
3.25193e-06
1.51716e-05
-8.16634e-06
-6.07412e-05
-5.86571e-06
1.13247e-05
2.01265e-06
6.14359e-05
-2.49496e-05
-6.50816e-06
4.65256e-06
4.58588e-06
2.71439e-05
-4.9245e-06
1.12864e-06
-9.51998e-07
-4.91983e-05
7.2099e-06
-1.41229e-06
4.3224e-05
4.13875e-06
7.7738e-06
0.000298519
-1.55304e-06
-3.2586e-06
3.53047e-07
-9.8788e-07
-4.68225e-06
-1.19538e-05
-3.47701e-06
-9.74641e-06
1.49791e-05
1.09573e-05
0.000127193
-2.21036e-06
-2.3867e-07
-3.96707e-07
8.6358e-07
1.06861e-05
1.30931e-05
0.000243385
-1.74603e-06
-1.53344e-06
-6.52456e-07
-3.31212e-07
7.00765e-06
1.33051e-05
9.42897e-06
-5.3999e-05
1.0457e-06
4.96999e-08
6.35855e-05
-1.99727e-07
4.29962e-07
-2.87374e-07
3.99048e-08
-4.04706e-06
-7.37372e-05
-1.59549e-06
1.18985e-05
3.13479e-06
6.43465e-05
-7.58719e-06
1.04746e-05
0.000503419
-1.2817e-05
-8.61481e-06
-6.97621e-06
-1.33024e-06
8.45799e-06
4.54003e-05
0.000270079
4.01001e-06
4.90972e-06
6.67565e-05
2.17583e-06
4.10587e-06
4.08755e-06
1.17842e-05
1.18919e-05
1.21794e-05
-5.17369e-05
-1.95419e-06
3.88156e-06
3.73878e-06
5.00808e-05
-2.05631e-05
-3.75151e-06
3.33424e-06
2.43709e-06
2.00333e-05
-1.49e-06
2.53883e-05
1.29184e-06
0.000256243
-1.97057e-06
-1.5615e-06
1.77286e-06
-2.36699e-07
3.1874e-07
1.33349e-06
2.85982e-06
5.31546e-06
-4.30241e-06
0.000362357
9.94339e-06
1.24513e-05
1.38004e-05
1.98116e-08
1.01647e-06
4.32186e-06
-3.07625e-05
-2.24535e-06
1.68975e-06
4.15433e-05
-1.37375e-05
-4.21347e-06
4.13937e-06
1.36429e-05
-5.05587e-05
2.04767e-06
-2.96226e-06
5.27682e-05
-6.65363e-05
-1.71243e-06
1.44583e-05
1.38038e-07
4.935e-05
-1.37191e-05
2.48068e-06
-1.19245e-05
2.31019e-05
2.32618e-07
-7.84115e-07
8.83267e-07
-3.68101e-07
-2.29104e-06
-8.22274e-07
9.04526e-07
2.03696e-06
9.28255e-07
-4.62823e-08
-1.29022e-05
2.28892e-06
-4.2921e-07
1.01606e-05
-6.76571e-06
-5.52805e-05
-6.88698e-06
1.37082e-05
7.97331e-06
4.72517e-05
-3.05381e-05
-4.01997e-06
5.38311e-06
6.43436e-06
3.47677e-05
-1.20271e-05
2.22733e-06
3.48e-06
-4.15919e-05
-3.07986e-06
-4.3214e-06
4.32858e-05
3.57646e-05
3.43799e-05
0.000241044
2.93867e-07
-8.05602e-07
2.92143e-06
4.35671e-06
-4.32148e-06
-1.20112e-05
1.21774e-06
-4.32141e-06
3.62966e-05
1.17115e-05
0.000118915
-2.79278e-06
-3.50467e-06
1.58527e-06
7.46364e-07
1.25663e-05
2.2698e-05
0.000218118
-4.13061e-06
-2.03605e-06
-1.44425e-06
-1.72947e-06
1.08391e-05
1.40854e-05
1.07158e-05
-7.14815e-05
-1.17719e-06
6.66394e-06
7.85542e-05
1.44598e-08
-2.92664e-07
1.62144e-07
1.04029e-07
-1.91905e-06
-5.57947e-05
-3.47345e-06
6.40481e-06
1.18213e-05
4.29611e-05
1.17242e-05
6.38748e-05
0.000477307
-8.36992e-06
-4.71427e-06
-5.08902e-06
3.06591e-06
3.13016e-05
7.68372e-05
0.000185376
-1.14638e-07
6.73301e-06
8.03766e-05
2.30008e-06
3.88192e-07
3.64176e-06
8.94455e-06
9.32067e-06
9.16584e-06
-5.0183e-05
-9.33286e-06
-4.38305e-06
1.23934e-05
5.13908e-05
-2.63568e-05
2.45051e-06
-2.26721e-06
3.13815e-06
3.50597e-05
-1.20244e-05
2.53296e-05
2.27509e-06
0.000291299
-6.08629e-06
-3.15696e-06
5.082e-08
-9.22057e-07
3.16899e-06
3.90869e-06
4.25073e-06
7.25519e-06
7.49492e-06
0.000388284
9.67293e-06
1.22391e-05
1.12295e-05
8.39545e-06
9.03842e-06
1.09141e-05
-5.9936e-05
1.44036e-06
2.82079e-06
6.9663e-05
-1.71638e-05
-6.0554e-06
-2.05942e-07
2.33017e-05
-4.60958e-05
-1.12901e-06
7.44574e-06
4.17707e-05
-4.13393e-05
-6.13887e-06
6.63467e-06
-2.34172e-06
5.06802e-05
-3.34248e-05
-4.84458e-07
-6.25663e-06
4.01555e-05
3.61207e-07
-5.92041e-07
5.46755e-07
-3.48459e-07
-2.09033e-06
-7.14179e-07
1.37762e-06
1.32379e-06
1.36622e-06
5.835e-07
-8.64918e-06
1.81085e-06
-7.55473e-06
1.24433e-05
-4.61956e-06
-4.41551e-05
-8.99652e-06
1.46589e-05
1.90324e-06
4.1209e-05
-4.18448e-05
-2.10555e-06
6.42746e-06
4.52495e-06
4.63267e-05
-1.33288e-05
5.74421e-08
9.43876e-06
-5.0236e-05
-1.70665e-05
-2.03421e-06
5.98405e-05
2.23135e-05
5.19805e-05
0.000143294
5.535e-06
3.49502e-06
2.29219e-06
3.81032e-06
4.04257e-06
2.98184e-07
1.4265e-06
2.55677e-06
3.00234e-05
1.13941e-05
0.00010384
-1.38342e-06
-3.75568e-06
9.10627e-07
1.9929e-07
1.2612e-05
2.97341e-05
0.0001993
-7.1317e-06
-6.41278e-06
-6.13432e-06
-6.76889e-06
8.28833e-06
1.50307e-05
9.62417e-06
-8.56914e-05
-5.7253e-06
1.20174e-05
9.20031e-05
-4.41112e-07
-1.40249e-06
6.57506e-07
1.11297e-06
6.40208e-06
-2.99939e-05
-3.771e-06
-3.89719e-06
1.17648e-05
1.94952e-05
2.04541e-05
0.000101194
0.000411246
-8.49565e-06
1.62682e-06
1.44278e-06
1.81889e-06
1.57586e-05
3.81018e-05
0.000163364
-1.5916e-06
3.07198e-06
0.000110332
8.16431e-07
-2.23169e-07
2.13199e-06
4.58746e-06
3.11719e-06
3.62675e-06
-5.33677e-05
-1.09685e-05
-1.01528e-05
1.49882e-05
5.79092e-05
-4.24046e-05
6.70536e-06
-1.03541e-05
6.68425e-06
5.03698e-05
-1.10008e-05
1.9636e-05
8.35483e-06
0.000335519
-7.83874e-07
-5.30186e-07
6.0056e-07
8.43691e-07
8.37334e-06
9.64716e-06
1.08328e-05
6.70247e-06
6.89571e-06
0.000378616
8.4174e-06
1.16011e-05
9.16927e-06
8.38066e-06
8.32652e-06
7.91264e-06
-8.19466e-05
5.47911e-06
1.08443e-06
8.51575e-05
-3.28619e-05
-7.54666e-06
-8.95101e-07
4.12982e-05
-4.40829e-05
-1.55416e-06
2.89788e-06
5.10829e-05
-6.20896e-05
-1.02236e-07
-4.98518e-07
-8.29071e-07
7.04152e-05
-4.49838e-05
1.80612e-06
-4.37587e-06
4.75423e-05
3.36998e-07
-3.89977e-07
2.32045e-07
-2.24074e-07
-7.38532e-07
-2.1948e-06
1.71054e-06
1.241e-06
6.90571e-07
2.95951e-06
-1.5798e-05
7.08431e-07
-1.11433e-06
1.25539e-05
-2.2278e-06
-3.93636e-05
-8.97579e-06
1.33913e-05
2.9481e-06
3.42277e-05
-4.94866e-05
-6.87453e-07
1.18585e-05
9.09818e-06
4.59016e-05
-1.66842e-05
-1.14159e-06
9.56239e-06
-5.96499e-05
-6.75741e-06
1.63524e-06
5.63512e-05
1.13642e-05
3.11504e-05
0.000100994
-1.29186e-07
-7.11404e-07
-2.73653e-07
-1.03791e-07
7.43188e-08
-1.75799e-07
5.32142e-07
5.72397e-07
1.73755e-05
2.16218e-05
0.000112036
-1.06317e-05
-1.11083e-05
-5.10124e-06
-8.98776e-06
9.99068e-06
3.1682e-05
0.000192638
-1.41563e-05
-7.31839e-06
-1.08118e-05
-5.94535e-06
6.80896e-06
7.98626e-06
5.80054e-06
-9.64757e-05
-1.04051e-05
1.34281e-05
6.31005e-06
9.71334e-05
-1.70958e-07
-2.86087e-09
3.65513e-08
1.31676e-07
-2.01788e-06
-3.8441e-06
2.38925e-06
3.42978e-06
3.03498e-06
-1.9615e-05
-5.97351e-06
-5.78457e-06
8.63438e-06
1.97037e-05
3.58079e-05
8.01493e-05
0.000321716
-9.5252e-07
3.23502e-07
7.21831e-07
4.63073e-06
2.66401e-06
2.3243e-05
0.000194887
-6.21157e-06
-1.08084e-06
0.000167653
-4.09463e-06
-7.56651e-06
-5.74927e-06
2.39154e-06
4.60697e-07
-1.12465e-06
-6.58381e-05
-1.42327e-05
-3.47561e-06
2.36071e-05
5.37278e-05
-4.51579e-08
-3.92708e-07
5.38274e-09
1.24575e-08
4.01673e-07
-5.86571e-05
-2.42646e-06
1.28248e-07
5.90147e-06
6.61946e-05
-1.11408e-05
1.70867e-05
9.02595e-06
0.000362223
-1.39215e-06
-1.28399e-06
7.27055e-08
-7.86409e-07
9.25221e-06
1.05897e-05
1.08807e-05
6.06324e-06
4.97673e-06
0.000369818
7.48501e-06
7.65105e-06
7.10647e-06
5.4824e-06
5.1166e-06
5.24572e-06
-9.28733e-05
6.09541e-06
-3.13319e-06
9.48935e-05
-5.65069e-05
-2.89656e-06
-2.67856e-06
6.20818e-05
-5.84717e-05
2.93441e-06
-7.5501e-07
6.53202e-05
-7.8384e-05
1.31817e-06
-1.02217e-06
9.2697e-07
8.21378e-05
-4.79036e-05
2.60307e-06
-2.80506e-06
4.80551e-05
5.47622e-08
-1.98728e-07
4.23858e-08
4.35544e-08
-2.93301e-06
-3.27375e-06
3.37572e-07
5.85714e-06
4.9465e-07
2.65371e-06
-7.519e-06
-1.68626e-07
7.69058e-07
3.77021e-06
2.37547e-07
-2.43255e-05
-4.39554e-07
4.08728e-06
3.15425e-06
1.7286e-05
-4.06557e-05
-7.22629e-07
1.24943e-05
5.02503e-06
3.41533e-05
-1.02943e-05
-3.30977e-06
-5.94976e-07
-5.32457e-05
1.54326e-06
6.62505e-06
4.89822e-05
8.24238e-06
2.26891e-05
8.47838e-05
-7.8233e-07
-1.06376e-06
-5.41594e-07
-2.3843e-06
-7.79611e-07
-2.00023e-06
-2.99158e-06
-4.17766e-06
5.14392e-06
1.28495e-05
0.000129137
-3.0296e-06
-8.86954e-06
-5.80572e-06
-9.14684e-06
7.92238e-06
1.82667e-05
0.000186561
-8.5108e-06
-5.76454e-06
-8.19104e-06
-7.25203e-06
4.9789e-06
5.40374e-06
4.36845e-06
-9.88799e-05
3.47802e-06
1.83092e-05
1.07166e-05
7.42984e-05
-3.05612e-07
-4.08649e-07
5.14231e-06
-7.69574e-06
2.43415e-06
8.33547e-07
-5.93048e-06
-5.12057e-06
3.448e-06
7.59594e-06
-3.30118e-06
-2.24585e-05
-7.37101e-06
4.38778e-06
6.15846e-06
2.25844e-05
1.35225e-05
4.97241e-05
0.000299472
-4.32395e-06
-5.6184e-07
-8.43209e-06
-4.99623e-06
-7.54401e-06
2.26287e-05
0.000206174
-7.34026e-06
-3.35357e-06
0.000209242
-6.56579e-06
-5.40332e-06
-5.60763e-06
-1.45564e-06
-1.28661e-07
-1.01093e-06
-5.59677e-05
-1.24433e-05
-5.42346e-06
9.64491e-06
5.68492e-05
1.60497e-06
-4.16876e-06
2.54911e-06
-2.70084e-06
3.67047e-06
-9.54958e-07
-7.21657e-05
-4.33834e-06
3.40254e-06
4.57555e-06
7.47644e-05
-6.23849e-06
1.48578e-05
8.09646e-06
0.000373162
-3.59055e-06
-2.09302e-06
-2.08545e-06
-1.7426e-06
7.7674e-06
8.68738e-06
8.88818e-06
3.73192e-06
3.00903e-06
0.000374387
5.67818e-06
5.18045e-06
5.28521e-06
3.85132e-06
2.71651e-06
3.4653e-06
-0.000100082
4.01245e-06
-2.94461e-06
9.93921e-05
-5.73534e-05
-2.06222e-05
-2.73023e-06
8.97102e-06
7.17374e-05
-1.28028e-06
1.61885e-06
-1.16182e-06
8.23254e-07
-7.17245e-05
4.78009e-06
-5.5965e-07
7.55987e-05
-8.61373e-05
-1.03415e-06
1.09401e-06
-8.49654e-07
8.99361e-05
-4.89702e-05
1.65438e-06
-2.45427e-06
4.97673e-05
-2.86099e-08
-3.75643e-07
2.05626e-07
1.39768e-07
-6.84241e-06
1.30535e-06
-1.58774e-06
7.10793e-06
4.4853e-07
4.3177e-07
-1.89175e-06
1.50789e-07
-3.96941e-07
1.2576e-06
-2.97938e-07
-1.03702e-05
-9.43972e-07
3.68852e-06
9.64562e-07
6.95904e-06
-3.04732e-05
3.0378e-07
4.35841e-06
3.76273e-06
2.5252e-05
-3.20376e-06
-1.99501e-06
1.11979e-06
-4.17435e-05
4.13907e-06
6.98079e-06
3.14989e-05
1.32313e-06
1.74846e-05
7.2258e-05
-8.98927e-08
4.78397e-07
2.09829e-07
1.96155e-06
-3.04997e-06
-2.38605e-06
-2.42252e-06
-9.8322e-07
5.28328e-08
5.65268e-06
0.000137591
-1.43877e-06
-8.23276e-06
2.1089e-06
-5.27434e-06
5.37185e-06
1.45239e-05
0.000186717
-8.92339e-06
-7.2303e-06
-7.04137e-06
-6.67301e-06
3.58115e-06
2.84976e-06
3.43771e-06
-7.08724e-05
-5.36027e-06
4.40335e-06
1.0007e-05
6.71942e-05
-3.72069e-06
-2.64303e-06
-4.79451e-06
2.03101e-06
6.79857e-06
2.32865e-06
-7.78368e-06
-2.82066e-06
2.83022e-06
7.7741e-06
-3.17938e-06
-1.99845e-05
-4.89245e-06
5.98199e-06
3.14611e-06
1.89282e-05
2.64743e-06
4.06307e-05
0.000299027
-7.43281e-06
-7.43207e-06
-4.56307e-06
-5.92054e-06
-1.56487e-05
1.67313e-05
0.000213392
-5.08864e-06
-4.13402e-06
0.000235038
-5.09666e-06
-3.69072e-06
-3.91177e-06
-2.16709e-06
-1.05295e-06
-1.77879e-06
-5.88593e-05
-1.13967e-05
-2.17796e-06
7.52081e-06
5.98244e-05
-4.51931e-07
-6.94786e-06
-5.64111e-07
1.83074e-06
5.14935e-06
9.83812e-07
-7.60201e-05
-3.25091e-06
3.587e-06
1.80436e-06
7.56215e-05
-1.74188e-06
1.23282e-05
7.0991e-06
0.000381564
-3.3419e-06
-2.2068e-06
-1.57948e-06
-1.1948e-06
6.48972e-06
7.43795e-06
7.19671e-06
1.26489e-06
1.57997e-06
0.000382879
4.3171e-06
3.311e-06
4.24676e-06
2.0988e-06
1.66289e-06
2.08631e-06
-0.000103527
1.16828e-06
-3.21237e-06
0.000102702
-7.50132e-05
-1.84404e-06
6.94919e-07
4.58228e-06
7.158e-05
-4.22666e-06
-2.01044e-06
-5.62987e-06
3.92878e-06
7.9382e-06
-7.8846e-05
4.90589e-06
6.20934e-07
8.04183e-05
-9.36727e-05
-1.53726e-06
2.5925e-06
-1.29141e-06
9.54888e-05
-5.09243e-05
2.23731e-06
-2.94719e-06
5.16331e-05
1.34291e-07
-2.23926e-08
-5.09089e-08
-5.85681e-08
-7.28653e-06
2.12283e-06
-2.17327e-06
7.33704e-06
2.55573e-07
-1.27826e-06
-1.99421e-06
3.0574e-07
8.4831e-08
2.62633e-06
-5.93755e-07
-7.01786e-06
1.01241e-06
-1.52928e-06
-3.72604e-07
8.50109e-06
-2.05888e-05
1.77541e-06
3.68263e-08
1.27604e-06
1.60211e-05
1.4795e-06
-8.20396e-07
6.07114e-07
-2.35242e-05
1.05562e-06
3.78876e-06
1.88931e-05
-4.17038e-06
1.40335e-06
7.00186e-05
1.2272e-06
2.04288e-06
1.42132e-06
2.3992e-06
-5.32245e-07
-7.08149e-07
-3.28055e-07
-5.15761e-07
-5.43987e-06
9.25091e-07
0.000143979
1.55192e-06
-6.00466e-06
2.37852e-06
-3.96903e-06
1.63557e-06
9.57827e-06
0.000196004
-6.33557e-06
-4.71116e-06
-3.65962e-06
-5.22056e-06
1.86704e-06
-5.89011e-06
-1.99088e-06
-7.84852e-05
3.58615e-06
3.11552e-06
6.18693e-06
6.72321e-05
2.38545e-06
-3.98853e-06
2.26824e-06
2.70359e-06
-3.36875e-06
-7.55956e-06
-1.82443e-06
2.22063e-06
7.16335e-06
-2.25099e-06
-1.90857e-05
-3.30911e-06
3.57158e-06
1.77977e-06
1.92944e-05
-1.46487e-06
3.29551e-05
0.000285239
-3.91296e-06
-6.58089e-06
-1.6488e-06
-4.15618e-06
-2.37277e-05
1.082e-05
0.00022576
-4.92421e-06
-5.05431e-06
0.000260621
-5.27728e-06
-7.00651e-06
-9.35931e-06
-1.38501e-06
-2.21325e-06
-4.51276e-06
-6.24374e-05
-9.66907e-06
-2.5909e-06
7.35396e-06
6.24192e-05
-4.78046e-06
-4.69392e-07
-2.43245e-09
3.03749e-06
-5.14071e-06
7.3555e-06
-7.55255e-05
-2.28607e-06
3.04526e-06
1.11222e-07
7.47105e-05
-5.54375e-08
8.98071e-06
6.54958e-06
0.000385757
-2.78149e-06
-9.81786e-07
-7.97769e-07
-2.25382e-07
5.47121e-06
6.64034e-06
5.90609e-06
-6.56128e-07
8.05748e-07
0.000389293
3.41366e-06
2.10712e-06
3.69519e-06
1.22218e-06
1.37389e-06
1.42534e-06
-0.000107891
-1.90072e-06
-3.7405e-06
0.000107822
-5.80389e-05
-1.02871e-05
3.11085e-06
6.52151e-05
-8.2106e-05
5.04749e-06
2.77945e-07
8.33305e-05
-9.72105e-05
-1.7133e-06
3.00336e-06
-1.64172e-06
9.83679e-05
-5.22317e-05
2.66042e-06
-2.89151e-06
5.24619e-05
-4.16554e-07
-5.05238e-07
2.98089e-07
6.23733e-07
-7.33559e-06
1.7444e-06
-1.49485e-06
7.08604e-06
9.72101e-08
-1.2245e-06
-3.2808e-06
3.62393e-07
-1.74597e-08
4.06316e-06
-3.46002e-07
-1.072e-05
3.84947e-07
-9.34627e-07
-2.66997e-07
1.18827e-05
-1.36046e-05
3.42065e-07
-1.80419e-06
1.21534e-06
1.2279e-05
1.57236e-06
-6.49768e-07
-8.04794e-07
-1.57921e-05
1.5779e-06
2.02656e-06
1.36422e-05
-1.81773e-06
-4.30911e-06
7.64519e-05
1.51656e-06
2.2996e-06
1.81294e-06
3.02469e-06
-1.39985e-06
-2.72368e-06
-1.9058e-06
-2.93091e-06
-7.46962e-06
-2.00749e-06
0.00015478
9.15648e-07
-4.16276e-06
1.86605e-06
-1.76067e-06
-6.97857e-06
8.55044e-06
0.000213131
-3.45946e-06
-4.92844e-06
-1.53797e-06
-3.72841e-06
-4.533e-06
-4.25312e-06
-3.72746e-06
-6.30581e-05
-5.63539e-06
2.96451e-06
5.87533e-05
-6.61439e-06
2.79356e-08
6.25524e-07
5.96093e-06
-2.24208e-06
-2.04683e-05
-1.54038e-06
2.85311e-06
-1.46581e-07
2.15442e-05
-4.48785e-06
2.67244e-05
0.000269638
-2.67171e-06
-4.53843e-06
-1.34286e-06
-2.3909e-06
-2.71265e-05
5.99737e-06
0.000240394
-9.0875e-06
-5.74891e-06
0.000294518
-1.16987e-05
-8.75387e-06
-8.22684e-06
-4.49424e-06
-1.81021e-06
-2.65271e-06
-8.24272e-05
-6.79102e-06
-9.75437e-06
7.22609e-06
8.2659e-05
-7.32476e-05
-4.13662e-07
1.68636e-06
-1.16972e-06
7.10095e-05
2.13516e-06
6.59839e-06
5.79339e-06
0.000385175
-1.97664e-06
-9.46184e-08
5.00175e-07
8.22484e-07
4.80458e-06
5.64979e-06
5.20874e-06
-1.70605e-06
4.11011e-07
0.000391244
3.24428e-06
2.22363e-06
3.7891e-06
9.14901e-07
9.33135e-07
8.34283e-07
-0.000113449
-3.21798e-06
-3.59302e-06
0.000112805
-6.29301e-05
4.17034e-06
5.68571e-06
5.30741e-05
-8.46517e-05
5.20617e-06
2.02069e-07
8.50359e-05
-0.000100164
-1.8857e-06
3.06027e-06
-1.76522e-06
0.000101165
-5.28661e-05
2.54677e-06
-2.88374e-06
5.31994e-05
-6.041e-07
-9.95115e-07
9.59054e-07
6.39971e-07
-6.41706e-06
3.26739e-06
-2.32285e-06
5.47083e-06
8.84528e-07
-2.54086e-06
-5.02079e-06
1.59094e-06
-9.27908e-07
6.01408e-06
-2.98116e-07
-1.29616e-05
-1.17071e-06
1.27726e-06
-3.39689e-07
1.34928e-05
-1.18062e-05
-1.21577e-06
1.21318e-06
1.49938e-06
1.09877e-05
-6.78292e-07
-1.05938e-07
-1.56782e-06
-1.20527e-05
2.58876e-06
8.53862e-07
1.02838e-05
1.59924e-06
-6.13982e-06
8.51043e-05
1.8077e-06
2.79038e-06
2.1897e-06
3.64367e-06
-3.01122e-06
-4.33003e-06
-3.20995e-06
-3.99211e-06
-4.10025e-06
-3.47855e-06
0.00016469
6.32818e-07
-1.89618e-06
1.24484e-06
-7.13234e-07
-2.32471e-06
5.44174e-06
0.000212791
-2.14691e-06
-2.85996e-06
-1.36312e-06
-2.20751e-06
5.27566e-07
-1.04614e-06
2.21811e-06
-5.48559e-05
-3.22819e-06
4.60347e-06
5.11546e-05
-5.34026e-06
1.16454e-06
-7.68592e-07
4.94431e-06
-2.01953e-06
-2.28523e-05
5.28724e-07
2.71352e-06
-2.3425e-06
2.39721e-05
-4.16857e-06
2.31789e-05
0.000254945
-2.68984e-06
-3.75199e-06
-1.70343e-06
-2.31181e-06
-2.22972e-05
2.86389e-06
0.00025218
-4.60908e-06
-5.55782e-06
0.000308377
-6.02401e-06
-2.53143e-06
-5.06087e-06
-2.7896e-06
-1.76477e-06
-2.37697e-06
-7.84761e-05
-5.90497e-06
-2.63994e-06
6.0363e-06
7.63756e-05
-6.93714e-05
1.04663e-06
-1.34229e-07
-2.59423e-06
6.74743e-05
3.57901e-06
5.95514e-06
5.10545e-06
0.00038108
-8.20563e-07
7.52823e-07
1.10407e-06
1.12245e-06
4.39708e-06
5.01356e-06
4.64419e-06
-1.38139e-06
-1.45725e-07
0.000391049
3.34258e-06
2.59092e-06
3.80854e-06
3.58032e-07
2.04702e-07
2.36171e-07
-0.000117266
-8.58608e-07
-3.47168e-06
0.000114657
-5.11131e-05
-7.19967e-07
1.56325e-06
5.02682e-05
-8.55094e-05
4.85184e-06
1.10943e-08
8.57518e-05
-0.000103016
-1.88011e-06
3.21937e-06
-2.08581e-06
0.000103617
-5.3647e-05
2.75147e-06
-2.96254e-06
5.38535e-05
-8.03384e-07
-1.40139e-06
1.32735e-06
8.76957e-07
-4.26315e-06
3.35827e-06
-2.30077e-06
3.20564e-06
1.44499e-06
-2.98971e-06
-6.9737e-06
2.23404e-06
-1.5448e-06
7.82919e-06
-6.1769e-09
-1.42733e-05
-1.69862e-06
1.45041e-06
-4.28656e-07
1.49563e-05
-9.82194e-06
-1.90056e-06
2.0861e-06
2.16238e-06
8.34244e-06
-8.68416e-07
7.97153e-07
-1.78804e-06
-8.76089e-06
2.83175e-06
-8.20293e-07
7.74032e-06
4.01591e-06
-6.71012e-06
9.18245e-05
2.21998e-06
3.55637e-06
2.49971e-06
4.25911e-06
-3.64032e-06
-4.91258e-06
-3.64311e-06
-4.36506e-06
1.47148e-07
-6.69218e-06
0.00017433
6.44064e-07
-1.11792e-06
1.48414e-06
-8.9289e-08
-2.52583e-07
2.06606e-06
0.000213452
-2.14977e-06
-1.9758e-06
-1.42095e-06
-1.9446e-06
2.38863e-06
4.59387e-07
2.31648e-06
-4.81373e-05
-2.82217e-06
4.07177e-06
4.66326e-05
-4.67692e-06
1.56636e-06
-1.23342e-06
4.34544e-06
-1.66562e-06
-2.47279e-05
2.737e-06
2.98618e-06
-4.42969e-06
2.51e-05
-1.84983e-06
2.19905e-05
0.000239758
-2.9546e-06
-4.11711e-06
-1.70086e-06
-2.89158e-06
-1.92241e-05
-1.09016e-07
0.000262971
-2.70991e-06
-5.79501e-06
0.000319391
-4.90998e-06
-2.00712e-06
-4.71295e-06
-3.18022e-06
-2.01555e-06
-2.84097e-06
-7.60155e-05
-4.74974e-06
-1.75652e-06
5.13925e-06
7.46726e-05
-6.57179e-05
3.43409e-07
-2.55598e-07
-2.67913e-06
6.40444e-05
4.26489e-06
6.68983e-06
4.74945e-06
0.000376954
-7.89364e-07
7.03685e-07
9.49423e-07
8.80258e-07
3.9636e-06
4.69194e-06
4.27783e-06
-1.18965e-06
-5.4892e-07
0.000390356
3.27109e-06
2.61622e-06
3.69017e-06
-1.48652e-07
-2.78876e-07
-1.37117e-07
-0.000118489
-4.17123e-07
-3.49518e-06
0.000115416
-4.97035e-05
-4.15868e-07
7.25353e-07
4.9394e-05
-8.60558e-05
4.28235e-06
2.2766e-07
8.62953e-05
-0.000104483
-2.26497e-06
3.5024e-06
-2.30681e-06
0.000105004
-5.41891e-05
2.74133e-06
-2.85303e-06
5.43008e-05
-9.79079e-07
-1.68574e-06
1.58651e-06
1.07627e-06
-2.46234e-06
2.52876e-06
-2.19098e-06
2.12284e-06
1.59754e-06
-2.74799e-06
-8.79569e-06
2.16437e-06
-2.04323e-06
9.82501e-06
6.09165e-07
-1.591e-05
-1.79784e-06
1.44282e-06
-1.27783e-06
1.69337e-05
-7.05479e-06
-2.71031e-06
2.76806e-06
2.21811e-06
6.15025e-06
-1.37132e-06
2.38661e-06
-1.8142e-06
-7.26269e-06
2.85969e-06
-3.2732e-06
7.1038e-06
6.43442e-06
-6.91515e-06
9.65139e-05
2.39955e-06
3.61914e-06
2.58498e-06
4.35478e-06
-3.96621e-06
-4.98361e-06
-3.8255e-06
-4.39191e-06
3.15411e-06
-1.12915e-05
0.000182995
1.45155e-06
2.10885e-07
2.47241e-06
1.7723e-06
9.92062e-07
-2.81947e-06
0.000218585
-1.73345e-06
-1.44811e-06
-9.5805e-07
-1.1719e-06
1.98677e-06
1.12912e-06
2.04339e-06
-4.62524e-05
-2.46052e-06
3.06458e-06
4.66404e-05
-4.08894e-06
1.35572e-06
-9.26557e-07
3.65977e-06
-1.41643e-06
-2.51143e-05
3.99791e-06
2.59297e-06
-4.39002e-06
2.43299e-05
2.37855e-06
2.06503e-05
0.000222379
-3.02794e-06
-4.69668e-06
-1.67737e-06
-3.16338e-06
-1.73345e-05
-2.01146e-06
0.000273404
-2.19162e-06
-6.17773e-06
0.000328402
-4.70171e-06
-1.87174e-06
-4.65309e-06
-3.79991e-06
-2.30442e-06
-3.46555e-06
-7.32385e-05
-3.46584e-06
-1.1363e-06
4.27172e-06
7.13773e-05
-6.28952e-05
-1.02286e-06
4.1544e-07
-1.71593e-06
6.16432e-05
3.5753e-06
7.38209e-06
4.52253e-06
0.000372628
-1.21948e-06
4.42522e-07
5.88056e-07
6.7279e-07
3.83155e-06
4.50298e-06
4.25291e-06
-1.10147e-06
-8.9767e-07
0.000389273
3.33284e-06
2.6664e-06
3.75857e-06
-4.51154e-07
-3.90495e-07
-4.63431e-07
-0.000118824
-3.96072e-07
-3.53297e-06
0.000115474
-4.93184e-05
-2.9878e-07
4.05142e-07
4.92121e-05
-8.63197e-05
3.92424e-06
7.04674e-07
8.6213e-05
-0.00010616
-2.48259e-06
3.83121e-06
-2.47093e-06
0.000106384
-5.42898e-05
2.84009e-06
-2.77546e-06
5.42237e-05
-1.13354e-06
-1.59785e-06
1.48565e-06
1.24351e-06
-2.23126e-06
1.80822e-06
-2.16834e-06
2.59047e-06
1.63787e-06
-2.0496e-06
-1.07814e-05
1.87921e-06
-2.30607e-06
1.162e-05
1.24262e-06
-1.79408e-05
-1.65854e-06
1.47272e-06
-2.38198e-06
1.9266e-05
-5.66519e-06
-2.56749e-06
2.16596e-06
1.51177e-06
6.03956e-06
-1.48462e-06
3.00836e-06
-1.49962e-06
-6.89448e-06
3.00331e-06
-4.03496e-06
6.41739e-06
7.75909e-06
-6.08648e-06
9.98713e-05
2.3132e-06
3.62022e-06
2.48143e-06
4.12667e-06
-4.07991e-06
-5.09043e-06
-3.9658e-06
-4.43537e-06
3.09251e-06
-1.52944e-05
0.000191757
2.38503e-06
1.8772e-06
3.64418e-06
3.29182e-06
1.10229e-06
-6.3384e-06
0.000224446
-8.67038e-07
-4.03712e-07
8.11859e-08
-9.16338e-08
1.47623e-06
1.12598e-06
1.14703e-06
-4.69562e-05
-3.03984e-07
1.69908e-06
4.66634e-05
-3.10524e-06
9.7658e-07
-5.28015e-07
2.65667e-06
-8.27854e-07
-2.30704e-05
3.49831e-06
1.55513e-06
-2.17578e-06
2.10206e-05
3.51639e-06
1.90123e-05
0.000205603
-2.71892e-06
-4.35675e-06
-1.81894e-06
-2.94371e-06
-1.56635e-05
-4.86514e-06
0.000282155
-2.19211e-06
-6.47524e-06
0.000336825
-4.4492e-06
-2.237e-06
-4.32844e-06
-4.25235e-06
-2.60798e-06
-3.88206e-06
-6.98868e-05
-2.36002e-06
-2.03451e-06
3.72057e-06
6.83687e-05
-6.05597e-05
-3.66823e-08
4.31389e-07
-1.50803e-06
5.93432e-05
2.32985e-06
1.01845e-05
4.44408e-06
0.000365893
-1.74189e-06
1.45251e-08
1.00342e-07
3.62768e-07
3.77351e-06
4.43553e-06
4.17403e-06
-1.02516e-06
-1.00063e-06
0.000388534
3.44725e-06
2.81297e-06
3.87674e-06
-7.51172e-07
-5.43955e-07
-7.57835e-07
-0.000118817
-4.39561e-07
-3.61043e-06
0.000115367
-4.91884e-05
-1.59329e-07
3.87463e-07
4.89603e-05
-8.61121e-05
3.57772e-06
8.53756e-07
8.61247e-05
-0.000107048
-2.76392e-06
4.17081e-06
-2.41259e-06
0.000107053
-5.43448e-05
2.82432e-06
-2.92621e-06
5.44467e-05
-1.30177e-06
-1.29357e-06
1.24607e-06
1.34973e-06
-3.13086e-06
1.00642e-06
-1.57342e-06
3.69785e-06
1.46084e-06
-1.48684e-06
-1.25372e-05
1.39134e-06
-2.41894e-06
1.35908e-05
1.90277e-06
-2.09266e-05
-1.34369e-06
1.42148e-06
-3.56456e-06
2.25106e-05
-6.84583e-06
-2.27997e-06
1.85585e-06
7.55481e-07
8.1713e-06
-1.65682e-06
2.53542e-06
-1.49637e-06
-5.7453e-06
2.96141e-06
-3.02139e-06
4.76622e-06
7.70808e-06
-4.45803e-06
0.000102791
2.18851e-06
3.25863e-06
2.3234e-06
3.67409e-06
-4.05169e-06
-5.04073e-06
-4.01122e-06
-4.51067e-06
1.74741e-06
-1.85038e-05
0.00020104
3.25552e-06
2.96662e-06
4.54792e-06
4.41176e-06
8.2124e-07
-8.02556e-06
0.000230689
-1.65601e-07
2.21264e-07
7.24093e-07
3.23779e-07
3.27109e-07
7.80362e-07
4.97952e-07
-4.62729e-05
4.71025e-07
8.59659e-07
4.57635e-05
-2.39253e-06
8.82404e-07
-6.08897e-07
2.11903e-06
-1.16478e-07
-1.85197e-05
2.60639e-06
1.13107e-06
-8.75036e-07
1.57738e-05
3.85411e-06
1.8633e-05
0.00018987
-3.08118e-06
-3.87137e-06
-2.18402e-06
-2.07634e-06
-1.39401e-05
-7.10967e-06
0.000288555
-2.29269e-06
-6.68944e-06
0.000345425
-4.06776e-06
-1.91631e-06
-3.8872e-06
-4.6405e-06
-2.8285e-06
-4.2432e-06
-6.74506e-05
-2.17904e-06
-2.554e-06
2.95897e-06
6.69319e-05
-5.85925e-05
4.54137e-07
-7.42295e-08
-1.29789e-06
5.81565e-05
1.35396e-06
1.08306e-05
4.37958e-06
0.00035795
-1.90762e-06
9.86539e-08
4.37125e-08
3.62585e-07
3.90742e-06
4.41226e-06
4.44861e-06
-8.4525e-07
-1.14345e-06
0.000386527
3.50408e-06
3.0475e-06
3.98047e-06
-9.82574e-07
-7.85407e-07
-1.04739e-06
-0.000118538
-2.95244e-07
-3.64597e-06
0.000114944
-4.8791e-05
-3.26241e-08
2.18541e-07
4.86093e-05
-8.59533e-05
3.33668e-06
1.29318e-06
8.57006e-05
-0.000107643
-2.95412e-06
4.36184e-06
-2.7455e-06
0.000107837
-5.46669e-05
2.94559e-06
-3.11581e-06
5.48371e-05
-1.57429e-06
-5.98236e-07
2.34616e-07
1.93783e-06
-4.12673e-06
2.54839e-07
-3.19529e-07
4.19142e-06
9.84874e-07
-8.45623e-07
-1.46403e-05
1.06606e-06
-2.25245e-06
1.56875e-05
2.59351e-06
-2.41561e-05
-1.18431e-06
1.35523e-06
-4.17923e-06
2.55709e-05
-9.54082e-06
-2.01633e-06
1.86908e-06
3.12569e-07
1.11845e-05
-1.80902e-06
1.428e-06
-1.75681e-06
-3.82128e-06
2.99462e-06
-2.12308e-06
3.27855e-06
6.44101e-06
-4.30509e-06
0.000107785
2.05709e-06
2.87246e-06
2.17456e-06
3.34182e-06
-4.06929e-06
-4.98459e-06
-3.89442e-06
-4.62782e-06
1.31243e-06
-2.1141e-05
0.000208841
3.91276e-06
3.8734e-06
5.26438e-06
5.41821e-06
8.37441e-07
-9.70751e-06
0.000236632
2.91161e-07
4.81252e-07
1.26793e-06
5.81355e-07
2.23854e-07
9.18095e-07
4.75964e-07
-4.54861e-05
-4.01352e-07
1.20799e-06
4.5517e-05
-1.84804e-06
9.15433e-07
-6.76908e-07
1.60933e-06
-4.03634e-07
-1.34933e-05
2.1415e-06
1.32911e-06
-1.01849e-06
1.14449e-05
4.53331e-06
1.70393e-05
0.000173582
-3.06415e-06
-2.49327e-06
-2.76766e-06
-1.26436e-06
-1.1379e-05
-8.5806e-06
0.000291907
-1.6355e-06
-6.92475e-06
0.00035346
-3.57224e-06
-1.03138e-06
-3.2103e-06
-5.06489e-06
-3.03317e-06
-4.6496e-06
-6.67479e-05
-2.5638e-06
-5.31066e-07
1.89893e-06
6.63083e-05
-5.84777e-05
1.02986e-06
-1.00168e-06
-1.87147e-06
5.9134e-05
1.18697e-06
1.24144e-05
4.23581e-06
0.000347855
-1.91506e-06
-1.33169e-07
2.3013e-07
1.26296e-07
3.81872e-06
4.2246e-06
4.13325e-06
-5.03492e-07
-1.32475e-06
0.000384139
3.73515e-06
3.46422e-06
4.24813e-06