/*--------------------------------*- C++ -*----------------------------------*\
| =========                 |                                                 |
| \\      /  F ield         | OpenFOAM: The Open Source CFD Toolbox           |
|  \\    /   O peration     | Version:  5.x                                   |
|   \\  /    A nd           | Web:      www.OpenFOAM.org                      |
|    \\/     M anipulation  |                                                 |
\*---------------------------------------------------------------------------*/
FoamFile
{
    version     2.0;
    format      ascii;
    class       volVectorField;
    location    "4";
    object      U;
}
// * * * * * * * * * * * * * * * * * * * * * * * * * * * * * * * * * * * * * //

dimensions      [0 1 -1 0 0 0 0];

internalField   nonuniform List<vector> 
10571
(
(-0.05257 0.457215 0.886876)
(-0.0207154 0.0374848 1.39217)
(-0.0993875 -0.0175575 3.52284)
(-0.641633 0.631306 3.81913)
(-0.342506 0.385064 1.47449)
(0.864633 1.51922 3.68029)
(0.43226 1.65337 3.72142)
(-0.395353 1.07102 2.56161)
(0.192235 2.52083 3.32259)
(0.32931 1.65792 3.56414)
(0.393609 0.221132 0.773661)
(0.865972 0.646266 3.56508)
(0.239362 0.807117 3.25404)
(-0.65941 1.28035 3.36842)
(-0.908355 -0.0475841 2.32081)
(-0.0102889 -0.225652 2.22714)
(0.160739 0.153864 2.03218)
(0.547073 0.130997 2.92223)
(-0.466612 0.378717 2.87241)
(-0.942753 0.128573 2.83415)
(-0.223638 0.208389 1.52077)
(0.29234 -0.123008 1.20457)
(-0.579384 0.354463 2.77159)
(-0.0133937 -0.046109 0.310113)
(0.340977 0.176189 -0.0239114)
(-0.50026 0.750782 1.63692)
(0.180976 0.296283 1.21544)
(0.102042 -0.167101 2.44701)
(0.120778 0.257334 1.49798)
(0.370696 1.06193 3.04703)
(-0.388517 0.812076 3.17365)
(-0.111972 0.460138 1.96224)
(0.505108 0.403788 3.532)
(0.0270378 -0.375836 2.38827)
(0.00453146 -0.0404324 0.0330395)
(1.06965 0.227556 4.08005)
(-0.0159745 0.164849 4.95339)
(-0.571915 0.891976 3.8655)
(0.318519 0.34982 1.63033)
(0.309559 0.591332 2.13845)
(0.0366987 0.111833 0.919338)
(0.282899 0.0870098 3.88426)
(0.462749 0.290447 3.62033)
(0.32707 0.455403 1.41249)
(-0.515641 0.628368 1.41525)
(-0.146934 0.126835 1.77071)
(0.305676 -0.060112 3.19613)
(0.318733 -0.220428 0.445375)
(0.398923 0.0132778 0.0523297)
(0.0938147 0.115608 0.636115)
(-0.0470626 0.327408 0.984491)
(0.795859 0.184108 3.08014)
(0.367306 0.733781 1.10986)
(0.298619 -0.259184 2.33456)
(-0.0632376 0.0368178 3.12991)
(0.146581 -0.124656 1.35517)
(0.545845 0.210598 3.11433)
(0.725263 -0.229667 3.04637)
(0.00616378 -0.0379846 0.0533627)
(0.515483 0.20298 3.152)
(-0.120038 0.275536 4.9479)
(-0.0565369 0.734478 3.22391)
(0.315518 0.320062 0.982842)
(0.298484 0.320846 2.19656)
(0.464323 0.185132 0.875549)
(0.144537 0.0860293 2.28409)
(0.840134 0.564673 3.49252)
(0.116014 0.318403 1.76689)
(-0.211035 0.468239 1.36445)
(-0.459816 0.171709 2.81673)
(0.722699 -0.465648 2.68249)
(1.36689 -0.1713 1.90144)
(0.171484 -0.0315879 -0.0620956)
(-0.0821669 0.0310415 0.243457)
(0.0632615 -0.059775 0.662139)
(0.790373 0.582616 2.37395)
(0.614296 0.690301 1.42778)
(-0.451052 -0.445922 2.14641)
(0.504035 0.0856794 3.26998)
(0.619455 -0.204054 1.93944)
(0.720572 0.481784 2.79794)
(0.792638 0.153121 3.81128)
(-0.00192096 0.0733245 0.00968641)
(0.23922 0.784868 2.65555)
(-0.0781994 1.19531 5.47557)
(0.649246 0.807449 3.26665)
(0.360311 0.335449 0.885566)
(-0.158242 1.0129 2.43385)
(-0.455979 0.614283 1.5891)
(0.402939 0.62979 3.46302)
(0.743566 1.45165 4.57933)
(0.386805 0.543811 3.06708)
(0.152944 0.473896 1.93703)
(0.282134 0.0509831 1.93443)
(0.477959 0.0273851 2.4128)
(0.652753 0.120858 3.70832)
(0.131934 -0.0286177 -0.0919034)
(-0.0730101 0.0344335 0.214139)
(-0.0161143 -0.308789 0.511064)
(0.957833 0.267593 1.98796)
(0.720702 0.363435 1.923)
(-1.30691 -0.262908 2.56273)
(0.410853 0.157407 2.52561)
(0.387975 0.161044 1.16006)
(0.618253 0.791937 2.08716)
(0.723439 0.625584 4.38492)
(0.0375946 0.304368 0.1732)
(-0.761153 0.688911 1.19924)
(0.49883 1.62663 4.88415)
(0.252505 0.264742 1.02706)
(0.298921 0.302988 1.04945)
(-0.479211 1.13309 2.36099)
(-1.00487 0.901614 1.98699)
(0.285676 1.58708 3.45502)
(0.51387 1.2117 4.02277)
(0.532928 0.3488 3.71524)
(0.0662899 0.567706 3.40548)
(0.203127 0.204575 2.70252)
(-0.0643936 0.24004 2.68273)
(0.488914 0.00109808 4.39972)
(0.102613 -0.0201362 -0.0711881)
(-0.101585 0.0902952 0.0771431)
(-0.186762 -0.0794374 0.984296)
(0.929333 0.0700141 1.67574)
(1.15733 0.187387 2.47554)
(-1.09092 0.0294872 2.46663)
(0.0837253 0.0933242 0.777917)
(0.301076 0.543667 1.08943)
(0.369706 1.01587 2.40183)
(0.715759 1.17226 4.51535)
(-0.00911728 0.00705217 0.00280195)
(0.0375363 0.739943 0.45858)
(-0.637955 0.588607 1.00976)
(0.384967 1.1474 3.48083)
(0.611902 0.381362 2.69852)
(-0.443437 0.309866 1.96399)
(-0.713348 1.1283 2.58629)
(0.0182592 0.00827588 0.00132362)
(-0.119102 0.729933 2.55324)
(0.199639 1.5852 3.92482)
(0.355644 0.631962 4.12126)
(0.594491 -0.116636 4.2991)
(-0.0110633 0.316122 4.19296)
(-0.0547469 0.306739 3.23731)
(-0.130342 0.21755 3.20801)
(0.356475 -0.0410434 4.42438)
(0.0666228 -0.00302159 -0.00132764)
(-0.319546 -0.0171175 0.589232)
(-0.139949 0.00394147 0.34523)
(0.156203 0.0736802 0.618079)
(0.902285 0.0258374 1.67326)
(0.137488 0.511686 2.68844)
(0.162806 0.242988 1.5684)
(0.106752 0.422821 1.79652)
(0.0768403 0.726892 2.4082)
(0.876285 0.8803 4.14309)
(-0.765993 0.0148808 0.092814)
(-0.0602832 0.873621 1.02377)
(0.315149 0.675469 0.996579)
(0.292982 0.593095 3.59987)
(0.276456 0.145335 2.06188)
(-0.540131 0.0281194 2.07205)
(-0.421342 0.886386 2.67913)
(-0.190087 0.245167 -0.137981)
(0.272567 0.484563 2.82702)
(0.26267 1.18826 4.03832)
(0.23619 0.497808 4.1884)
(0.41761 -0.271469 4.54747)
(0.209194 0.206347 4.51947)
(-0.736271 0.0162657 -0.0236301)
(-0.176242 0.365857 3.74908)
(0.109443 0.132253 3.64807)
(0.293176 0.0187498 4.59312)
(0.0953728 -0.00935468 0.0675)
(0.139077 -0.108339 0.539823)
(-0.0203136 -0.0649712 0.117481)
(0.130013 0.043312 0.405559)
(0.116279 -0.0220662 1.05729)
(0.182288 0.463302 1.82815)
(0.0433851 0.0966504 0.68714)
(0.0192496 0.157471 1.25109)
(-0.031753 0.592372 2.00599)
(0.529606 0.766337 3.58862)
(0.450873 0.339267 0.365301)
(0.0179129 0.452492 1.14587)
(0.272425 0.365989 0.879809)
(0.236062 0.458991 3.07876)
(-0.101489 0.0619812 1.9852)
(-0.468637 -0.0237105 2.36924)
(-0.293216 0.744697 2.73581)
(0.0485003 0.484208 0.00736917)
(0.27861 0.222937 3.03469)
(0.272199 0.917948 4.07272)
(0.154146 0.423266 4.06755)
(0.238701 -0.265981 4.63295)
(0.069896 0.13055 4.34069)
(0.364167 0.204746 0.334423)
(-0.129689 0.376905 4.00452)
(0.178611 0.0294806 3.78726)
(0.309749 -0.0252304 4.65703)
(0.011617 0.0162043 -0.0566697)
(0.103626 -0.156393 0.524937)
(0.0544049 0.00936082 0.0896447)
(-0.172254 0.133936 0.340317)
(-0.212789 -0.20126 0.732649)
(0.0498135 0.236143 0.997126)
(-0.0826812 -0.250598 0.676113)
(-0.0376211 0.0918245 1.36838)
(-0.129688 0.489622 2.0427)
(0.118267 0.405658 3.0751)
(0.620547 0.138136 -0.0166184)
(0.0356948 0.292048 1.07861)
(0.196418 0.264355 0.820511)
(0.204529 0.300685 2.85668)
(-0.224653 -0.0534718 2.21282)
(-0.553155 -0.151701 2.71432)
(-0.302506 0.75295 3.0564)
(0.072829 -0.0869491 0.255628)
(0.267927 0.0614415 2.97586)
(0.225871 0.753999 4.00201)
(0.0927239 0.375966 4.04935)
(0.138994 -0.284994 4.77794)
(-0.11453 0.00574095 4.51643)
(-0.144262 0.380068 4.16688)
(0.182656 -0.0595298 3.83442)
(0.31469 -0.0706088 4.75056)
(0.0958626 0.0107977 0.0856338)
(0.0902049 -0.124384 0.533397)
(0.0536808 -0.00918992 0.160801)
(-0.0670412 0.103065 0.50185)
(-0.181597 0.0198448 0.485712)
(0.108771 0.131342 0.658283)
(0.0733226 -0.352866 0.744631)
(-0.12434 0.0734543 1.52083)
(-0.0409927 0.418886 2.25076)
(-0.374255 0.200984 2.98428)
(0.00885857 0.0034502 0.90163)
(0.215406 0.10913 0.91472)
(0.132514 0.211029 2.77066)
(-0.268578 -0.143419 2.40828)
(-0.490482 -0.109707 3.04229)
(-0.456227 0.632332 3.09114)
(0.186558 -0.11678 2.80638)
(0.193234 0.635138 4.0442)
(0.0587843 0.326748 4.072)
(0.103342 -0.302422 4.96441)
(-0.0318106 0.0324483 4.66925)
(-0.1688 0.355126 4.2772)
(0.192046 -0.0797963 3.96169)
(0.307568 -0.0797939 4.83879)
(0.163095 0.0247693 0.0886647)
(0.170232 -0.162293 0.439037)
(0.16322 -0.0932286 0.241192)
(0.119108 0.0619729 0.582069)
(0.0597846 0.146215 0.463252)
(0.149612 0.0916269 0.509696)
(0.214407 -0.353747 0.813131)
(-0.155921 0.0772994 1.6301)
(0.0530746 0.336797 2.21991)
(-0.257329 0.239729 2.7454)
(-0.0271955 -0.140629 0.732512)
(0.230752 -0.102019 1.03393)
(0.139219 0.152514 2.69358)
(-0.281019 -0.202622 2.52972)
(-0.383101 -0.133367 3.18666)
(-0.114956 0.460926 3.09583)
(0.0875547 -0.219538 2.67714)
(0.19047 0.565377 4.06488)
(0.0305517 0.269477 4.12732)
(0.101627 -0.305593 5.06471)
(-0.0142432 -0.00326295 4.55411)
(-0.181143 0.303475 4.30901)
(0.192876 -0.107821 4.09748)
(0.310494 -0.100301 4.89728)
(0.225087 0.0359616 0.128886)
(0.181326 -0.142068 0.254523)
(0.217203 -0.133561 0.319374)
(0.154344 0.0181635 0.63221)
(0.0948739 0.21241 0.346754)
(0.163472 -0.0111491 0.356539)
(0.287953 -0.343537 0.892169)
(-0.153221 0.00984593 1.71844)
(0.154802 0.257924 2.23266)
(-0.115434 0.189657 2.37094)
(-0.0302128 -0.185028 0.624377)
(0.246432 -0.290006 1.10071)
(0.190483 0.128871 2.50325)
(-0.259307 -0.247512 2.62965)
(-0.353662 -0.175207 3.31125)
(-0.0372828 0.400525 2.91906)
(0.103943 -0.202361 2.54117)
(0.216979 0.540257 4.03624)
(0.0218762 0.222047 4.14949)
(0.0910125 -0.313553 5.10145)
(-0.00671997 -0.0321647 4.512)
(-0.168587 0.269119 4.33984)
(0.209116 -0.125706 4.10676)
(0.302197 -0.112052 4.95702)
(0.267225 0.0427341 0.155966)
(0.120651 -0.120545 0.146687)
(0.203353 -0.161594 0.406472)
(0.140546 -0.068756 0.717254)
(0.156293 0.230097 0.259173)
(0.168348 -0.20475 0.320454)
(0.331735 -0.30544 0.945104)
(-0.11712 -0.102963 1.80185)
(0.206861 0.148272 2.30763)
(-0.0114585 0.147294 2.38561)
(-0.0155873 -0.154854 0.561977)
(0.216169 -0.313307 1.09559)
(0.278574 0.086313 2.33985)
(-0.209645 -0.300944 2.72009)
(-0.36241 -0.242174 3.44168)
(0.00993848 0.322807 2.83066)
(0.172897 -0.135353 2.42676)
(0.251154 0.535818 3.9694)
(0.0243569 0.20875 4.12322)
(0.081725 -0.323296 5.10043)
(0.0023425 -0.0407355 4.4898)
(-0.1463 0.25397 4.3542)
(0.238877 -0.145242 4.18757)
(0.291803 -0.123863 4.94167)
(0.259997 0.0418231 0.168144)
(0.0886096 -0.104498 0.166131)
(0.162949 -0.178779 0.50185)
(0.120718 -0.145864 0.812929)
(0.150425 0.18471 0.222749)
(0.16184 -0.264144 0.2988)
(0.347643 -0.246994 0.983225)
(-0.0916224 -0.187396 1.88988)
(0.183054 0.0726063 2.37171)
(0.0366075 0.0326818 2.36681)
(-0.00348194 -0.120978 0.404839)
(0.114498 -0.195039 0.976712)
(0.274443 0.0516832 2.11107)
(-0.168804 -0.356823 2.81709)
(-0.355422 -0.300805 3.53525)
(-0.0150377 0.257704 2.72482)
(0.136716 -0.162066 2.33488)
(0.32596 0.522883 3.91611)
(0.0552236 0.182711 4.09037)
(0.0687163 -0.329137 5.10315)
(0.00026593 -0.0530515 4.46852)
(-0.127103 0.236683 4.34084)
(0.25844 -0.145245 4.21196)
(0.298679 -0.130862 4.96202)
(0.212868 0.0378328 0.172444)
(0.0569824 -0.0558076 0.246466)
(0.131827 -0.178594 0.576406)
(0.107011 -0.232716 0.947777)
(0.162236 0.143969 0.296042)
(0.15475 -0.216042 0.237723)
(0.343489 -0.188117 1.0066)
(-0.0870989 -0.243411 1.96789)
(0.140082 0.0398663 2.39103)
(0.027875 -0.0122979 2.32859)
(-0.0112932 -0.11548 0.32271)
(0.0331846 -0.137491 0.742649)
(0.267664 0.043152 2.01079)
(-0.147996 -0.411934 2.90587)
(-0.321636 -0.34435 3.61973)
(-0.0628836 0.235818 2.6327)
(0.0557437 -0.168392 2.26778)
(0.326063 0.527605 3.78652)
(0.0838384 0.154714 4.07816)
(0.074819 -0.332277 5.08689)
(0.00578016 -0.0590249 4.43088)
(-0.10479 0.227847 4.32273)
(0.279948 -0.152126 4.24809)
(0.311862 -0.138773 4.99324)
(0.13424 0.00184458 0.247539)
(0.0240406 0.00350457 0.30992)
(0.100513 -0.164773 0.666066)
(0.102321 -0.274098 1.08129)
(0.171262 0.117809 0.410448)
(0.156728 -0.155922 0.148491)
(0.31738 -0.168748 1.04505)
(-0.0938516 -0.293516 2.05965)
(0.137117 0.00980946 2.44995)
(0.019691 0.00667335 2.29648)
(-0.0118501 -0.128045 0.248478)
(0.0625034 -0.146015 0.549504)
(0.255513 0.0314599 1.83273)
(-0.111111 -0.449871 2.94902)
(-0.285235 -0.383265 3.6829)
(-0.0059969 0.220705 2.62555)
(-0.0307967 -0.164874 2.30021)
(0.366484 0.483927 3.7248)
(0.114532 0.138231 4.0684)
(0.0922907 -0.335637 5.06135)
(0.0374423 -0.0448905 4.44753)
(-0.0762294 0.229123 4.31155)
(0.285063 -0.148341 4.25288)
(0.318753 -0.147649 5.02873)
(0.0672607 -0.00921114 0.336758)
(0.0178308 0.0490958 0.256364)
(0.0508389 -0.118977 0.756707)
(0.0695826 -0.290339 1.19928)
(0.179206 0.0829494 0.528913)
(0.117817 0.00628473 0.138036)
(0.279406 -0.158257 1.10217)
(-0.083086 -0.336959 2.12675)
(0.12431 -0.0292677 2.51203)
(0.0360822 -0.00664047 2.30419)
(-0.00594425 -0.133133 0.171916)
(0.151854 -0.176195 0.418476)
(0.284066 -0.0541609 1.6719)
(-0.0644026 -0.455345 2.9725)
(-0.263161 -0.425356 3.7777)
(0.0481436 0.220099 2.57296)
(-0.259698 -0.175989 2.331)
(0.44965 0.428501 3.63708)
(0.142215 0.125492 4.04495)
(0.117346 -0.335369 5.0255)
(0.0582329 -0.0641065 4.46637)
(-0.0491836 0.223624 4.24263)
(0.291557 -0.149186 4.25186)
(0.33001 -0.166882 5.04659)
(0.0118953 -0.0367486 0.46041)
(-0.010486 0.0609604 0.149495)
(-0.0188277 -0.0600162 0.825338)
(0.0127578 -0.304321 1.33205)
(0.164861 0.0760251 0.653644)
(0.107674 0.117498 0.126532)
(0.225095 -0.115144 1.19833)
(-0.0730121 -0.358317 2.19079)
(0.0791408 -0.0592788 2.58082)
(0.0688882 -0.0547854 2.31027)
(0.00291948 -0.0885687 0.0468965)
(0.255079 -0.192687 0.333995)
(0.336443 -0.128458 1.53919)
(-0.0367629 -0.449519 2.98137)
(-0.247007 -0.458718 3.83911)
(0.056453 0.180183 2.49822)
(-0.317126 -0.118229 2.21083)
(0.441665 0.443831 3.45258)
(0.158696 0.122288 4.02812)
(0.135755 -0.332506 4.98261)
(0.0767795 -0.0948692 4.53243)
(-0.00838758 0.206781 4.18596)
(0.325075 -0.149378 4.24062)
(0.342616 -0.183525 5.0411)
(-0.0310227 -0.0466334 0.592443)
(-0.0693743 0.0884747 0.0924223)
(-0.0876132 0.00217045 0.873027)
(-0.0368204 -0.277746 1.40035)
(0.14191 0.0625153 0.794719)
(0.0460627 0.183279 0.0799694)
(0.154412 -0.0409687 1.28273)
(-0.0491105 -0.361743 2.23163)
(0.037764 -0.0672611 2.64956)
(-0.00293929 -0.152367 2.26604)
(-0.008985 -0.0744036 0.00137679)
(0.247112 -0.109597 0.296978)
(0.357981 -0.144729 1.51545)
(0.0134623 -0.45415 3.00047)
(-0.216906 -0.460893 3.91684)
(0.0601483 0.217438 2.4118)
(0.00690169 -0.404821 1.97298)
(0.507361 0.378721 3.2187)
(0.195325 0.11249 4.01879)
(0.152932 -0.327125 4.94628)
(0.0859614 -0.110639 4.63662)
(0.0307189 0.209784 4.13179)
(0.360891 -0.140004 4.23609)
(0.353242 -0.192939 5.03277)
(-0.0575692 -0.0358021 0.684251)
(-0.105585 0.10752 0.0593626)
(-0.123232 0.0271904 0.908643)
(-0.0528168 -0.236105 1.45558)
(0.142509 0.0593528 0.928654)
(-0.00128243 0.239976 0.0189281)
(0.0666587 0.0426064 1.35952)
(-0.038276 -0.362397 2.28419)
(0.0455264 -0.0555631 2.76417)
(-0.0238225 -0.172846 2.1953)
(-0.0180018 -0.0438448 0.00260908)
(0.199527 0.042016 0.299146)
(0.336943 -0.116477 1.53186)
(0.0895543 -0.452645 3.00549)
(-0.19939 -0.470117 4.01428)
(0.080061 0.254539 2.33852)
(0.288721 -0.407536 1.26295)
(0.582955 0.279626 3.05894)
(0.244494 0.126851 4.01428)
(0.171721 -0.322849 4.92106)
(0.0930791 -0.131228 4.75656)
(0.0852144 0.22321 4.1024)
(0.380008 -0.131915 4.25341)
(0.361719 -0.196176 5.03196)
(-0.0538982 -0.0352625 0.75137)
(-0.115471 0.11471 0.0294224)
(-0.125364 0.0346671 0.912532)
(-0.0774327 -0.19962 1.48814)
(0.119126 0.0438703 1.05894)
(-0.0063412 0.253327 -0.020677)
(-0.00784584 0.114509 1.40283)
(-0.0437488 -0.364962 2.30561)
(0.0830586 -0.0374241 2.86744)
(0.0177983 -0.0579061 2.13332)
(-0.0151966 -0.0100026 -0.0357146)
(0.138022 0.176853 0.291012)
(0.25799 -0.041743 1.5114)
(0.13543 -0.411267 2.99608)
(-0.191046 -0.489543 4.11749)
(0.0960868 0.249106 2.32055)
(0.196943 0.146677 0.888934)
(0.550185 0.264236 3.01041)
(0.264012 0.141272 4.04229)
(0.195525 -0.314692 4.91207)
(0.106424 -0.158213 4.90377)
(0.169829 0.237983 4.1371)
(0.387411 -0.116831 4.28611)
(0.362624 -0.200827 5.00629)
(-0.0610858 -0.0391485 0.77322)
(-0.106089 0.107399 0.00897782)
(-0.115912 0.0349242 0.897321)
(-0.106048 -0.164514 1.47617)
(0.099738 0.0199371 1.21197)
(-0.0203518 0.244737 -0.0261899)
(-0.0378002 0.152834 1.41634)
(-0.0473854 -0.369108 2.30088)
(0.128562 -0.0304774 2.936)
(0.0663551 0.00738146 2.13016)
(-0.0107389 0.000982728 -0.0652656)
(0.074436 0.229759 0.277105)
(0.231202 -0.0160242 1.4383)
(0.140537 -0.33605 2.93659)
(-0.129692 -0.497757 4.20508)
(0.122908 0.237819 2.37937)
(0.0917894 0.322295 0.560477)
(0.380343 0.268362 2.98993)
(0.245828 0.169351 4.07566)
(0.214232 -0.301733 4.90659)
(0.126716 -0.188282 5.07786)
(0.126762 0.234611 4.14249)
(0.372779 -0.106222 4.31161)
(0.369858 -0.204364 5.0203)
(-0.0461074 -0.0307511 0.768093)
(-0.0989469 0.103852 -0.00102542)
(-0.0910668 0.00354142 0.878319)
(-0.111118 -0.13975 1.45407)
(0.0550683 -0.0408948 1.38954)
(-0.0318917 0.217495 -0.01829)
(-0.0343542 0.166465 1.42276)
(-0.0514245 -0.379385 2.27101)
(0.166587 -0.0388043 2.99905)
(0.0888369 -0.00703419 2.12416)
(-0.0130844 -0.000482323 -0.0839039)
(0.0395732 0.232812 0.264332)
(0.300613 -0.0575172 1.34271)
(0.123426 -0.262096 2.817)
(-0.0451593 -0.490299 4.26203)
(0.148975 0.17903 2.58093)
(-0.0835525 0.234948 0.432459)
(0.15883 0.265878 2.89217)
(0.19959 0.208072 4.07759)
(0.227212 -0.279215 4.89136)
(0.163162 -0.240441 5.28477)
(0.0359883 0.237618 4.08826)
(0.323732 -0.0868488 4.3155)
(0.376916 -0.205325 4.99101)
(-0.0417855 -0.0233818 0.776219)
(-0.0997611 0.107686 0.00114622)
(-0.0696553 -0.0227914 0.819481)
(-0.0618662 -0.155641 1.43204)
(-0.00605401 -0.120968 1.59394)
(-0.0285211 0.186839 0.00614249)
(-0.0104665 0.16775 1.43131)
(-0.0455714 -0.35918 2.21246)
(0.209531 -0.0491158 3.04296)
(0.101499 -0.042773 2.13192)
(-0.0175136 -0.0163092 -0.0587079)
(0.0566938 0.208124 0.277847)
(0.38847 -0.119806 1.26029)
(0.119351 -0.290795 2.71599)
(0.0273994 -0.471311 4.28043)
(0.194334 0.0394981 2.91615)
(-0.235912 -0.0046087 0.497457)
(0.170049 0.244063 2.79316)
(0.127542 0.211734 4.02657)
(0.239713 -0.265184 4.83697)
(0.197679 -0.290588 5.46137)
(-0.097224 0.229176 4.00371)
(0.265052 -0.0825734 4.2768)
(0.38035 -0.216929 4.97497)
(-0.0984462 -0.026365 0.812823)
(-0.103277 0.114771 0.00451026)
(-0.0647345 0.0133807 0.699327)
(0.113945 -0.178384 1.34841)
(-0.132579 -0.219556 1.77534)
(-0.0240942 0.182913 0.042106)
(0.0175037 0.168706 1.45432)
(-0.0322244 -0.322431 2.20049)
(0.238372 -0.0721301 3.09194)
(0.111055 -0.0954669 2.2062)
(-0.0202044 -0.0212823 -0.0194826)
(0.0955666 0.186092 0.310387)
(0.426265 -0.157962 1.23592)
(0.155899 -0.378012 2.64032)
(0.0833543 -0.474998 4.29534)
(0.208749 -0.0774595 3.21872)
(-0.218947 -0.180246 0.661288)
(0.343672 0.112373 2.60123)
(0.0861502 0.202783 3.89848)
(0.263052 -0.258521 4.78026)
(0.223732 -0.332906 5.59864)
(-0.109984 0.175681 3.90864)
(0.217179 -0.078691 4.21464)
(0.384326 -0.215671 4.90477)
(-0.295739 -0.0729579 1.00252)
(-0.1202 0.133411 0.00855221)
(-0.0846138 0.102333 0.567104)
(0.123339 -0.137595 1.3391)
(-0.246091 -0.283655 1.87819)
(-0.0261531 0.198766 0.081993)
(0.025123 0.165763 1.47229)
(-0.0309004 -0.261498 2.23387)
(0.243365 -0.113475 3.14882)
(0.107206 -0.168448 2.32255)
(-0.0203336 -0.0116309 0.0159523)
(0.117012 0.187539 0.351534)
(0.43323 -0.155676 1.24918)
(0.207079 -0.433565 2.59939)
(0.123249 -0.509953 4.31898)
(0.212882 -0.193383 3.54686)
(-0.119184 -0.241007 0.797436)
(0.505328 -0.0809347 2.34982)
(0.132062 0.184163 3.81386)
(0.298065 -0.262837 4.70759)
(0.251322 -0.368443 5.70402)
(9.03272e-06 0.149542 3.79231)
(0.196819 -0.0639305 4.14224)
(0.37814 -0.212173 4.86288)
(-0.505305 -0.0849473 1.17678)
(-0.14588 0.157336 0.0206242)
(-0.169678 0.202112 0.51027)
(-0.139243 -0.0930382 1.44189)
(-0.38583 -0.29461 1.86199)
(-0.0382117 0.223284 0.124391)
(0.0108289 0.167602 1.48619)
(-0.0618629 -0.162337 2.27985)
(0.224962 -0.157498 3.2121)
(0.0875684 -0.221683 2.4497)
(-0.0170108 0.00970498 0.0427925)
(0.129098 0.218486 0.391685)
(0.40587 -0.10359 1.30078)
(0.236557 -0.451355 2.60831)
(0.145807 -0.560167 4.32808)
(0.211123 -0.283281 3.82533)
(-0.00869952 -0.20816 0.847266)
(0.526095 -0.194396 2.07292)
(0.225882 0.130383 3.76617)
(0.339835 -0.273158 4.64481)
(0.26929 -0.403935 5.76106)
(0.137158 0.15761 3.70495)
(0.214399 -0.0486484 4.08953)
(0.37233 -0.206444 4.82342)
(-0.650957 -0.100452 1.29025)
(-0.171502 0.177614 0.0509845)
(-0.295164 0.27294 0.564775)
(-0.546999 -0.0097466 1.49063)
(-0.493645 -0.309279 1.65819)
(-0.0603622 0.247104 0.169848)
(-0.0489504 0.192818 1.51448)
(-0.120734 -0.0495843 2.35374)
(0.194398 -0.158843 3.25006)
(0.0718466 -0.280899 2.6071)
(-0.0131772 0.0382392 0.0607205)
(0.118934 0.267324 0.429069)
(0.335802 -0.0314082 1.38347)
(0.231633 -0.457251 2.63412)
(0.157333 -0.59287 4.34714)
(0.207856 -0.350723 4.03678)
(0.0636808 -0.13072 0.803445)
(0.49026 -0.218537 1.81691)
(0.316868 0.0673331 3.68638)
(0.374286 -0.28476 4.58296)
(0.286529 -0.434571 5.79967)
(0.197748 0.177964 3.6205)
(0.261117 -0.0472644 4.04793)
(0.36499 -0.199538 4.76688)
(-0.645383 -0.0696204 1.36951)
(-0.183481 0.182521 0.10132)
(-0.36953 0.299251 0.66601)
(-0.642889 0.0772133 1.41502)
(-0.458442 -0.253718 1.31094)
(-0.090907 0.260155 0.22032)
(-0.182436 0.249836 1.57642)
(-0.203988 0.0745007 2.43231)
(0.143388 -0.102051 3.27364)
(0.059584 -0.325489 2.80636)
(-0.0105412 0.06806 0.077991)
(0.0885644 0.319923 0.467182)
(0.246869 0.0224381 1.48343)
(0.188166 -0.449404 2.70187)
(0.151532 -0.606161 4.36471)
(0.208573 -0.428354 4.28568)
(0.109526 -0.0362316 0.71309)
(0.459705 -0.213934 1.60427)
(0.379698 0.00337328 3.56757)
(0.398769 -0.287872 4.52347)
(0.301009 -0.471323 5.80956)
(0.171429 0.19413 3.52104)
(0.312229 -0.0445945 4.02227)
(0.35727 -0.189457 4.72754)
(-0.526911 -0.036351 1.2919)
(-0.179443 0.167301 0.162735)
(-0.374398 0.280926 0.755835)
(-0.543842 0.129394 1.32678)
(-0.349199 -0.191966 1.03974)
(-0.121364 0.26123 0.276078)
(-0.311908 0.29682 1.64715)
(-0.288299 0.170557 2.46871)
(0.0607064 -0.0340197 3.30528)
(0.0208862 -0.349869 3.00479)
(-0.00792423 0.0922268 0.106009)
(0.0414074 0.368899 0.51635)
(0.144446 0.0737527 1.60105)
(0.134251 -0.403669 2.79691)
(0.142757 -0.603873 4.36361)
(0.221796 -0.479718 4.49683)
(0.13626 0.0502177 0.641699)
(0.443682 -0.214887 1.44442)
(0.405859 -0.0726336 3.43707)
(0.413584 -0.280113 4.47119)
(0.315755 -0.506484 5.78935)
(0.152504 0.181633 3.42876)
(0.35456 -0.0403293 3.96873)
(0.354765 -0.183732 4.70028)
(-0.402324 -0.0269342 1.14559)
(-0.165548 0.139761 0.229749)
(-0.341859 0.225808 0.839103)
(-0.444759 0.135789 1.26378)
(-0.279448 -0.166366 0.892857)
(-0.147748 0.2488 0.338594)
(-0.413615 0.321644 1.69736)
(-0.350417 0.222581 2.47115)
(-0.0657941 -0.0171557 3.30863)
(-0.0417281 -0.378987 3.15807)
(-0.00617146 0.110045 0.152955)
(-0.0158609 0.404656 0.576648)
(0.0451648 0.12307 1.72844)
(0.0948955 -0.34941 2.89206)
(0.119404 -0.590042 4.37653)
(0.220446 -0.524068 4.69055)
(0.14813 0.100113 0.616453)
(0.428555 -0.203299 1.35298)
(0.38383 -0.139758 3.33483)
(0.414572 -0.275175 4.41867)
(0.325815 -0.522092 5.71184)
(0.205207 0.118979 3.3135)
(0.400753 -0.0276793 3.86782)
(0.35769 -0.188419 4.66917)
(-0.306553 -0.022066 1.02683)
(-0.15078 0.112491 0.303978)
(-0.302682 0.155966 0.910786)
(-0.37486 0.105652 1.22155)
(-0.256011 -0.163141 0.820316)
(-0.165168 0.228496 0.405493)
(-0.482517 0.312661 1.70133)
(-0.375984 0.248353 2.46344)
(-0.20969 0.009382 3.24596)
(-0.0654885 -0.383337 3.25973)
(-0.00510022 0.119403 0.223478)
(-0.0636274 0.422145 0.643718)
(-0.0385627 0.16033 1.85346)
(0.038919 -0.316781 2.99879)
(0.0545092 -0.548971 4.35507)
(0.200719 -0.55795 4.83625)
(0.145493 0.135123 0.631133)
(0.403673 -0.1694 1.33067)
(0.343196 -0.178415 3.24795)
(0.395723 -0.278827 4.35861)
(0.338409 -0.541765 5.64708)
(0.243015 0.0434726 3.13804)
(0.445169 -0.017497 3.75242)
(0.371159 -0.206605 4.60826)
(-0.241806 -0.0214826 0.965966)
(-0.138561 0.0915766 0.387362)
(-0.26982 0.0845293 0.980287)
(-0.328664 0.0610674 1.19398)
(-0.244324 -0.159536 0.783169)
(-0.16882 0.209322 0.475837)
(-0.508181 0.270596 1.66578)
(-0.373071 0.262197 2.43847)
(-0.263379 0.0916276 3.13088)
(-0.0562974 -0.393679 3.30484)
(-0.00471392 0.117553 0.314401)
(-0.0924475 0.419171 0.717808)
(-0.112484 0.182815 1.97891)
(-0.0576363 -0.289264 3.11815)
(-0.0327085 -0.482166 4.36851)
(0.169793 -0.573553 4.93435)
(0.127861 0.165229 0.685207)
(0.386369 -0.124737 1.36204)
(0.310153 -0.191756 3.17452)
(0.356159 -0.286377 4.29153)
(0.340932 -0.570354 5.54067)
(0.223553 -0.0233215 2.9108)
(0.463346 -0.00501363 3.58192)
(0.402486 -0.234463 4.51365)
(-0.201833 -0.0235956 0.952893)
(-0.129546 0.0779244 0.478095)
(-0.242732 0.0223191 1.04387)
(-0.295026 0.00975775 1.18819)
(-0.224365 -0.141638 0.77384)
(-0.1601 0.195721 0.549677)
(-0.495953 0.199388 1.60054)
(-0.347951 0.248439 2.37443)
(-0.208433 0.16466 2.98258)
(-0.0390233 -0.420019 3.34293)
(-0.00588027 0.103276 0.416274)
(-0.107688 0.399133 0.797232)
(-0.193174 0.19871 2.09296)
(-0.174572 -0.226529 3.23014)
(-0.0800299 -0.430728 4.34923)
(0.135035 -0.579396 4.98283)
(0.103819 0.19233 0.776836)
(0.348779 -0.0516368 1.42981)
(0.275807 -0.185395 3.15015)
(0.309919 -0.296337 4.23569)
(0.341112 -0.57557 5.44555)
(0.341828 -0.134069 2.61129)
(0.465634 -0.00856943 3.37275)
(0.4272 -0.252778 4.39911)
(-0.185575 -0.0285777 0.977855)
(-0.124662 0.0705579 0.574782)
(-0.22378 -0.0225519 1.10807)
(-0.281604 -0.0451919 1.20478)
(-0.207981 -0.121892 0.785947)
(-0.146312 0.186983 0.627752)
(-0.470357 0.130268 1.53034)
(-0.310701 0.127973 2.22486)
(-0.129378 0.126946 2.87069)
(-0.0356347 -0.432017 3.40267)
(-0.00705291 0.0766877 0.522335)
(-0.120818 0.362386 0.878575)
(-0.279041 0.217667 2.16848)
(-0.261311 -0.138245 3.30496)
(-0.163376 -0.404079 4.36024)
(0.115346 -0.561661 5.00891)
(0.0814071 0.228139 0.881592)
(0.266087 0.0538576 1.50566)
(0.226066 -0.15641 3.16566)
(0.260415 -0.303303 4.18379)
(0.329577 -0.566248 5.33632)
(0.458983 -0.168665 2.2032)
(0.469986 0.0120123 3.24398)
(0.437517 -0.260354 4.25623)
(-0.181166 -0.033353 1.03897)
(-0.120593 0.0669471 0.674906)
(-0.21033 -0.0464938 1.17972)
(-0.282241 -0.0935568 1.24215)
(-0.212941 -0.131164 0.813885)
(-0.130149 0.177875 0.710408)
(-0.452715 0.077651 1.47492)
(-0.333511 -0.0394114 2.03715)
(-0.12686 -0.0249263 2.79393)
(-0.0247889 -0.429028 3.51311)
(-0.0100977 0.0391919 0.626831)
(-0.13443 0.303587 0.960931)
(-0.367134 0.230716 2.19496)
(-0.264097 -0.0521453 3.32213)
(-0.290336 -0.363153 4.29924)
(0.110864 -0.538025 4.98862)
(0.0519977 0.242581 0.990606)
(0.166579 0.132357 1.58592)
(0.126174 -0.0831326 3.18356)
(0.199374 -0.292954 4.125)
(0.311226 -0.563962 5.22267)
(0.457504 -0.15156 1.76742)
(0.399095 0.0562903 3.17786)
(0.436227 -0.251306 4.09717)
(-0.18641 -0.037591 1.12369)
(-0.11382 0.0665795 0.774246)
(-0.194734 -0.0541957 1.26329)
(-0.286385 -0.11775 1.3017)
(-0.251192 -0.170441 0.858263)
(-0.113457 0.163072 0.802923)
(-0.446482 0.0422401 1.45734)
(-0.434253 -0.131127 1.86468)
(-0.25216 -0.18247 2.67579)
(0.0177653 -0.426541 3.66397)
(-0.0173848 -0.00653533 0.73619)
(-0.152456 0.237374 1.05295)
(-0.451299 0.220768 2.18011)
(-0.205179 0.0145671 3.26676)
(-0.325334 -0.294524 4.19377)
(0.107544 -0.506261 4.92756)
(0.0265432 0.224603 1.10304)
(0.0803208 0.118761 1.67207)
(0.0215315 -0.00966878 3.18606)
(0.134479 -0.272988 4.05167)
(0.295713 -0.551153 5.09106)
(0.232114 -0.172056 1.52767)
(0.223213 0.098359 3.10748)
(0.398663 -0.232705 3.89916)
(-0.182277 -0.0378893 1.22078)
(-0.102832 0.0668618 0.869163)
(-0.172023 -0.0558595 1.35324)
(-0.281745 -0.111293 1.39104)
(-0.272839 -0.200862 0.946808)
(-0.0964744 0.140212 0.908884)
(-0.43653 0.0253007 1.47911)
(-0.547299 -0.135214 1.74058)
(-0.485603 -0.248885 2.47032)
(0.0204077 -0.422399 3.73687)
(-0.0251857 -0.0529307 0.852511)
(-0.176653 0.171111 1.16002)
(-0.512086 0.195307 2.15503)
(-0.199274 0.0528948 3.12624)
(-0.234558 -0.236339 4.05547)
(0.0995178 -0.516546 4.81599)
(0.00729808 0.190222 1.22055)
(0.0232756 0.0534088 1.78755)
(-0.0318642 0.02585 3.19854)
(0.0666325 -0.239966 3.96581)
(0.274431 -0.522519 4.93235)
(-0.0102507 -0.23527 1.49723)
(0.0389971 0.0633756 2.92147)
(0.361129 -0.220206 3.63309)
(-0.172786 -0.0360008 1.31281)
(-0.0885869 0.0661733 0.9594)
(-0.144633 -0.0558818 1.44533)
(-0.256489 -0.0904755 1.493)
(-0.257496 -0.191448 1.05535)
(-0.0794044 0.110808 1.02853)
(-0.379102 0.012879 1.54393)
(-0.594907 -0.098284 1.69904)
(-0.682275 -0.205305 2.22345)
(0.00146158 -0.425586 3.65597)
(-0.0319714 -0.0909196 0.973842)
(-0.202539 0.0992517 1.27913)
(-0.535848 0.178354 2.14786)
(-0.306229 0.0613083 2.95107)
(-0.189252 -0.21275 3.93022)
(0.0963136 -0.487736 4.68369)
(-0.0227592 0.133299 1.3405)
(-0.0177645 0.00393578 1.96164)
(-0.0331297 0.0280144 3.21327)
(0.0250635 -0.225149 3.88474)
(0.259711 -0.47084 4.79376)
(-0.105409 -0.273337 1.48905)
(0.0718054 -0.0261539 2.68057)
(0.349722 -0.199707 3.31002)
(-0.166212 -0.0336116 1.39243)
(-0.072754 0.0652314 1.04493)
(-0.117552 -0.0488977 1.53756)
(-0.218393 -0.0614226 1.58234)
(-0.22086 -0.139345 1.12032)
(-0.0654554 0.0750992 1.15693)
(-0.253535 0.00214719 1.62786)
(-0.565088 -0.063989 1.72121)
(-0.696996 -0.100196 2.03544)
(-0.366911 -0.518584 3.26234)
(-0.0372325 -0.115964 1.10018)
(-0.212547 0.0212071 1.40553)
(-0.533654 0.173502 2.15545)
(-0.449426 0.0579269 2.80484)
(-0.278697 -0.156992 3.83103)
(0.0188666 -0.413183 4.55094)
(-0.0522768 0.0539213 1.45205)
(-0.0599105 0.0214187 2.16379)
(-0.0150169 0.0411428 3.26353)
(0.0143913 -0.203038 3.83255)
(0.236071 -0.437628 4.65491)
(-0.108481 -0.241479 1.43714)
(0.23574 -0.204886 2.38649)
(0.409092 -0.22107 3.03342)
(-0.169017 -0.0289502 1.44484)
(-0.0573786 0.063552 1.12691)
(-0.0945866 -0.0328396 1.61558)
(-0.177397 -0.02799 1.64726)
(-0.191083 -0.101543 1.13372)
(-0.0539481 0.0418139 1.28433)
(-0.117629 -0.0170552 1.68959)
(-0.35336 -0.030941 1.80436)
(-0.490181 -0.0105768 1.96114)
(-0.472919 -0.506465 2.49971)
(-0.036827 -0.130601 1.21989)
(-0.177529 -0.039211 1.52578)
(-0.494305 0.141525 2.18083)
(-0.513882 0.0446599 2.72919)
(-0.492021 -0.0349079 3.6758)