/*--------------------------------*- C++ -*----------------------------------*\
| =========                 |                                                 |
| \\      /  F ield         | OpenFOAM: The Open Source CFD Toolbox           |
|  \\    /   O peration     | Version:  5.x                                   |
|   \\  /    A nd           | Web:      www.OpenFOAM.org                      |
|    \\/     M anipulation  |                                                 |
\*---------------------------------------------------------------------------*/
FoamFile
{
    version     2.0;
    format      ascii;
    class       volVectorField;
    location    "4";
    object      Us;
}
// * * * * * * * * * * * * * * * * * * * * * * * * * * * * * * * * * * * * * //

dimensions      [0 1 -1 0 0 0 0];

internalField   nonuniform List<vector> 
10571
(
(-0.0323979 0.0277148 -0.170305)
(-0.0276112 0.0668321 -0.0865845)
(-0.112991 0.106384 0.135651)
(-0.151053 0.147465 -0.00814255)
(-0.0699396 0.0715027 -0.136393)
(0.115074 0.0630469 0.0560193)
(-0.0132885 0.257131 0.119088)
(-0.142619 0.193251 0.071914)
(-0.0580972 0.115773 0.0402334)
(-0.00485707 0.0646613 -0.158228)
(0.00322876 -0.0900973 -0.0863418)
(-0.104085 -0.0746134 0.0175231)
(-0.00426622 0.233471 0.0604927)
(-0.240025 -0.0386926 0.0285809)
(-0.176122 -0.00288399 -0.0779506)
(-0.0485433 0.0394876 -0.0608478)
(-0.0378353 -0.0579325 -0.147414)
(-0.029778 -0.146175 -0.0518121)
(-0.0810007 -0.132741 -0.00265474)
(-0.132071 -0.0182282 -0.00578288)
(-0.0592731 0.0410579 -0.100141)
(0.0528415 -0.0335699 -0.255938)
(-0.0649629 -0.0388223 -0.0661149)
(-0.00559455 -0.00748324 -0.128255)
(0.132921 0.0159411 -0.372714)
(-0.0175691 -0.0396438 -0.0840924)
(-0.0953334 0.0141939 0.049279)
(-0.135054 0.0158576 -0.0271397)
(0.106662 0.10573 -0.290485)
(0.0163083 -0.135549 0.108679)
(-0.187742 -0.0478733 0.117305)
(-0.0883203 0.112072 0.0417489)
(-0.00892168 0.128703 -0.00479407)
(0.0424549 0.104186 -0.179473)
(0.010108 0.0506432 -0.236941)
(-0.0602295 -0.181102 0.0797861)
(-0.0686072 -0.0998932 0.213338)
(-0.147669 -0.0137874 0.166007)
(-0.00619555 0.0425703 0.0236626)
(-0.00229624 0.210207 -0.0780504)
(-0.0693602 -0.0282336 -0.0693542)
(-0.0575811 -0.102655 0.129827)
(0.0886127 -0.0660186 0.15629)
(0.00228127 0.0112266 0.0749853)
(-0.029155 0.136778 -0.204178)
(0.0353731 -0.0119148 -0.162818)
(0.0100422 -0.0575663 0.0569926)
(0.11775 -0.0293753 -0.0379616)
(0.106146 0.00682096 -0.345791)
(-0.00989448 -0.0618567 -0.0199893)
(-0.11436 -0.146808 0.0138819)
(0.0533675 -0.00398213 0.0776016)
(0.174556 0.139323 -0.343396)
(0.0109842 -0.183824 0.0776857)
(-0.16437 -0.142872 0.206866)
(-0.0312046 0.0764756 0.0546252)
(0.0508174 0.127206 0.0835136)
(0.0601887 0.0799653 -0.185093)
(0.00284399 0.0721455 -0.263624)
(-0.0125029 -0.0804617 0.118524)
(-0.0463455 -0.138119 0.309752)
(-0.04614 -0.050095 0.258529)
(0.0329048 0.0427377 0.0558084)
(0.0723186 0.161677 -0.160527)
(0.0841434 0.10391 -0.102462)
(-0.011464 -0.0266778 0.155827)
(0.128753 -0.0201421 0.237013)
(0.0250418 0.0124071 0.0964713)
(0.000934347 0.156983 -0.0792894)
(0.0591933 0.00717739 0.00925247)
(0.0990057 -0.0864002 0.129502)
(0.166322 -0.0332537 0.062106)
(0.0815702 -0.00157161 -0.304871)
(-0.0469989 -0.0211303 0.00204617)
(-0.038064 -0.174267 0.0859133)
(0.0986178 -0.059379 0.0986257)
(0.172617 0.114071 -0.318825)
(-0.0199698 -0.159944 0.135483)
(-0.0935747 -0.21893 0.319981)
(-0.0205534 -0.0166431 0.186063)
(0.11872 0.143759 0.121397)
(0.068316 0.0833847 -0.119192)
(0.00581572 0.0682881 -0.188512)
(0.0170151 0.0320108 0.112448)
(-0.0369967 -0.105669 0.474003)
(0.00430348 -0.0248671 0.304521)
(0.0658731 0.0926755 0.0434189)
(0.064563 0.147086 -0.124958)
(0.0303214 0.18734 -0.105926)
(0.0488205 0.169011 0.164997)
(0.0952072 0.113735 0.366363)
(0.064267 0.0745272 0.0985054)
(0.0519124 0.126754 -0.0249)
(0.0683002 0.17773 0.126871)
(0.0866417 0.0552057 0.187387)
(0.0889611 0.0427877 0.276084)
(0.0737036 0.000996265 -0.259109)
(-0.0555994 0.0190143 -0.033847)
(-0.0287399 -0.218108 0.14231)
(0.0754364 -0.0732181 0.109653)
(0.172773 0.0925034 -0.227911)
(-0.0709127 -0.13005 0.232177)
(-0.0635211 -0.141752 0.244612)
(0.00504766 -0.0312864 0.150568)
(0.121088 0.114251 0.118715)
(0.0939426 0.118633 -0.0797527)
(-0.00194888 0.122488 -0.135452)
(-0.0756584 0.114573 0.0179611)
(-0.0180485 0.0825037 0.340781)
(-0.000371044 0.027915 0.122184)
(0.0791367 0.058049 0.0303665)
(-0.0294374 0.114496 -0.10816)
(-0.084127 0.201489 -0.0816648)
(0.0537168 0.282731 0.198718)
(0.0459155 0.18445 0.322652)
(0.102362 0.162155 0.0875192)
(0.0568569 0.0874813 -0.0600221)
(0.203241 0.0922854 0.0273678)
(0.0734547 0.156055 0.266631)
(-0.0162041 0.0583831 0.268817)
(0.063672 -0.00194672 -0.19772)
(-0.0569991 0.0616816 -0.146489)
(-0.0876396 -0.194954 0.17756)
(0.0654793 -0.0354813 0.104169)
(0.189474 0.0678942 -0.133856)
(-0.120745 0.0104961 0.140541)
(-0.033914 -0.0593947 0.133543)
(0.0254905 0.0391805 0.0930379)
(0.120524 0.13995 0.127294)
(0.110215 0.154459 -0.00847982)
(-0.0105002 0.00815234 -0.00592387)
(-0.00570405 0.175502 -0.158063)
(-0.0800905 0.103984 -0.0109687)
(-0.00255123 0.128551 0.305483)
(0.0199959 0.0390377 0.0749809)
(0.112296 0.167827 0.124367)
(0.0258063 0.0872242 0.0165641)
(-0.00850099 -3.10425e-05 -0.00387137)
(-0.0096057 0.0983405 -0.522039)
(0.0651666 0.238529 0.152366)
(0.018235 0.190974 0.394131)
(0.0829272 0.0428228 0.0453354)
(0.17015 -0.122048 0.0824268)
(0.187172 -0.00221235 0.0191261)
(0.0393203 0.197636 0.330271)
(0.0889413 0.102331 0.383611)
(0.053653 -0.00500507 -0.130762)
(-0.0516034 0.0406165 -0.358883)
(-0.0730027 -0.0570106 0.0823041)
(0.0447658 -0.0725323 0.0231708)
(0.181021 0.0266262 -0.049683)
(-0.0455292 0.150291 0.140665)
(0.0090014 -0.016197 0.0768275)
(0.0294262 0.023107 -0.0376363)
(0.0903322 0.13574 0.148443)
(0.157861 0.159257 -3.69812e-05)
(0.0268827 0.0402657 -0.066268)
(-0.0246615 0.112544 -0.428453)
(0.0633112 0.208587 -0.136402)
(0.0724153 0.12098 0.175258)
(0.131799 0.00524123 -0.404769)
(0.090589 0.102073 -0.0729766)
(0.134023 0.106235 -0.00115919)
(0.0491261 0.042898 0.0101198)
(-0.00168624 -0.0051429 -0.644551)
(0.12556 0.124866 -0.0951343)
(0.0593818 0.119423 0.247346)
(0.0560429 -0.00645176 0.0739634)
(-0.0101628 -0.179127 0.0599006)
(0 0 0)
(0.1195 0.169753 -0.0464728)
(0.132713 0.0195665 -0.00898017)
(0.0779813 -0.000400516 0.1512)
(0.0895629 -0.0238684 -0.153111)
(-0.00174318 -0.0572824 -0.458876)
(-0.0216263 -0.0681061 0.0273623)
(0.0914544 0.0514464 -0.138326)
(0.0127317 0.0407579 -0.516914)
(-0.00246529 0.0956098 0.0170651)
(0.0585889 0.0365249 -0.304317)
(0.0437216 -0.00971653 -0.375381)
(0.0571869 0.0555941 -0.166042)
(0.131992 0.0850614 -0.137891)
(0.157727 0.00280146 -0.329382)
(0.00399901 0.0427069 -0.659324)
(-0.0343142 0.172065 -0.364689)
(0.156455 0.0588327 -0.389815)
(0.0881575 0.00736768 -0.357933)
(0.069104 0.019022 -0.281706)
(0.160191 -0.0524227 -0.373453)
(0 0 0)
(0.0298836 0.0428912 -0.564559)
(0.128012 0.0985149 -0.189318)
(0.153727 0.0510609 0.0747338)
(0.0327551 0.00142607 0.115936)
(0 0 0)
(0 0 0)
(0.0736031 0.0215597 -0.154428)
(0.172526 0.0468852 0.0599582)
(0.0946259 -0.00183962 0.240026)
(-0.0095522 0.0447075 -0.56014)
(0.061335 -0.0598771 -0.628734)
(0.00752825 -0.0669842 -0.407137)
(0.0619785 -0.0057148 -0.401959)
(0.0242556 0.0115371 -0.469676)
(-0.0485668 0.0323338 -0.228915)
(0.0561658 0.0109226 -0.347447)
(0.0206955 -0.0158667 -0.347986)
(0.0483346 0.00660193 -0.157789)
(-0.0459321 0.0820782 -0.105453)
(0 0 0)
(0 0 0)
(0.0144661 0.125017 -0.373042)
(0.144357 0.0426234 -0.343958)
(0.0981825 -0.00200097 -0.35653)
(-0.0424458 0.0821217 -0.208087)
(0 0 0)
(0 0 0)
(-0.0242722 0.0562864 -0.56393)
(0.144315 0.0912378 -0.14454)
(0.188275 0.0679231 -0.0571367)
(0 0 0)
(0 0 0)
(0.140951 0.00899864 -0.255756)
(0.196413 0.0907681 0.112698)
(0.178086 -0.0814648 -0.0977044)
(0.0206217 0.00434031 -0.474251)
(0 0 0)
(0.0938226 -0.0896089 -0.601207)
(0.0340397 -0.017863 -0.472986)
(0.0213327 -0.0425771 -0.351829)
(-0.00363895 0.000187229 -0.377189)
(0.0853591 -0.00521282 -0.442256)
(0.0379864 -0.0242481 -0.295433)
(0.0778818 0.00258827 -0.0861825)
(-0.0689621 0.0455771 -0.00257931)
(0 0 0)
(-0.0265974 0.0454181 -0.390597)
(0.119796 0.0337094 -0.370855)
(0.112064 -0.0542354 -0.393965)
(0.0196124 0.0431997 -0.182346)
(-0.162956 0.0454814 -0.124609)
(0.028325 0.0298057 -0.466904)
(0.13982 0.079177 -0.0985842)
(0.173269 0.0426694 -0.00496719)
(0 0 0)
(1.48743e-14 -2.93852e-14 3.25214e-14)
(0.00329311 0.0642801 -0.328941)
(0.148579 -0.0195263 0.117733)
(0.22332 0.0294714 0.159336)
(-0.141641 -0.0312892 -0.456727)
(-0.0103918 -0.104033 -0.603191)
(0.0199185 0.150152 -0.391801)
(0.00919966 0.0121822 -0.425519)
(0.0597457 -0.0304441 -0.334161)
(0.0645511 -0.00948257 -0.589805)
(0.108695 0.0390483 -0.501772)
(0.0694486 -0.0185518 -0.312308)
(0.0677141 0.0121363 -0.038921)
(0.0352481 0.0433693 -0.00202826)
(0 0 0)
(0.0624504 -0.0444868 -0.68729)
(0.107186 0.0189351 -0.298735)
(0.155355 -0.00668665 -0.366946)
(0.0654258 -0.0206513 -0.11626)
(0 0 0)
(0.0707356 -0.0263482 -0.467932)
(0.147744 0.0897567 -0.149022)
(0.171039 0.0412878 0.00237165)
(0 0 0)
(0.168282 -0.202176 0.132329)
(0.035543 0.0173772 -0.144344)
(0.0914448 0.0764386 -0.078179)
(0.164361 0.0999289 0.237877)
(-0.0233088 -0.0148187 -0.226042)
(0 0 0)
(0.0303299 -0.0462029 -0.626728)
(0.0262402 -0.0435558 -0.345302)
(0.0237624 0.0207256 -0.257231)
(0.0990646 -0.0144676 -0.637421)
(0.0944024 -0.00965135 -0.408651)
(0.0953058 -0.0532322 -0.276773)
(0.0965589 -0.00261964 0.0076016)
(0.0897427 -0.0130978 0.0472995)
(0.0702168 -0.00819223 -0.658966)
(0.0471044 0.032853 -0.472011)
(0.0816355 0.011124 -0.29458)
(0.141502 -0.0189092 -0.249264)
(0.0424161 -0.0540473 0.0730051)
(0.127435 0.0754838 0.113493)
(0.0342696 -0.0298502 -0.529412)
(0.132724 0.0821249 -0.143741)
(0.129318 -0.0384121 0.0133884)
(0 0 0)
(0 0 0)
(0.0388739 0.00263931 -0.114696)
(0.176547 0.0763784 0.119027)
(0 0 0)
(0.0205637 -0.0496697 -0.633916)
(-0.0861462 -0.0254316 -0.627521)
(0.0246576 0.104745 -0.611854)
(0.0419163 -0.0818943 -0.325056)
(0.0817094 -0.0282944 -0.23981)
(0 0 0)
(0.109284 -0.0268746 -0.339725)
(0.0772452 -0.0451383 -0.266176)
(0.147721 -0.044208 -0.277355)
(0 0 0)
(0 0 0)
(0.0536027 -0.039706 -0.669426)
(0.0906241 -0.00170523 -0.337187)
(0.115593 -0.0380588 -0.244073)
(-0.115985 -0.168498 0.141101)
(-0.087141 0.200225 -0.176344)
(-0.0235503 -0.0565185 -1.0249)
(0.0770291 0.07537 -0.137001)
(0.151281 -0.0567147 0.00129858)
(0.189797 0.0200294 0.186978)
(0 0 0)
(0.0534922 0.0596882 -0.123372)
(0.169129 0.115498 0.101936)
(0.2629 -0.050063 0.164992)
(0.0746701 -0.136911 -0.416827)
(0.0315468 -0.105235 -0.547564)
(0.0634498 -0.0536518 -0.448938)
(0.00219878 -0.00560789 -0.181612)
(0.0129339 0.014381 -0.146931)
(0.0965293 -0.0163088 -0.557851)
(0.110327 -0.0534835 -0.362597)
(0.0659054 -0.0729999 -0.295686)
(0 0 0)
(0 0 0)
(0 0 0)
(0.0667238 -0.0638821 -0.584827)
(0.0783539 0.00779267 -0.271121)
(0.0569258 -0.033769 -0.454118)
(0 0 0)
(0 0 0)
(-0.0611709 -0.0248087 -0.921347)
(0.0878341 0.0810757 -0.0667806)
(0.118038 0.0575395 -0.108653)
(0.175584 -0.210899 0.324718)
(0 0 0)
(0 0 0)
(0.189491 0.0120717 0.0858075)
(0 0 0)
(-0.124131 0.00990735 -0.787761)
(0 0 0)
(0 0 0)
(0 0 0)
(-0.0576323 -0.0920318 -0.824703)
(0 0 0)
(0.0526415 -0.0404865 -0.258054)
(0.149793 -0.0406548 -0.281698)
(0.0571531 -0.00488953 -0.238847)
(-0.0337961 -0.0638779 -0.812597)
(0 0 0)
(0.0222293 0.0575355 -0.39143)
(0.078572 -0.00413942 -0.265923)
(0.126747 0.0246418 -0.193931)
(0 0 0)
(0 0 0)
(0 0 0)
(0.119108 0.106377 0.0461259)
(0.149283 0.041961 0.0151879)
(0.0134915 -0.198578 0.380068)
(-0.126541 -0.13274 0.199599)
(0.0681675 0.128418 -0.0874296)
(0 0 0)
(0 0 0)
(-0.0718219 -0.0272788 -0.698341)
(0 0 0)
(0 0 0)
(-0.108606 0.0112833 -0.684836)
(0 0 0)
(0 0 0)
(0.0494131 -0.0178238 -0.233634)
(0 0 0)
(0 0 0)
(-0.0439139 -0.0658571 -0.803965)
(-0.0795747 0.0106292 -0.34901)
(0 0 0)
(0.0481998 0.0023186 -0.227686)
(0.124187 -0.0391457 -0.140658)
(0.0562802 -0.0724105 -0.397886)
(0 0 0)
(-0.0605795 -0.0408782 -0.879997)
(0.100194 0.103971 0.0429766)
(0.166884 0.0563263 0.212922)
(0.266773 0.0214387 0.31015)
(0 0 0)
(0 0 0)
(0.214669 0.0974143 0.0303322)
(0 0 0)
(-0.126834 -0.00830341 -0.715194)
(0 0 0)
(0 0 0)
(0.103591 0.14966 -0.359752)
(0 0 0)
(0 0 0)
(0.0670878 -0.0359596 -0.214019)
(0 0 0)
(0 0 0)
(0 0 0)
(0 0 0)
(0 0 0)
(0 0 0)
(0 0 0)
(-0.0157661 -0.06884 -0.604034)
(0 0 0)
(-0.0378134 -0.0598819 -0.975626)
(0.040047 0.0435119 -0.385343)
(0.190085 0.0478278 0.269604)
(0 0 0)
(0 0 0)
(-0.036035 0.0147758 -0.55961)
(0 0 0)
(0 0 0)
(0 0 0)
(6.01033e-16 8.51679e-15 4.21543e-14)
(0 0 0)
(0 0 0)
(0 0 0)
(0 0 0)
(0.0648918 -0.0305077 -0.171095)
(0 0 0)
(-0.0408509 -0.0423991 -0.64809)
(0 0 0)
(0 0 0)
(0 0 0)
(0.132918 0.000276684 -0.193538)
(0 0 0)
(0 0 0)
(0 0 0)
(7.6997e-15 4.8009e-15 1.10618e-13)
(0.074113 0.0678235 -0.0887615)
(-0.0112716 -0.0135483 -0.349262)
(0.137498 -0.177698 0.314238)
(0.102174 -0.0548801 -0.139987)
(0.129297 -0.0434871 0.129064)
(0.0402038 -0.0440147 -0.483308)
(0 0 0)
(0 0 0)
(-0.00496261 -0.101473 -0.328097)
(0 0 0)
(-1.6304e-14 9.2691e-15 2.23197e-14)
(0 0 0)
(0 0 0)
(0.0675069 -0.0434389 -0.173832)
(0.0802316 -0.0902505 -0.0787498)
(3.99443e-15 4.77253e-15 7.32093e-14)
(0 0 0)
(0 0 0)
(-0.00128663 0.0458023 -0.269373)
(0 0 0)
(0 0 0)
(0 0 0)
(0 0 0)
(0.053243 -0.0185303 -0.39215)
(0.0722875 0.0188809 -0.309328)
(0 0 0)
(0 0 0)
(0 0 0)
(0.0238359 0.0241266 -0.344879)
(0.0242557 -0.0059991 -0.49707)
(0 0 0)
(-0.130352 -0.000796965 -0.749605)
(0 0 0)
(0 0 0)
(0 0 0)
(0 0 0)
(0 0 0)
(0 0 0)
(0 0 0)
(-0.0455183 -0.0429859 -0.658821)
(0 0 0)
(0 0 0)
(0 0 0)
(0.0963633 -0.00510248 -0.145023)
(0.126634 -0.0353354 0.0303446)
(-0.0109645 -0.0716244 -0.562734)
(0 0 0)
(-0.0311968 0.0293344 -0.287471)
(-0.0179071 -0.0124955 -0.693441)
(0.116402 0.0616836 0.118424)
(0 0 0)
(0 0 0)
(0 0 0)
(0 0 0)
(0 0 0)
(0 0 0)
(0 0 0)
(0 0 0)
(0 0 0)
(-0.0697292 -0.0796168 -0.671294)
(-0.0107795 -0.0395393 -0.200506)
(0 0 0)
(0 0 0)
(0 0 0)
(-0.0246556 -0.0689301 -0.730921)
(0 0 0)
(0 0 0)
(0.101414 0.0155015 -0.0608691)
(0 0 0)
(0 0 0)
(0 0 0)
(-0.0158421 0.054149 -0.22233)
(0.0379208 0.0119156 -0.40027)
(0.116402 0.0616836 0.118424)
(0 0 0)
(0 0 0)
(0 0 0)
(0 0 0)
(0.0507528 -0.0491793 -0.313644)
(-0.133878 -0.0155771 -0.698196)
(0 0 0)
(0 0 0)
(0 0 0)
(0 0 0)
(0 0 0)
(0 0 0)
(0 0 0)
(0.00721498 -0.052207 -0.67602)
(0 0 0)
(0 0 0)
(2.80558e-15 -1.94358e-15 1.61207e-14)
(0.0514908 0.013963 -0.0678657)
(0 0 0)
(0 0 0)
(0 0 0)
(0 0 0)
(-0.0591064 0.0337684 -0.593856)
(-0.000872044 -0.0234549 -0.455884)
(0 0 0)
(0 0 0)
(-0.0381724 -0.0126152 -0.720653)
(-1.76868e-15 1.85306e-15 6.22964e-14)
(0 0 0)
(0 0 0)
(0 0 0)
(0 0 0)
(0 0 0)
(-0.0899464 -0.078733 -0.709024)
(0 0 0)
(0 0 0)
(0 0 0)
(0 0 0)
(-0.0224646 -0.0804668 -0.748117)
(0 0 0)
(-0.0222331 0.0351862 -0.140194)
(0 0 0)
(0 0 0)
(0 0 0)
(0 0 0)
(0 0 0)
(0 0 0)
(0 0 0)
(0 0 0)
(0 0 0)
(0 0 0)
(0 0 0)
(0 0 0)
(0 0 0)
(0 0 0)
(0 0 0)
(0 0 0)
(0 0 0)
(0 0 0)
(0.0262379 -0.0503695 0.0233113)
(0 0 0)
(0 0 0)
(0 0 0)
(0 0 0)
(0 0 0)
(0 0 0)
(0 0 0)
(-0.00325856 -0.0684981 -0.539986)
(0 0 0)
(0 0 0)
(0 0 0)
(0 0 0)
(0 0 0)
(0 0 0)
(0 0 0)
(0 0 0)
(0 0 0)
(0 0 0)
(0 0 0)
(0 0 0)
(0 0 0)
(0 0 0)
(0 0 0)
(0 0 0)
(0 0 0)
(0 0 0)
(0.0310611 -0.0877271 -0.663763)
(0 0 0)
(0 0 0)
(0 0 0)
(0 0 0)
(0 0 0)
(0 0 0)
(0 0 0)
(0 0 0)
(0 0 0)
(0 0 0)
(0 0 0)
(0 0 0)
(0 0 0)
(0 0 0)
(0 0 0)
(0 0 0)
(0 0 0)
(0 0 0)
(0 0 0)
(0 0 0)
(0 0 0)
(0 0 0)
(0 0 0)
(-0.0277752 -0.080194 -0.637943)
(0 0 0)
(0 0 0)
(0 0 0)
(0 0 0)
(0 0 0)
(0 0 0)
(0 0 0)
(0 0 0)
(0 0 0)
(0 0 0)
(0 0 0)
(0 0 0)
(0 0 0)
(0 0 0)
(0 0 0)
(0 0 0)
(0 0 0)
(0 0 0)
(0 0 0)
(0 0 0)
(0 0 0)
(0 0 0)
(0 0 0)
(-0.0402072 -0.0811765 -0.70495)
(0 0 0)
(0 0 0)
(0 0 0)
(0 0 0)
(0 0 0)
(0 0 0)
(0 0 0)
(-0.0213101 -0.0118145 -0.720323)
(0 0 0)
(0 0 0)
(0 0 0)
(0 0 0)
(0 0 0)
(0 0 0)
(0 0 0)
(0 0 0)
(0 0 0)
(0 0 0)
(0 0 0)
(0 0 0)
(0 0 0)
(0 0 0)
(0 0 0)
(0 0 0)
(0 0 0)
(0 0 0)
(0 0 0)
(0 0 0)
(-0.00298703 -0.0658992 -0.526269)
(0 0 0)
(0 0 0)
(0 0 0)
(-0.00616928 -0.0417733 -0.484147)
(0 0 0)
(0 0 0)
(0 0 0)
(0 0 0)
(0 0 0)
(0 0 0)
(0 0 0)
(0 0 0)
(0 0 0)
(0 0 0)
(0 0 0)
(0 0 0)
(0 0 0)
(0 0 0)
(0 0 0)
(0 0 0)
(0 0 0)
(0 0 0)
(0 0 0)
(0 0 0)
(0 0 0)
(0 0 0)
(0 0 0)
(0 0 0)
(0 0 0)
(0 0 0)
(0 0 0)
(0 0 0)
(0 0 0)
(0 0 0)
(0 0 0)
(0 0 0)
(0 0 0)
(0 0 0)
(0 0 0)
(0 0 0)
(0 0 0)
(0 0 0)
(0 0 0)
(0 0 0)
(0 0 0)
(0 0 0)
(0 0 0)
(0 0 0)
(0 0 0)
(0 0 0)
(0 0 0)
(0 0 0)
(0 0 0)
(0 0 0)
(0 0 0)
(0 0 0)
(0 0 0)
(0 0 0)
(0 0 0)
(0 0 0)
(0 0 0)
(0 0 0)
(0 0 0)
(0 0 0)
(0 0 0)
(0 0 0)
(0 0 0)
(0 0 0)
(0 0 0)
(0 0 0)
(0 0 0)
(0 0 0)
(0 0 0)
(0 0 0)
(0 0 0)
(0 0 0)
(0 0 0)
(0 0 0)
(0 0 0)
(0 0 0)
(0 0 0)
(0 0 0)
(0 0 0)
(0 0 0)
(0 0 0)
(0 0 0)
(0 0 0)
(0 0 0)
(0 0 0)
(0 0 0)
(0 0 0)
(0 0 0)
(0 0 0)
(0 0 0)
(0 0 0)
(-0.00396011 -0.0502394 -0.52666)
(0 0 0)
(0 0 0)
(0 0 0)
(0 0 0)
(0 0 0)
(0 0 0)
(0 0 0)
(0 0 0)
(0 0 0)
(0 0 0)
(0 0 0)
(0 0 0)
(0 0 0)
(0 0 0)
(0 0 0)
(0 0 0)
(0 0 0)
(0 0 0)
(0 0 0)
(0 0 0)
(0 0 0)
(0 0 0)
(0 0 0)
(0 0 0)
(0 0 0)
(0 0 0)
(0 0 0)
(0 0 0)
(0 0 0)
(0 0 0)
(0 0 0)
(0 0 0)
(0 0 0)
(0 0 0)
(0 0 0)
(0 0 0)
(0 0 0)
(0 0 0)
(0 0 0)
(0 0 0)
(0 0 0)
(0 0 0)
(0 0 0)
(0 0 0)
(0 0 0)
(0 0 0)
(0 0 0)
(-0.0196898 -0.0514786 -0.537336)
(0 0 0)
(0 0 0)
(0 0 0)
(0 0 0)
(0 0 0)
(0 0 0)
(0 0 0)
(0 0 0)
(0 0 0)
(0 0 0)
(0 0 0)
(0 0 0)
(0 0 0)
(0 0 0)
(0 0 0)
(0 0 0)
(0 0 0)
(0 0 0)
(0 0 0)
(0 0 0)
(0 0 0)
(0 0 0)
(0 0 0)
(0 0 0)
(0 0 0)
(0 0 0)
(0 0 0)
(0 0 0)
(0 0 0)
(0 0 0)
(0 0 0)
(0 0 0)
(0 0 0)
(0 0 0)
(0 0 0)
(0 0 0)
(0 0 0)
(0 0 0)
(0 0 0)
(0 0 0)
(0 0 0)
(0 0 0)
(0 0 0)
(0 0 0)
(0 0 0)
(0 0 0)
(0 0 0)
(-0.0182427 -0.0458059 -0.530243)
(0 0 0)
(0 0 0)
(0 0 0)
(0 0 0)
(0 0 0)
(0 0 0)
(0 0 0)
(0 0 0)
(0 0 0)
(0 0 0)
(0 0 0)
(0 0 0)
(0 0 0)
(0 0 0)
(0 0 0)
(0 0 0)
(0 0 0)
(0 0 0)
(0 0 0)
(0 0 0)
(0 0 0)
(0 0 0)
(0 0 0)
(0 0 0)
(0 0 0)
(0 0 0)
(0 0 0)
(0 0 0)
(0 0 0)
(0 0 0)
(0 0 0)
(0 0 0)
(0 0 0)
(0 0 0)
(0 0 0)
(0 0 0)
(0 0 0)
(0 0 0)
(0 0 0)
(0 0 0)
(0 0 0)
(0 0 0)
(0 0 0)
(0 0 0)
(0 0 0)
(0 0 0)
(-0.0352462 -0.0644374 -0.52405)
(0 0 0)
(0.018509 -0.0660597 -0.500794)
(0 0 0)
(0 0 0)
(0 0 0)
(0 0 0)
(0 0 0)
(0 0 0)
(0 0 0)
(0 0 0)
(0 0 0)
(0 0 0)
(0 0 0)
(0 0 0)
(0 0 0)
(0 0 0)
(0 0 0)
(0 0 0)
(0 0 0)
(0 0 0)
(0 0 0)
(0 0 0)
(0 0 0)
(3.8669e-15 7.2462e-15 5.85754e-14)
(0 0 0)
(0 0 0)
(0 0 0)
(0 0 0)
(0 0 0)
(-0.0086252 -0.0319018 -0.544619)
(0 0 0)
(0 0 0)
(0 0 0)
(0 0 0)
(0 0 0)
(0 0 0)
(0 0 0)
(0 0 0)
(0 0 0)
(0 0 0)
(0 0 0)
(0 0 0)
(-0.00670024 -0.0647619 -0.495331)
(0 0 0)
(0 0 0)
(0 0 0)
(0 0 0)
(0 0 0)
(0 0 0)
(0 0 0)
(0 0 0)
(0 0 0)
(0 0 0)
(0 0 0)
(0 0 0)
(0 0 0)
(0 0 0)
(0 0 0)
(0 0 0)
(0 0 0)
(0 0 0)
(0 0 0)
(0 0 0)
(0 0 0)
(0 0 0)
(0 0 0)
(0 0 0)
(0 0 0)
(0 0 0)
(0 0 0)
(0 0 0)
(0 0 0)
(0 0 0)
(0 0 0)
(0 0 0)
(0 0 0)
(0 0 0)
(0 0 0)
(0 0 0)
(0 0 0)
(0 0 0)
(0 0 0)
(0 0 0)
(0 0 0)
(0 0 0)
(0 0 0)
(0 0 0)
(0 0 0)
(0 0 0)
(0 0 0)
(0 0 0)
(0 0 0)
(0 0 0)
(0 0 0)
(0 0 0)
(0 0 0)
(0 0 0)
(0 0 0)
(0 0 0)
(0 0 0)
(0 0 0)
(0 0 0)
(0 0 0)
(0 0 0)
(0 0 0)
(0 0 0)
(0 0 0)
(0 0 0)
(0 0 0)
(0 0 0)
(0 0 0)
(0 0 0)
(0 0 0)
(0 0 0)
(0 0 0)
(0 0 0)
(0 0 0)
(0 0 0)
(0 0 0)
(0 0 0)
(0 0 0)
(0 0 0)
(0 0 0)
(0 0 0)
(0 0 0)
(0 0 0)
(0 0 0)
(0 0 0)
(0 0 0)
(0 0 0)
(0 0 0)
(0 0 0)
(0 0 0)
(0 0 0)
(0 0 0)
(0 0 0)
(0 0 0)
(0 0 0)
(0 0 0)
(0 0 0)
(0 0 0)
(0 0 0)
(0 0 0)
(0 0 0)
(0 0 0)
(0 0 0)
(0 0 0)
(0 0 0)
(0 0 0)
(0 0 0)
(0 0 0)
(0 0 0)
(0 0 0)
(0 0 0)
(0 0 0)
(0 0 0)
(0 0 0)
(0 0 0)
(0 0 0)
(0 0 0)
(0 0 0)
(0 0 0)
(0 0 0)
(0 0 0)
(0 0 0)
(0 0 0)
(0 0 0)
(0 0 0)
(0 0 0)
(0 0 0)
(0 0 0)
(0 0 0)
(0 0 0)
(0 0 0)
(0 0 0)
(0 0 0)
(0 0 0)
(0 0 0)
(0 0 0)
(0 0 0)
(0 0 0)
(0 0 0)
(0 0 0)
(0 0 0)
(0 0 0)
(0 0 0)
(0 0 0)
(0 0 0)
(0 0 0)
(0 0 0)
(0 0 0)
(0 0 0)
(0 0 0)
(0 0 0)
(0 0 0)
(0 0 0)
(0 0 0)
(0 0 0)
(0 0 0)
(0 0 0)
(0 0 0)
(0 0 0)
(0 0 0)
(0 0 0)
(0 0 0)
(0 0 0)
(0 0 0)
(0 0 0)
(0 0 0)
(0 0 0)
(0 0 0)
(0 0 0)
(0 0 0)
(0 0 0)
(0 0 0)
(0 0 0)
(0 0 0)
(0 0 0)
(0 0 0)
(0 0 0)
(0 0 0)
(0 0 0)
(0 0 0)
(0 0 0)
(0 0 0)
(0 0 0)
(0 0 0)
(0 0 0)
(0 0 0)
(0 0 0)
(0 0 0)
(0 0 0)
(0 0 0)
(0 0 0)
(0 0 0)
(0 0 0)
(0 0 0)
(0 0 0)
(0 0 0)
(0 0 0)
(0 0 0)
(0 0 0)
(0 0 0)
(0 0 0)
(0 0 0)
(0 0 0)
(0 0 0)
(0 0 0)
(0 0 0)
(0 0 0)
(0 0 0)
(0 0 0)
(0 0 0)
(0 0 0)
(0 0 0)
(0 0 0)
(0 0 0)
(0 0 0)
(0 0 0)
(0 0 0)
(0 0 0)
(0 0 0)
(0 0 0)
(0 0 0)
(0 0 0)
(0 0 0)
(0 0 0)
(0 0 0)
(0 0 0)
(0 0 0)
(0 0 0)
(0 0 0)
(0 0 0)
(0 0 0)
(0 0 0)
(0 0 0)
(0 0 0)
(0 0 0)
(0 0 0)
(0 0 0)
(0 0 0)
(0 0 0)
(0 0 0)
(0 0 0)
(0 0 0)
(0 0 0)
(0 0 0)
(0 0 0)
(0 0 0)
(0 0 0)
(0 0 0)
(0 0 0)
(0 0 0)
(0 0 0)
(0 0 0)
(0 0 0)
(0 0 0)
(0 0 0)
(0 0 0)
(0 0 0)
(0 0 0)
(0 0 0)
(0 0 0)
(0 0 0)
(0 0 0)
(0 0 0)
(0 0 0)
(0 0 0)
(0 0 0)
(0 0 0)
(0 0 0)
(0 0 0)
(0 0 0)
(0 0 0)
(0 0 0)
(0 0 0)
(0 0 0)
(0 0 0)
(0 0 0)
(0 0 0)
(0 0 0)
(0 0 0)
(0 0 0)
(0 0 0)
(0 0 0)
(0 0 0)
(0 0 0)
(0 0 0)
(0 0 0)
(0 0 0)
(0 0 0)
(0 0 0)
(0 0 0)
(0 0 0)
(0 0 0)
(0 0 0)
(0 0 0)
(0 0 0)
(0 0 0)
(0 0 0)
(0 0 0)
(0 0 0)
(0 0 0)
(0 0 0)
(0 0 0)
(0 0 0)
(0 0 0)
(0 0 0)
(0 0 0)
(0 0 0)
(0 0 0)
(0 0 0)
(0 0 0)
(0 0 0)
(0 0 0)
(0 0 0)
(0 0 0)
(0 0 0)
(0 0 0)
(0 0 0)
(0 0 0)
(0 0 0)
(0 0 0)
(0 0 0)
(0 0 0)
(0 0 0)
(0 0 0)
(0 0 0)
(0 0 0)
(0 0 0)
(0 0 0)
(0 0 0)
(0 0 0)
(0 0 0)
(0 0 0)
(0 0 0)
(0 0 0)
(0 0 0)
(0 0 0)
(0 0 0)
(0 0 0)
(0 0 0)
(0 0 0)
(0 0 0)
(0 0 0)
(0 0 0)
(0 0 0)
(0 0 0)
(0 0 0)
(0 0 0)
(0 0 0)
(0 0 0)
(0 0 0)
(0 0 0)
(0 0 0)
(0 0 0)
(0 0 0)
(0 0 0)
(0 0 0)
(0 0 0)
(0 0 0)
(0 0 0)
(0 0 0)
(0 0 0)
(0 0 0)
(0 0 0)
(0 0 0)
(0 0 0)
(0 0 0)
(0 0 0)
(0 0 0)
(0 0 0)
(0 0 0)
(0 0 0)
(0 0 0)
(0 0 0)
(0 0 0)
(0 0 0)
(0 0 0)
(0 0 0)
(0 0 0)
(0 0 0)
(0 0 0)
(0 0 0)
(0 0 0)
(0 0 0)
(0 0 0)
(0 0 0)
(0 0 0)
(0 0 0)
(0 0 0)
(0 0 0)
(0 0 0)
(0 0 0)
(0 0 0)
(0 0 0)
(0 0 0)
(0 0 0)
(0 0 0)
(0 0 0)
(0 0 0)
(0 0 0)
(0 0 0)
(0 0 0)
(0 0 0)
(0 0 0)
(0 0 0)
(0 0 0)
(0 0 0)
(0 0 0)
(0 0 0)
(0 0 0)
(0 0 0)
(0 0 0)
(0 0 0)
(0 0 0)
(0 0 0)
(0 0 0)
(0 0 0)
(0 0 0)
(0 0 0)
(0 0 0)
(0 0 0)
(0 0 0)
(0 0 0)
(0 0 0)
(0 0 0)
(0 0 0)
(0 0 0)
(0 0 0)
(0 0 0)
(0 0 0)
(0 0 0)
(0 0 0)
(0 0 0)
(0 0 0)
(0 0 0)
(0 0 0)
(0 0 0)
(0 0 0)
(0 0 0)
(0 0 0)
(0 0 0)
(0 0 0)
(0 0 0)
(0 0 0)
(0 0 0)
(0 0 0)
(0 0 0)
(0 0 0)
(0 0 0)
(0 0 0)
(0 0 0)
(0 0 0)
(0 0 0)
(0 0 0)
(0 0 0)
(0 0 0)
(0 0 0)
(0 0 0)
(0 0 0)
(0 0 0)
(0 0 0)
(0 0 0)
(0 0 0)
(0 0 0)
(0 0 0)
(0 0 0)
(0 0 0)
(0 0 0)
(0 0 0)
(0 0 0)
(0 0 0)
(0 0 0)
(0 0 0)
(0 0 0)
(0 0 0)
(0 0 0)
(0 0 0)
(0 0 0)
(0 0 0)
(0 0 0)
(0 0 0)
(0 0 0)
(0 0 0)
(0 0 0)
(0 0 0)
(0 0 0)
(0 0 0)
(0 0 0)
(0 0 0)
(0 0 0)
(0 0 0)
(0 0 0)
(0 0 0)
(0 0 0)
(0 0 0)
(0 0 0)
(0 0 0)
(0 0 0)
(0 0 0)
(0 0 0)
(0 0 0)
(0 0 0)
(0 0 0)
(0 0 0)
(0 0 0)
(0 0 0)
(0 0 0)
(0 0 0)
(0 0 0)
(0 0 0)
(0 0 0)
(0 0 0)
(0 0 0)
(0 0 0)
(0 0 0)
(0 0 0)
(0 0 0)
(0 0 0)
(0 0 0)
(0 0 0)
(0 0 0)
(0 0 0)
(0 0 0)
(0 0 0)
(0 0 0)
(0 0 0)
(0 0 0)
(0 0 0)
(0 0 0)
(0 0 0)
(0 0 0)
(0 0 0)
(0 0 0)
(0 0 0)
(0 0 0)
(0 0 0)
(0 0 0)
(0 0 0)
(0 0 0)
(0 0 0)
(0 0 0)
(0 0 0)
(0 0 0)
(0 0 0)
(0 0 0)
(0 0 0)
(0 0 0)
(0 0 0)
(0 0 0)
(0 0 0)
(0 0 0)
(0 0 0)
(0 0 0)
(0 0 0)
(0 0 0)
(0 0 0)
(0 0 0)
(0 0 0)
(0 0 0)
(0 0 0)
(0 0 0)
(0 0 0)
(0 0 0)
(0 0 0)
(0 0 0)
(0 0 0)
(0 0 0)
(0 0 0)
(0 0 0)
(0 0 0)
(0 0 0)
(0 0 0)
(0 0 0)
(0 0 0)
(0 0 0)
(0 0 0)
(0 0 0)
(0 0 0)
(0 0 0)
(0 0 0)
(0 0 0)
(0 0 0)
(0 0 0)
(0 0 0)
(0 0 0)
(0 0 0)
(0 0 0)
(0 0 0)
(0 0 0)
(0 0 0)
(0 0 0)
(0 0 0)
(0 0 0)
(0 0 0)
(0 0 0)
(0 0 0)
(0 0 0)
(0 0 0)
(0 0 0)
(0 0 0)
(0 0 0)
(0 0 0)
(0 0 0)
(0 0 0)
(0 0 0)
(0 0 0)
(0 0 0)
(0 0 0)
(0 0 0)
(0 0 0)
(0 0 0)
(0 0 0)
(0 0 0)
(0 0 0)
(0 0 0)
(0 0 0)
(0 0 0)
(0 0 0)
(0 0 0)
(0 0 0)
(0 0 0)
(0 0 0)
(0 0 0)
(0 0 0)
(0 0 0)
(0 0 0)
(0 0 0)
(0 0 0)
(0 0 0)
(0 0 0)
(0 0 0)
(0 0 0)
(0 0 0)
(0 0 0)
(0 0 0)
(0 0 0)
(0 0 0)
(0 0 0)
(0 0 0)
(0 0 0)
(0 0 0)
(0 0 0)
(0 0 0)
(0 0 0)
(0 0 0)
(0 0 0)
(0 0 0)
(0 0 0)
(0 0 0)
(0 0 0)
(0 0 0)
(0 0 0)
(0 0 0)
(0 0 0)
(0 0 0)
(0 0 0)
(0 0 0)
(0 0 0)
(0 0 0)
(0 0 0)
(0 0 0)
(0 0 0)
(0 0 0)
(0 0 0)
(0 0 0)
(0 0 0)
(0 0 0)
(0 0 0)
(0 0 0)
(0 0 0)
(0 0 0)
(0 0 0)
(0 0 0)
(0 0 0)
(0 0 0)
(0 0 0)
(0 0 0)
(0 0 0)
(0 0 0)
(0 0 0)
(0 0 0)
(0 0 0)
(0 0 0)
(0 0 0)
(0 0 0)
(0 0 0)
(0 0 0)
(0 0 0)
(0 0 0)
(0 0 0)
(0 0 0)
(0 0 0)
(0 0 0)
(0 0 0)
(0 0 0)
(0 0 0)
(0 0 0)
(0 0 0)
(0 0 0)
(0 0 0)
(0 0 0)
(0 0 0)
(0 0 0)
(0 0 0)
(0 0 0)
(0 0 0)
(0 0 0)
(0 0 0)
(0 0 0)
(0 0 0)
(0 0 0)
(0 0 0)
(0 0 0)
(0 0 0)
(0 0 0)
(0 0 0)
(0 0 0)
(0 0 0)
(0 0 0)
(0 0 0)
(0 0 0)
(0 0 0)
(0 0 0)
(0 0 0)
(0 0 0)
(0 0 0)
(0 0 0)
(0 0 0)
(0 0 0)
(0 0 0)
(0 0 0)
(0 0 0)
(0 0 0)
(0 0 0)
(0 0 0)
(0 0 0)
(0 0 0)
(0 0 0)
(0 0 0)
(0 0 0)
(0 0 0)
(0 0 0)
(0 0 0)
(0 0 0)
(0 0 0)
(0 0 0)
(0 0 0)
(0 0 0)
(0 0 0)
(0 0 0)
(0 0 0)
(0 0 0)
(0 0 0)
(0 0 0)
(0 0 0)
(0 0 0)
(0 0 0)
(0 0 0)
(0 0 0)
(0 0 0)
(0 0 0)
(0 0 0)
(0 0 0)
(0 0 0)
(0 0 0)
(0 0 0)
(0 0 0)
(0 0 0)
(0 0 0)
(0 0 0)
(0 0 0)
(0 0 0)
(0 0 0)
(0 0 0)
(0 0 0)
(0 0 0)
(0 0 0)
(0 0 0)
(0 0 0)
(0 0 0)
(0 0 0)
(0 0 0)
(0 0 0)
(0 0 0)
(0 0 0)
(0 0 0)
(0 0 0)
(0 0 0)
(0 0 0)
(0 0 0)
(0 0 0)
(0 0 0)
(0 0 0)
(0 0 0)
(0 0 0)
(0 0 0)
(0 0 0)
(0 0 0)
(0 0 0)
(0 0 0)
(0 0 0)
(0 0 0)
(0 0 0)
(0 0 0)
(0 0 0)
(0 0 0)
(0 0 0)
(0 0 0)
(0 0 0)
(0 0 0)
(0 0 0)
(0 0 0)
(0 0 0)
(0 0 0)
(0 0 0)
(0 0 0)
(0 0 0)
(0 0 0)
(0 0 0)
(0 0 0)
(0 0 0)
(0 0 0)
(0 0 0)
(0 0 0)
(0 0 0)
(0 0 0)
(0 0 0)
(0 0 0)
(0 0 0)
(0 0 0)
(0 0 0)
(0 0 0)
(0 0 0)
(0 0 0)
(0 0 0)
(0 0 0)
(0 0 0)
(0 0 0)
(0 0 0)
(0 0 0)
(0 0 0)
(0 0 0)
(0 0 0)
(0 0 0)
(0 0 0)
(0 0 0)
(0 0 0)
(0 0 0)
(0 0 0)
(0 0 0)
(0 0 0)
(0 0 0)
(0 0 0)
(0 0 0)
(0 0 0)
(0 0 0)
(0 0 0)
(0 0 0)
(0 0 0)
(0 0 0)
(0 0 0)
(0 0 0)
(0 0 0)
(0 0 0)
(0 0 0)
(-0.0089803 0.0534724 -0.0264176)
(-0.179385 0.0607892 -0.0277774)
(-0.157457 0.0768135 0.0164874)
(-0.232706 0.115449 -0.00191942)
(-0.129058 0.0493891 -0.0777817)
(-0.136712 0.114639 -0.0430245)
(-0.0440022 0.105625 -0.0764694)
(0.0218203 0.0692328 -0.0741866)
(0.0486963 0.0653998 -0.0512153)
(0.0234702 0.081621 -0.0315793)
(0.0388038 0.1229 -0.00926551)
(0.0864835 0.132002 3.88973e-05)
(0.106879 0.183425 0.00343151)
(-0.0803502 0.140296 0.017219)
(-0.162633 0.213454 0.018076)
(0.0168619 0.201105 0.000924242)
(-0.0459064 0.24042 0.0178135)
(-0.111376 0.270769 0.00682292)
(-0.00729884 0.281644 0.023026)
(-0.0556843 0.3154 0.0190923)
(-0.0485615 0.305507 0.0254439)
(0.0270758 0.180002 0.0110848)
(0.00648785 0.0902897 -0.0357666)
(-0.0203252 0.230639 0.0228829)
(0.0151914 0.108382 0.00543436)
(0.00377863 0.0281784 -0.00156718)
(0.0750353 0.083996 -0.0105101)
(0.0309153 -0.0665972 -0.0316643)
(0.0689735 0.0211666 0.0105687)
(0.112414 0.199696 0.0185561)
(0.0967244 0.219655 -0.00161389)
(0.092296 0.138643 0.00947019)
(0.0788192 0.193839 0.00218286)
(-0.0212075 0.229318 0.00281878)
(-0.0795735 0.266873 0.00416047)
(0.03301 0.228912 0.00109152)
(0.0218692 0.256927 -0.0021501)
(-0.0895214 0.236555 0.00646977)
(-0.0803585 0.224555 0.00729301)
(-0.0949105 -0.0511164 0.00622978)
(-0.168501 -0.103545 0.00286922)
(-0.035238 0.186186 0.0205466)
(-0.088114 -0.0813051 -0.0111006)
(-0.211586 -0.0912343 -0.0534114)
(-0.150174 -0.127999 -0.0352123)
(-0.0754452 -0.0991234 -0.00794525)
(-0.114085 -0.149361 -0.0252433)
(-0.0617869 -0.116325 -0.0570711)
(0.0335132 -0.0811641 -0.0290477)
(0.0667254 -0.0730846 0.00395002)
(0.00415865 -0.102832 -0.029209)
(0.020856 0.0440751 0.0272828)
(0.0153474 0.213335 0.00487244)
(-0.0235171 -0.160476 -0.0299905)
(-0.0905465 0.196705 0.0021987)
(0.00637711 0.233385 -0.000829102)
(0.00310699 0.125134 0.00772748)
(-0.0361267 0.173196 0.00355116)
(0.00477947 0.0325338 0.00632278)
(-0.0303362 -0.0386999 0.0119436)
(-0.142866 -0.12072 0.00111483)
(-0.00145777 -0.0710634 0.0192118)
(-0.0866405 -0.0905746 0.0163495)
(-0.241849 -0.0538681 -0.0699063)
(-0.196604 -0.0347945 -0.0449999)
(-0.174116 -0.0546099 0.013759)
(-0.207004 0.0142035 -0.0273351)
(-0.1032 -0.049883 -0.0280952)
(-0.045912 -0.0563721 -0.0552681)
(-0.0916376 0.00794567 -0.0325931)
(0.00237173 -0.0814276 -0.0373035)
(0.0215721 -0.120461 -0.0449281)
(0.0413039 -0.142888 -0.0756246)
(0.0259666 -0.0654555 -0.0404479)
(0.0684367 -0.102218 -0.0601833)
(-0.0436632 -0.0654277 -0.00370972)
(-0.0288056 -0.0622526 0.00366464)
(-3.70329e-05 -0.0770523 -0.013347)
(-0.0347394 -0.0559502 0.00331919)
(-0.0301353 -0.0810702 0.0059331)
(-0.0457516 -0.0848421 0.00595557)
(-0.0345976 -0.0530796 0.00595605)
(-0.0651599 -0.0580989 0.00300954)
(-0.140229 -0.0683878 0.00626657)
(-0.144011 -0.0182112 -0.00470239)
(-0.123603 -0.0272191 -0.0314774)
(-0.0757459 -0.00941876 -0.0278006)
(-0.0781969 0.0192473 -0.0268159)
(0.0735137 -0.0418398 -0.075923)
(0.0974663 -0.0374427 -0.0714247)
(-0.0131215 -0.0146648 -0.00628927)
(-0.00545388 -0.00795149 0.00105814)
(-0.0150413 -0.0158937 -0.00284628)
(-0.0399625 -0.0200009 -0.0202123)
(0.000425111 -0.00244382 -0.000620504)
(-0.0737201 -0.00143384 -0.0658849)
(-3.97178e-05 0.0289799 -0.199649)
(0.00119663 -0.003333 -0.290441)
(-0.0644297 0.0535839 -0.0852894)
(-0.136215 0.0509259 0.126628)
(-0.155238 0.0594343 0.0317566)
(0.0832929 -0.0119924 -0.182151)
(-0.04297 -0.000749707 0.0632695)
(-0.0234502 -0.0171594 0.0531878)
(-0.103648 0.05374 -0.103479)
(-0.0840276 0.033572 -0.162802)
(0.0994693 0.0225532 -0.309127)
(0.0384164 0.0237958 -0.205636)
(0.0304158 0.0236809 -0.228097)
(-0.0693867 0.00254759 -0.211167)
(0.0326225 0.0347566 -0.267376)
(0.0318976 0.0164481 -0.130108)
(0.0173281 -0.00860235 -0.169608)
(-0.0269282 0.0871865 -0.0281106)
(0.0671687 0.0634988 -0.0264931)
(0.0294368 0.150562 0.0870341)
(-0.0545759 0.0304376 -0.154745)
(-0.0625143 0.00994089 -0.0361479)
(0.0279799 -0.0283127 -0.0392298)
(-0.0577081 0.0746597 0.0475824)
(-0.0103519 0.0347954 -0.16656)
(-0.0406525 0.187598 -0.00360805)
(-0.0114994 0.107407 -0.134641)
(-0.0265885 0.0501081 -0.214918)
(0.0234724 0.0742424 -0.265141)
(-0.0642946 0.107007 -0.0898484)
(0.0193034 0.155561 -0.260051)
(0.0357197 0.0840418 -0.189276)
(0.0636419 0.143819 -0.284798)
(0.0673203 -0.01533 -0.0757754)
(0.019748 -0.072094 -0.121798)
(0.0672182 -0.0730057 -0.0452658)
(0.0404741 -0.0474978 -0.111657)
(0.00849447 -0.0109481 -0.156757)
(0.0292145 -0.0778819 -0.0844986)
(-0.0442183 -0.035138 -0.071085)
(-0.0283854 0.0411749 -0.132864)