/*--------------------------------*- C++ -*----------------------------------*\
| =========                 |                                                 |
| \\      /  F ield         | OpenFOAM: The Open Source CFD Toolbox           |
|  \\    /   O peration     | Version:  5.x                                   |
|   \\  /    A nd           | Web:      www.OpenFOAM.org                      |
|    \\/     M anipulation  |                                                 |
\*---------------------------------------------------------------------------*/
FoamFile
{
    version     2.0;
    format      ascii;
    class       surfaceScalarField;
    location    "7.75";
    object      phi;
}
// * * * * * * * * * * * * * * * * * * * * * * * * * * * * * * * * * * * * * //

dimensions      [0 3 -1 0 0 0 0];

internalField   nonuniform List<scalar> 
29271
(
-3.85511e-06
4.16687e-06
-3.30473e-06
3.05402e-06
-6.20352e-06
-5.51223e-06
7.0555e-06
4.91578e-06
-2.04152e-05
-6.63316e-06
8.25049e-06
-1.01339e-05
9.95898e-06
1.89728e-05
-1.92236e-05
-2.24955e-06
8.25654e-06
-6.23166e-06
4.34728e-06
1.5101e-05
-1.24314e-05
3.95446e-08
-6.9993e-07
1.36832e-06
8.55748e-06
3.16595e-06
-1.61159e-05
-1.19554e-05
-2.71449e-07
-9.6978e-07
2.08341e-05
8.47854e-06
-1.65445e-05
-1.58291e-05
2.89864e-06
-3.26021e-06
2.28938e-05
9.84133e-06
-1.02802e-05
-7.71285e-06
3.73292e-06
-3.29294e-06
1.11799e-05
6.37321e-06
-1.15581e-05
-3.959e-06
2.39186e-06
-1.3722e-06
5.81012e-06
8.68735e-06
-1.14165e-05
-1.57061e-06
4.45928e-06
8.12558e-06
4.66768e-07
-4.97546e-06
4.21609e-07
-4.27471e-08
4.58844e-06
-2.05229e-05
2.57739e-06
-1.6764e-05
-4.13225e-06
5.52761e-06
3.33141e-05
-2.3608e-05
-2.23332e-05
1.37874e-05
-2.83635e-05
1.69177e-05
4.35996e-05
-2.00443e-05
-1.6284e-05
2.89945e-05
-1.87838e-05
1.71757e-05
8.94191e-06
-1.587e-05
-8.88148e-06
1.37549e-05
-1.31445e-05
1.91549e-05
4.98624e-06
-1.60085e-05
-5.64955e-06
-4.50908e-06
7.27154e-06
1.15535e-05
7.34213e-06
-1.88403e-05
1.97201e-06
-1.06914e-05
-8.74876e-06
3.35985e-05
2.70994e-06
-2.51994e-05
1.9177e-05
-9.07077e-06
-3.29527e-05
-7.07355e-06
5.51194e-05
-1.96206e-05
-2.13311e-05
2.91599e-05
-2.29555e-05
2.26496e-05
1.20977e-05
-2.35652e-05
-1.99138e-05
1.74699e-05
1.94906e-05
-2.58133e-05
3.23318e-05
-4.20632e-06
-3.0003e-06
5.17972e-06
2.07816e-06
-1.33763e-05
1.88379e-06
-2.77473e-06
9.1931e-06
5.0697e-06
-1.87101e-05
8.5058e-06
-1.69571e-05
1.1028e-05
3.6612e-05
-2.04786e-05
-5.31132e-06
-4.48153e-06
6.37247e-06
3.44978e-06
-2.32055e-06
-1.79886e-07
6.96608e-07
1.85112e-06
-3.85641e-06
-2.38891e-06
2.78525e-06
3.52766e-06
-1.38468e-06
2.03795e-06
-1.36424e-05
-1.2463e-06
4.32074e-06
9.91472e-06
-7.38235e-07
-1.13864e-05
8.55998e-07
-2.04324e-07
2.52042e-06
8.95252e-06
-7.54709e-06
-4.6625e-07
3.59341e-07
9.84495e-07
6.8512e-06
-1.81702e-07
-1.70775e-06
6.49944e-07
-5.67497e-06
-6.57371e-07
-1.71312e-06
9.10327e-06
-5.95139e-06
7.85317e-06
5.09283e-05
-4.92431e-06
-4.3442e-06
-2.39972e-05
-9.20005e-06
-4.63399e-06
-4.63653e-06
-3.39422e-06
-3.32709e-06
2.24707e-06
1.22459e-06
1.13646e-06
1.0194e-06
-4.27377e-06
4.47679e-06
2.30661e-05
-5.29879e-06
-5.67862e-06
-3.59618e-06
-4.25059e-06
-3.08822e-06
-2.77807e-06
-2.36661e-06
-2.16345e-06
-3.22567e-07
5.83812e-06
2.20943e-05
-1.85656e-06
-1.38699e-06
-1.43333e-06
-1.1361e-06
-2.19978e-07
1.71128e-09
-6.64102e-08
-6.46599e-06
-5.82178e-06
-7.22287e-06
-6.2753e-06
-7.73655e-06
-1.03664e-06
1.20296e-06
7.30031e-06
-6.62276e-06
1.76681e-06
-2.01718e-06
6.87881e-06
2.91661e-06
-4.47769e-05
-1.55287e-06
-2.59295e-06
9.09116e-06
3.6915e-05
-8.99111e-07
8.13321e-06
0.000120619
-4.62963e-05
-1.80834e-05
-4.62865e-05
-1.12387e-05
1.50355e-06
5.10993e-06
-1.83636e-06
-2.8717e-06
-3.47477e-06
-1.49014e-07
2.29603e-05
-2.99814e-06
-2.24896e-06
-3.73599e-06
-6.77572e-06
-1.38162e-06
5.16156e-07
3.07884e-05
-1.49798e-06
-1.09015e-06
-9.53066e-07
9.72164e-07
7.72226e-07
9.44309e-07
-5.27729e-06
-6.51235e-06
-8.62593e-06
-6.29149e-06
-8.29083e-06
-8.87073e-07
-8.9319e-07
2.58479e-06
6.10467e-06
-3.69775e-05
8.70312e-07
3.71064e-06
4.11693e-06
3.25535e-05
-4.27383e-06
-6.95342e-06
-8.06918e-10
0.000164383
-1.08591e-05
-1.0329e-06
-4.43505e-06
2.60079e-08
-4.81577e-06
1.71267e-06
-1.3872e-06
-6.88119e-05
-2.32214e-05
-1.27965e-05
-2.3674e-05
-1.01774e-06
1.13629e-07
9.09299e-05
-5.01337e-08
-2.73929e-07
1.57849e-07
2.44862e-07
-5.65286e-07
-1.04885e-06
-9.2966e-06
-2.72483e-05
-2.283e-05
-3.62179e-05
-8.23297e-06
-1.21064e-07
1.01842e-06
6.83403e-06
-1.99093e-06
-1.48218e-06
1.14199e-06
2.35711e-06
-8.03165e-06
1.14665e-06
-6.78156e-06
1.36062e-05
-5.43512e-05
7.08771e-06
-6.4259e-06
2.84751e-06
5.09555e-05
-3.57268e-06
7.89556e-08
-1.15054e-06
4.60164e-06
-1.5802e-06
1.83491e-07
1.61348e-07
1.26749e-06
-3.29453e-06
-2.45545e-06
2.62149e-06
3.22621e-06
-1.15101e-06
1.9792e-06
-7.76945e-06
-1.19562e-06
1.7306e-06
6.40628e-06
-8.07359e-07
-7.27282e-06
7.45072e-07
-3.41751e-07
1.83524e-06
5.84162e-06
-5.94215e-06
-4.64948e-07
4.51651e-07
1.17094e-06
4.76332e-06
2.1185e-08
-2.32451e-06
4.17443e-06
-1.43195e-05
-5.567e-06
-1.03276e-06
1.90694e-05
-4.98059e-08
7.3454e-06
3.98261e-05
-2.24911e-06
-2.52644e-06
-1.68737e-06
-2.14782e-06
8.76801e-07
9.6841e-07
3.68721e-06
6.88492e-06
-2.22851e-06
3.17455e-06
3.17259e-05
-2.71016e-06
-2.48429e-06
-2.24912e-06
-2.21202e-06
-1.4033e-06
5.89557e-06
2.53623e-05
-2.05956e-06
-1.53667e-06
-1.75021e-06
-1.51548e-06
-1.13478e-06
-1.07848e-06
-9.13639e-07
-6.77649e-06
-7.51281e-07
1.08991e-06
5.11023e-06
-6.30781e-06
1.50165e-06
-1.58292e-06
6.38203e-06
7.27576e-07
-3.05926e-05
2.92063e-06
3.28828e-07
-2.56176e-06
2.91774e-05
2.63965e-06
6.08895e-06
0.000126966
-2.26971e-06
-4.1387e-06
6.23016e-07
-1.94574e-06
-2.59346e-06
-4.59743e-07
3.18277e-05
-1.60868e-06
6.9234e-07
3.44601e-05
-1.41689e-06
-1.25993e-06
-1.65245e-06
8.92527e-07
2.014e-06
1.96949e-06
-5.32129e-06
-1.1441e-06
-2.15449e-06
2.49924e-06
4.51195e-06
-3.10906e-05
-4.56605e-07
8.02824e-07
4.56783e-06
3.06993e-05
-4.52278e-06
-8.48598e-07
2.49308e-06
0.000162509
-8.64901e-07
-6.16105e-07
4.07673e-08
5.32492e-07
-8.20575e-08
3.3522e-06
3.95587e-06
-3.82384e-07
3.40171e-07
8.42724e-05
3.4219e-08
-2.00947e-07
-7.88966e-07
1.55829e-07
3.16132e-06
3.02984e-06
-6.66588e-06
-4.0501e-07
2.52477e-07
7.12836e-06
-2.94452e-06
-1.29871e-06
7.6981e-07
3.51974e-06
-2.15388e-05
1.31666e-06
-7.36673e-06
3.00705e-05
-4.42593e-05
2.67928e-06
-1.33806e-07
1.14265e-06
4.09114e-05
-6.74925e-06
-1.02881e-08
-7.15562e-07
7.4747e-06
-9.58491e-07
3.24751e-07
6.49503e-08
6.18912e-07
-3.96594e-06
-2.91945e-06
2.62769e-06
4.23941e-06
-4.80057e-07
2.61961e-06
-5.48117e-06
-7.81698e-07
6.6276e-07
3.46056e-06
-1.13367e-06
-4.98834e-06
3.62598e-07
-6.34974e-07
1.16975e-06
5.22465e-06
-3.53536e-06
-5.11135e-07
5.07556e-07
1.26007e-06
2.01598e-06
2.62892e-07
-2.7537e-06
1.815e-06
-1.90446e-05
-8.61131e-07
2.51476e-06
1.83297e-05
8.40502e-07
1.13464e-05
3.34367e-05
-1.34451e-06
-1.77445e-06
-1.65173e-06
-1.62822e-06
-3.15219e-07
3.56067e-06
-4.00411e-06
1.36002e-06
-3.26107e-06
1.20754e-05
3.34575e-05
-1.80877e-06
-1.76111e-06
-2.86671e-06
-3.26885e-06
-5.33299e-07
1.06209e-05
2.03972e-05
-1.59984e-06
-1.52446e-06
-1.83652e-06
-1.5379e-06
-3.98391e-07
-7.32423e-07
-7.54016e-07
-3.3406e-06
-3.91941e-07
1.25585e-06
1.99544e-06
-6.33953e-06
-2.99889e-06
4.69531e-06
4.64311e-06
-3.73825e-06
-3.06804e-05
-3.50103e-06
2.15454e-06
4.06254e-06
3.17026e-05
3.12324e-06
-4.48587e-06
0.000160208
-3.76007e-06
-3.95628e-06
-5.4276e-06
-7.38864e-06
-1.80439e-05
-9.93487e-07
6.60637e-05
-2.24808e-06
2.16985e-07
4.7414e-05
-4.22576e-06
-4.18195e-06
-7.01868e-06
-8.85325e-07
-4.46666e-07
-1.58744e-06
-4.72669e-06
-2.04421e-06
-1.76166e-06
2.96146e-06
3.32301e-06
-3.2607e-05
-2.22766e-06
2.83212e-06
2.61512e-06
2.96794e-05
-2.91936e-07
-2.06881e-06
-5.53441e-07
0.000186484
-5.1355e-06
-4.77249e-06
-7.42053e-06
-5.66333e-06
1.42772e-06
-2.22741e-06
-2.04747e-06
-6.83003e-06
9.41032e-07
0.000107813
-6.21916e-06
-6.92353e-06
-6.51873e-06
4.65722e-07
-3.98444e-07
-1.11992e-06
-7.2196e-06
-3.38009e-06
-1.28876e-07
4.11553e-06
-3.47623e-06
9.8334e-07
-1.46562e-07
2.63945e-06
-3.17848e-05
-2.33485e-06
1.83184e-06
3.17344e-05
-4.83948e-05
6.97591e-07
-4.02643e-06
1.25989e-06
5.14048e-05
-4.16076e-06
-1.40533e-06
4.07996e-06
1.48613e-06
-2.77863e-07
2.63466e-07
2.56555e-08
2.7194e-08
-4.00874e-06
-9.96909e-07
1.65955e-06
3.3461e-06
-6.23237e-07
1.76028e-07
-2.41522e-06
1.37973e-07
1.88452e-07
2.536e-06
-1.94159e-06
-5.66504e-06
5.39159e-07
-9.18887e-07
1.70002e-06
6.28634e-06
-1.90804e-07
-6.71757e-07
4.85822e-07
2.74282e-06
-2.98267e-06
6.16597e-07
-1.83393e-06
-5.99565e-07
-1.64633e-05
2.45513e-06
1.30508e-06
1.51366e-05
-5.33551e-06
1.1847e-06
4.03332e-05
-4.29042e-07
-7.1972e-07
-8.1974e-07
-1.10186e-06
-2.04937e-06
1.4385e-06
-9.16266e-07
1.85182e-06
-6.38183e-06
8.19882e-06
3.22722e-05
-1.1315e-06
-2.71396e-06
-1.20566e-06
-9.16064e-07
-3.48527e-07
1.13231e-05
1.12279e-05
-3.82814e-06
-1.30475e-06
-1.80322e-06
-1.2338e-06
7.19587e-08
-3.36017e-07
2.46796e-07
-5.36572e-08
-3.9901e-08
1.78806e-06
-2.0434e-06
-4.83393e-06
-1.78003e-06
1.30092e-06
5.31305e-06
-1.51184e-06
-3.1707e-05
-2.48365e-06
2.08104e-06
2.37071e-06
3.12507e-05
1.08715e-05
-3.44154e-06
0.00017441
-4.97651e-06
-7.39951e-06
-2.66755e-06
-5.40373e-06
-5.60349e-06
-3.00508e-07
9.1038e-05
-1.31391e-07
3.24489e-06
3.42263e-05
-6.13782e-07
1.65392e-06
1.81406e-06
2.70517e-06
5.82509e-06
4.40938e-06
1.47718e-06
-3.59129e-06
-2.54135e-06
4.21106e-06
3.12997e-07
-2.61183e-05
-2.31023e-06
4.1581e-06
2.71923e-06
2.42584e-05
-2.70726e-06
4.87691e-06
-6.803e-07
0.000194827
-5.73017e-06
-3.74047e-06
-3.28638e-06
-1.85985e-06
-1.45532e-06
7.88885e-07
-6.97882e-07
-2.84027e-06
-5.29743e-08
0.000121001
-9.40644e-07
-7.05181e-07
6.44976e-07
-1.73016e-06
-1.03456e-07
-2.88365e-06
-2.5324e-06
-2.47742e-06
1.16944e-06
4.24501e-06
-1.66341e-06
-1.88289e-06
1.22307e-06
2.32323e-06
-3.13917e-05
-6.44715e-07
-3.70669e-07
3.17268e-05
-5.01013e-05
-2.4064e-07
4.29651e-07
1.14567e-06
4.87136e-05
-1.32296e-06
8.58505e-07
2.99707e-08
4.3448e-07
3.07868e-08
-1.53742e-07
6.6818e-07
-5.45277e-07
-2.87597e-06
-1.8998e-07
4.57817e-07
2.60813e-06
-2.09658e-06
3.11421e-07
-3.20728e-06
-8.12261e-07
1.84075e-06
3.96395e-06
-1.74976e-06
-5.5689e-06
9.18193e-07
-7.47845e-07
2.03219e-06
5.11613e-06
4.37231e-06
2.38479e-07
-6.65778e-07
6.09946e-07
-5.24091e-06
6.85949e-07
-6.78648e-07
8.00254e-07
-1.37908e-05
6.60882e-07
6.66103e-07
1.23422e-05
-3.57967e-06
-3.31616e-06
5.76384e-05
-1.2474e-06
-1.45145e-06
-1.58033e-06
-1.03207e-06
-1.77296e-06
-2.15899e-07
-1.71715e-06
-1.39215e-06
-7.22851e-06
2.79234e-06
3.62662e-05
-1.14693e-06
-3.96323e-07
-3.87327e-07
-1.20698e-06
-1.59562e-07
9.91703e-06
-3.1693e-07
-9.46123e-07
-9.72289e-07
-7.82148e-07
-5.91926e-07
-2.61038e-07
-9.90822e-08
-1.78853e-06
3.5416e-06
-6.111e-07
-2.06761e-07
1.61409e-06
-4.4974e-06
-1.75526e-07
-9.15958e-09
4.35952e-08
1.4164e-07
-5.52996e-06
-1.26855e-06
1.01716e-06
5.78136e-06
-1.26171e-06
-3.11327e-05
-2.08214e-06
2.02608e-06
1.5621e-06
3.08883e-05
1.62443e-05
-4.84244e-06
0.000178649
-3.92541e-06
-6.85804e-06
-2.64669e-06
-5.52653e-06
4.63823e-06
-4.14514e-06
0.000109582
1.61379e-06
4.51768e-06
2.94963e-05
2.02188e-06
5.70558e-07
1.04798e-06
3.09204e-06
4.00942e-06
2.41194e-06
-2.55008e-06
-1.30145e-06
8.86815e-07
2.97219e-06
1.60631e-06
2.23924e-09
5.25918e-08
-7.46256e-09
-5.06769e-08
2.56825e-09
-2.42097e-05
-2.00383e-06
2.82344e-06
-3.36212e-07
2.48151e-05
-1.0888e-06
7.47838e-06
1.43439e-06
0.000187888
-3.13259e-06
-1.63029e-06
-1.90125e-06
-1.53742e-06
-4.2443e-07
1.63671e-06
1.73142e-07
1.04279e-07
-8.45939e-07
0.000129227
1.02533e-06
9.47424e-07
1.0291e-06
-3.56372e-06
-8.23464e-07
-2.76529e-06
-7.06901e-06
-3.49766e-07
3.00941e-06
9.03133e-06
-3.10562e-06
-1.33122e-06
3.8799e-07
4.04885e-06
-3.20722e-05
-1.55708e-07
2.00847e-06
3.16538e-05
-4.77569e-05
-2.10655e-06
3.12731e-06
-6.07527e-07
4.64977e-05
-1.54825e-06
3.45828e-07
-1.69737e-06
2.89979e-06
1.246e-06
-8.03171e-07
1.15413e-06
-1.59695e-06
-2.12187e-06
4.76116e-07
2.14018e-08
1.62435e-06
-5.67339e-07
3.43443e-07
-4.93656e-06
-1.00956e-06
1.41153e-06
4.75849e-06
-1.05941e-06
-4.84862e-06
9.11733e-07
4.13303e-07
2.71897e-08
4.5558e-06
4.92161e-06
2.38924e-07
-1.64556e-07
5.22213e-07
-4.66884e-06
-8.49357e-07
-4.70901e-07
3.38773e-07
-1.12697e-05
2.95257e-07
2.37689e-07
1.08689e-05
-3.5024e-06
-1.9718e-06
7.41902e-05
-1.26125e-06
-9.88368e-07
-1.18521e-06
-7.27928e-07
-1.37071e-06
-2.22507e-06
-1.33477e-06
-1.98431e-06
-5.84128e-06
-1.13118e-06
3.94263e-05
5.04456e-07
-4.09261e-07
5.96158e-07
-3.8135e-07
-9.30123e-07
5.70964e-06
-2.92861e-06
-8.52142e-07
-3.29993e-07
-1.13669e-06
-2.68469e-07
-2.21894e-06
-1.2988e-06
-1.90409e-06
4.96822e-06
-8.02056e-07
-2.13507e-06
-7.45775e-07
-2.21544e-06
-6.3305e-07
2.65857e-07
1.69465e-06
-1.48201e-06
6.47192e-07
-4.9264e-07
-6.11234e-06
-1.03549e-06
7.39363e-07
6.40847e-06
1.85749e-07
-3.07405e-05
-1.28838e-06
1.15886e-06
7.05324e-07
2.99789e-05
1.48092e-05
-5.73886e-06
0.0001872
-4.77954e-06
-6.39812e-06
-3.91945e-06
-4.49641e-06
7.40846e-06
-6.98823e-06
0.000122839
5.20836e-07
3.18218e-06
2.707e-05
1.5623e-06
1.02122e-06
1.89399e-06
2.13532e-06
3.20097e-06
2.02753e-06
-2.20969e-06
1.44052e-06
-1.48562e-06
-4.80248e-07
3.25587e-06
4.01496e-07
-8.99935e-07
2.80583e-06
-2.28752e-06
7.8221e-07
-8.02082e-07
-2.53387e-05
-1.95525e-06
1.95525e-06
4.85258e-07
2.56206e-05
-7.67194e-07
8.1853e-06
1.15549e-06
0.000181137
-2.81566e-06
-1.92616e-06
-2.06686e-06
-2.00591e-06
2.30716e-08
2.4676e-08
4.38082e-07
4.59922e-07
-1.33096e-06
0.000134876
9.47487e-07
8.73584e-07
6.00203e-07
-2.22484e-06
-1.74017e-06
-2.0375e-06
-1.13657e-05
6.38909e-07
2.10588e-06
1.2263e-05
-4.16756e-06
-1.51732e-06
-9.41742e-07
3.10028e-07
6.31659e-06
-6.91556e-08
1.16871e-06
-1.3335e-06
2.33944e-07
-3.09142e-05
-4.02134e-07
2.60226e-06
2.98696e-05
-4.53492e-05
-2.35212e-06
3.95525e-06
-1.26352e-06
4.36786e-05
-4.33676e-06
5.48184e-07
-1.92392e-06
5.7125e-06
1.50386e-06
-1.6322e-06
1.3868e-06
-1.25846e-06
-1.62301e-06
2.23489e-07
-4.40459e-07
1.83998e-06
3.42538e-07
7.42583e-07
-3.60756e-06
-1.01027e-06
1.65007e-06
1.88264e-06
-2.28282e-07
-3.53735e-06
8.3412e-07
6.26879e-07
5.40306e-07
1.76433e-06
4.21047e-06
-1.11422e-06
6.36826e-08
1.17584e-06
-3.27023e-06
-1.06554e-06
-3.2878e-07
-2.74129e-07
-1.09974e-05
7.19888e-07
-6.02434e-07
1.14829e-05
-2.56699e-06
-7.41015e-07
8.93877e-05
-1.56343e-06
-1.67832e-06
-1.78722e-06
-1.72794e-06
-1.03214e-06
-1.86635e-06
-7.74738e-07
-1.45934e-06
-1.47918e-06
-3.06416e-06
4.4078e-05
-1.27949e-07
-7.03331e-07
-7.96544e-07
-1.04752e-06
-7.13003e-07
5.57901e-06
-1.85858e-06
-1.77255e-06
-6.07597e-07
-2.48116e-06
-9.82761e-07
-9.49457e-07
-2.34533e-07
-3.87163e-07
1.7365e-06
-3.90655e-07
-6.47263e-07
6.61141e-07
-2.07273e-06
3.03243e-06
-8.047e-07
6.04562e-07
-5.77644e-07
2.9116e-06
-5.16625e-06
-6.58416e-06
-8.99851e-07
8.64369e-07
6.61964e-06
6.04431e-07
-2.86616e-05
-5.84812e-07
1.45581e-07
1.36718e-06
2.71293e-05
1.08619e-05
-9.65e-06
0.000198617
-4.21034e-06
-4.40562e-06
-2.11074e-06
-2.64332e-06
7.30912e-06
-6.74454e-06
0.000130072
1.22702e-06
2.28347e-06
2.52626e-05
2.24389e-06
1.67026e-06
2.48918e-06
1.3258e-06
2.41777e-06
1.03816e-06
-4.66911e-06
5.36e-07
-3.56776e-07
-7.50232e-07
6.46714e-06
6.16329e-07
-3.95607e-06
8.97575e-07
-6.39736e-07
2.67283e-06
4.09079e-07
-2.58389e-05
-1.43988e-06
1.4614e-06
1.23971e-06
2.5969e-05
-1.39135e-06
7.03959e-06
-1.55956e-06
0.00017864
-2.69084e-06
-1.88134e-06
-1.80743e-06
-1.63916e-06
-7.25624e-07
-1.60654e-06
-2.28219e-06
4.38968e-07
-2.51421e-06
0.000140202
6.3734e-07
1.1218e-06
5.80924e-07
-1.48454e-06
-2.69013e-06
-1.12113e-06
-1.36871e-05
9.08178e-07
1.68716e-06
1.38142e-05
-7.85615e-06
2.08602e-07
-1.41925e-06
6.88183e-07
8.37862e-06
-1.6624e-06
-5.57468e-07
3.47688e-07
-5.79466e-07
2.45164e-06
-2.85028e-05
-6.85119e-07
9.02626e-07
2.67257e-05
-4.19779e-05
-1.71189e-06
3.19067e-06
-2.42352e-06
4.04084e-05
-6.76398e-06
4.91649e-07
-1.35323e-06
7.62556e-06
1.04754e-06
-1.51767e-06
1.33964e-06
-8.69512e-07
-1.7471e-06
1.31208e-06
-8.91118e-07
1.32614e-06
7.98732e-07
-1.65059e-06
2.64749e-07
2.14623e-06
1.05297e-06
-2.6121e-06
-5.00209e-07
1.57718e-07
-2.69239e-06
3.16795e-06
1.5104e-06
-1.64347e-06
2.22103e-06
-2.30545e-06
2.76923e-06
2.51813e-06
-2.2742e-06
-2.92875e-06
3.3646e-07
-2.75485e-07
-1.19741e-05
5.99362e-07
-9.22816e-07
1.22366e-05
-9.59058e-07
-2.94476e-06
0.000101178
-1.6234e-06
-1.85323e-06
-7.16263e-07
-1.08842e-06
-3.60607e-07
-1.49459e-06
1.02883e-08
-7.60676e-07
3.57953e-06
-1.64002e-06
4.50567e-05
-1.17625e-06
-1.22146e-06
-5.9114e-07
-8.88457e-07
1.10642e-06
7.66655e-06
4.69965e-07
-2.77228e-06
-2.3073e-06
-2.56405e-06
-2.56606e-06
1.01123e-06
1.44669e-07
1.53182e-06
2.46951e-06
-1.56054e-06
8.94259e-07
5.4086e-07
-1.23766e-06
6.13208e-06
-1.19355e-06
1.27895e-06
-2.60862e-06
-3.60885e-06
-6.58139e-06
-7.358e-07
7.92422e-07
6.52476e-06
-3.06895e-07
-2.57273e-05
2.33258e-07
1.45552e-07
1.41921e-06
2.42362e-05
6.5313e-06
-1.09002e-05
0.000206947
-2.05283e-06
-2.78147e-06
-7.11307e-07
-1.36012e-06
5.16107e-06
-3.66403e-06
0.000133467
1.63309e-06
1.98627e-06
2.50855e-05
2.34774e-06
1.59615e-06
1.53749e-06
1.11207e-06
2.13801e-06
6.53921e-07
-7.39575e-06
6.23471e-07
2.01478e-06
-1.20815e-06
7.59874e-06
-2.35614e-06
3.00192e-06
-3.27604e-06
3.83794e-06
-3.34519e-06
2.13751e-06
-2.6031e-05
-1.04956e-06
1.43399e-06
1.43373e-06
2.59292e-05
-1.71636e-06
5.05043e-06
-1.23269e-06
0.000178861
-2.4204e-06
-1.47082e-06
-1.57728e-06
-1.28769e-06
-3.69251e-06
-9.60811e-07
-3.52923e-06
4.71186e-07
-2.08919e-06
0.000142447
5.52617e-07
1.19875e-06
6.435e-07
-3.8731e-07
-1.13796e-06
-1.10175e-07
-1.46825e-05
1.10498e-06
1.39999e-06
1.4635e-05
-6.73286e-06
3.7875e-07
-1.85458e-06
8.20869e-06
-2.587e-05
-1.10611e-06
-4.02414e-08
2.57837e-05
-3.88034e-05
-1.22891e-07
1.27601e-06
-1.0321e-06
3.65932e-05
-8.25642e-06
4.02851e-07
-9.69664e-07
8.82323e-06
8.58368e-07
-8.88577e-07
9.78107e-07
-9.47898e-07
-8.63447e-07
2.99595e-06
-2.46275e-06
3.30246e-07
1.14816e-06
-3.39822e-06
3.94712e-06
3.74571e-06
-1.54967e-06
-3.8931e-06
-2.67454e-07
2.52494e-06
-3.94561e-06
4.15536e-06
-1.31568e-07
-2.33567e-06
2.32371e-06
-1.9068e-06
3.29946e-06
1.65756e-06
-1.76281e-06
-3.61112e-06
2.10284e-06
-1.37964e-07
-1.23074e-05
2.53374e-07
-2.0082e-06
1.20973e-05
1.80803e-06
-5.18951e-06
0.000100099
1.17487e-06
7.36208e-07
2.10417e-06
1.70456e-06
3.27099e-08
-8.03158e-07
-2.77678e-07
-2.10789e-07
6.0526e-06
3.33781e-07
3.9764e-05
4.96685e-07
-4.73165e-07
1.04022e-06
-3.49343e-07
-7.9146e-08
8.75427e-06
7.5045e-06
-2.41339e-06
-2.59301e-06
-2.54498e-06
-2.53716e-06
1.50678e-07
-4.46538e-08
3.25452e-07
7.77141e-07
9.94283e-07
-2.07464e-06
2.24072e-07
-6.5602e-06
-2.07198e-07
2.55683e-07
6.51171e-06
-4.13179e-07
-2.25282e-05
1.22088e-06
1.0712e-07
6.29655e-07
2.09837e-05
4.12313e-06
-1.00301e-05
0.000209597
-7.64537e-07
-1.40618e-06
2.6986e-07
-3.14494e-08
3.90077e-06
-1.83997e-07
0.000134207
6.11753e-07
1.75665e-06
2.90995e-05
9.53775e-07
7.83587e-07
1.21597e-06
6.42212e-07
2.11124e-06
5.65851e-07
-1.08833e-05
1.66416e-06
1.27626e-06
-2.45652e-06
1.10112e-05
-2.56424e-05
-7.30103e-07
1.51334e-06
1.37129e-06
2.49762e-05
-1.48825e-06
2.52523e-06
-9.49347e-07
0.000181341
-2.25716e-06
-1.22735e-06
-1.40221e-06
-1.03854e-06
-3.45247e-06
-1.35997e-06
-3.34763e-06
3.26307e-07
-2.9693e-07
0.000141728
5.05331e-07
1.05186e-06
5.63292e-07
3.69694e-07
1.37692e-07
4.02476e-07
-1.54515e-05
1.11101e-06
1.35048e-06
1.5073e-05
-8.41213e-06
2.40319e-06
-1.48556e-06
7.4945e-06
-2.59313e-05
-9.45046e-07
-2.67796e-07
2.61948e-05
-3.43244e-05
1.00557e-06
1.83145e-07
5.15838e-07
3.23229e-05
-9.28965e-06
2.619e-07
-6.82864e-07
9.71061e-06
9.75394e-07
-8.7335e-07
7.02931e-07
-8.04975e-07
4.87447e-07
4.51356e-06
-4.15143e-06
-8.49575e-07
2.63728e-06
-4.22204e-06
3.38365e-06
4.40063e-06
-3.973e-06
-2.22653e-06
3.43713e-07
1.77709e-06
-4.45483e-06
4.47498e-06
-1.37205e-06
-7.68907e-07
1.06577e-06
-1.61072e-06
2.9309e-06
1.41968e-06
-1.73984e-07
-3.63164e-06
2.62018e-06
-1.4506e-06
-1.19882e-05
1.91131e-06
-2.39e-06
1.12973e-05
6.51981e-06
-4.70566e-06
9.07013e-05
3.16287e-06
2.68634e-06
3.6285e-06
3.04366e-06
-1.22882e-06
-5.41752e-07
-3.08204e-06
-8.51569e-08
1.09096e-05
1.23449e-06
3.17355e-05
1.36597e-06
-3.98546e-09
1.32021e-06
-2.7803e-07
6.83109e-07
8.54988e-06
1.55429e-05
-2.28766e-06
-1.76644e-06
-2.50309e-06
-1.09328e-06
4.82143e-07
3.92791e-07
4.13737e-07
-1.60552e-06
1.09932e-06
-2.12821e-06
3.31751e-06
-6.29992e-06
9.0185e-08
1.93105e-07
6.01663e-06
-1.06271e-06
-1.93554e-05
1.71579e-06
6.46972e-07
4.68306e-07
1.75871e-05
4.74578e-06
-7.09241e-06
0.000207595
-4.3784e-07
-7.39859e-07
4.55784e-07
3.64759e-07
5.13898e-06
1.9981e-06
0.00013305
9.35226e-07
1.63689e-06
3.40034e-05
1.359e-06
9.97082e-07
1.29866e-06
5.10431e-07
1.82846e-06
2.19196e-07
-1.08371e-05
1.92204e-06
1.8135e-06
-2.8916e-06
1.09284e-05
-2.42711e-05
-7.8408e-07
1.47946e-06
1.05341e-06
2.36666e-05
-1.14425e-06
4.0152e-07
-1.41891e-06
0.000186341
-2.02247e-06
-7.24062e-07
-1.16227e-06
-5.3795e-07
-2.99954e-06
-1.36002e-06
-2.26877e-06
1.63896e-07
5.2273e-07
0.000139793
3.49053e-07
8.52833e-07
3.87389e-07
7.04717e-07
6.75987e-07
6.78064e-07
-1.57846e-05
1.10611e-06
1.0705e-06
1.54088e-05
-7.52955e-06
1.57805e-06
-1.72935e-06
7.68085e-06
-2.63914e-05
6.14991e-07
-2.35996e-06
2.67174e-05
-3.06997e-05
1.25061e-06
-7.16314e-08
5.04966e-07
2.95384e-05
-1.00018e-05
3.29521e-07
-5.16108e-07
1.01884e-05
5.60238e-07
-1.04655e-06
7.62134e-07
-2.75818e-07
1.46677e-07
4.16092e-06
-5.51585e-06
1.20825e-06
3.06979e-06
-3.46104e-06
8.61909e-07
3.54759e-06
-4.74458e-06
7.26322e-07
4.17485e-07
-2.00951e-07
-3.72891e-06
3.49603e-06
-1.22209e-06
1.23844e-06
-8.39463e-07
-1.55496e-06
8.77472e-07
1.77434e-06
2.14997e-06
-2.40735e-06
4.90936e-06
-2.28055e-06
-8.69992e-06
3.84014e-06
-3.47051e-06
5.70148e-06
1.68144e-05
-5.7796e-06
7.55184e-05
4.53362e-06
3.78921e-06
4.27091e-06
3.79488e-06
-4.03065e-06
-1.81041e-06
-4.0571e-06
-2.34243e-06
1.62747e-05
6.21947e-07
3.03279e-05
1.1657e-06
-1.14103e-08
5.91782e-07
-4.20787e-07
1.05725e-06
7.92447e-06
2.43815e-05
-2.3646e-06
-9.69726e-08
-2.25834e-06
2.62402e-07
9.84895e-07
8.97308e-07
1.02983e-06
-4.67182e-06
1.87038e-06
-2.31472e-06
6.1734e-06
-5.49636e-06
8.55619e-07
3.43083e-07
4.29766e-06
-2.36191e-06
-1.65157e-05
1.40101e-06
8.14066e-07
6.31424e-07
1.60311e-05
7.53906e-06
-4.1467e-06
0.000199103
-5.06763e-07
-6.55042e-07
1.30105e-07
3.51447e-07
8.74803e-06
3.44279e-06
0.00012902
1.3714e-06
1.30401e-06
4.14352e-05
1.56088e-06
1.47455e-06
1.45833e-06
2.26867e-07
1.6958e-06
1.48813e-07
-1.1252e-05
1.73627e-06
1.62531e-06
-2.51048e-06
1.17723e-05
-2.33133e-05
-9.07694e-07
1.15784e-06
9.30135e-07
2.32701e-05
-1.13706e-06
-3.52408e-07
-8.18055e-07
0.000189636
-1.77471e-06
-3.95721e-07
-8.56754e-07
-3.09049e-07
-1.39699e-06
-6.38848e-07
-8.99853e-07
1.03185e-07
8.65922e-07
0.000137594
3.03827e-07
8.3695e-07
3.67607e-07
9.24998e-07
9.93181e-07
8.94116e-07
-1.62667e-05
9.59668e-07
6.61098e-07
1.60532e-05
-7.76258e-06
1.45872e-06
-1.70711e-06
8.01097e-06
-2.68275e-05
7.18488e-07
-1.76611e-06
2.70571e-05
-2.88404e-05
6.7963e-07
-9.39799e-08
5.39803e-07
2.85809e-05
-1.02826e-05
4.9679e-07
-6.3598e-07
1.04218e-05
-5.29357e-08
-1.06308e-06
7.14221e-07
4.01796e-07
-2.46859e-06
2.47551e-06
-3.1783e-06
3.17138e-06
2.71431e-06
-2.17567e-06
-1.94437e-06
2.65462e-06
-4.16179e-06
2.91291e-06
6.08522e-07
-1.98741e-06
-3.01642e-06
2.24213e-06
-7.79347e-07
2.93252e-06
-3.56053e-06
-1.32256e-06
-9.60139e-07
1.73988e-06
4.75155e-06
-6.48201e-07
3.43724e-06
-2.42905e-06
-3.57887e-06
3.81595e-06
-3.4285e-06
2.18324e-06
2.34357e-05
-8.41801e-06
6.09979e-05
4.58218e-06
4.08059e-06
4.1701e-06
3.99349e-06
-4.53779e-06
-4.46472e-06
-3.80648e-06
-4.51459e-06
1.7037e-05
1.53358e-06
3.45713e-05
5.19341e-07
-2.7894e-07
5.92091e-07
-2.10741e-07
9.79613e-07
7.70255e-06
3.2439e-05
-2.18977e-06
5.81859e-07
-1.88548e-06
7.55379e-07
1.07775e-06
8.53558e-07
1.104e-06
-7.35212e-06
2.26974e-06
-2.43807e-06
8.50007e-06
-2.65126e-06
9.71734e-07
2.97184e-07
1.38234e-06
-2.43454e-06
-1.47761e-05
1.65451e-06
2.08557e-06
8.24396e-07
1.26462e-05
1.20047e-05
-2.04302e-06
0.000183575
-1.20232e-06
-3.81267e-07
-1.98776e-06
7.2035e-07
1.38248e-05
6.82126e-06
0.000121912
2.051e-06
1.34935e-06
5.12333e-05
1.881e-06
2.13036e-06
1.83274e-06
3.03142e-07
1.90695e-06
2.74725e-07
-1.2458e-05
1.60605e-06
1.83153e-06
-2.2302e-06
1.33016e-05
-2.36406e-05
-1.75442e-06
8.60374e-07
1.3356e-06
2.46538e-05
-1.45475e-06
4.59487e-07
-1.0894e-07
0.000189338
-1.19649e-06
-1.53772e-07
-2.05833e-07
-1.21236e-07
-3.84363e-07
-2.44245e-09
-3.12469e-08
4.18573e-07
1.24242e-06
0.000136798
6.11139e-07
1.21056e-06
7.08822e-07
1.2683e-06
1.36184e-06
1.25453e-06
-1.69489e-05
1.04904e-06
6.84635e-07
1.69832e-05
-8.29901e-06
1.2552e-06
-1.71953e-06
8.76333e-06
-2.71536e-05
4.31687e-07
-8.4759e-07
2.74606e-05
-2.85854e-05
2.76806e-07
3.5737e-08
6.61244e-07
2.88541e-05
-1.05911e-05
5.02935e-07
-8.03697e-07
1.08918e-05
-7.79947e-07
-9.37575e-07
5.59799e-07
1.15772e-06
-3.47277e-06
7.60422e-07
-8.59039e-07
3.57139e-06
1.64494e-06
-1.03705e-06
-3.7538e-06
1.7873e-06
-2.85965e-06
4.21826e-06
1.02279e-06
-3.98546e-06
-2.23276e-06
1.01959e-06
-1.02106e-06
5.1969e-06
-5.78562e-06
-1.01695e-06
-1.98307e-06
1.51417e-06
6.47473e-06
7.96753e-07
9.12906e-07
-1.4678e-06
-9.81785e-07
2.56786e-06
-8.00849e-07
-2.30335e-07
2.07856e-05
-6.07136e-06
4.93092e-05
3.18386e-06
3.15917e-06
2.6522e-06
3.0217e-06
-3.56454e-06
-4.45198e-06
-3.35323e-06
-3.67269e-06
1.29802e-05
4.78598e-06
3.82094e-05
3.64782e-07
-7.31813e-07
4.49842e-07
-7.01508e-07
6.30285e-07
7.07124e-06
3.69138e-05
-1.89387e-06
1.03743e-06
-1.55689e-06
1.2187e-06
8.00934e-07
4.69715e-07
7.27931e-07
-9.50972e-06
2.50819e-06
-2.64432e-06
1.02761e-05
-6.84152e-07
2.01561e-07
2.78094e-07
2.04497e-07
-1.5872e-06
-9.52821e-06
1.25886e-06
3.48651e-06
2.0658e-07
6.16345e-06
1.25454e-05
2.59813e-06
0.000167394
-3.46103e-06
2.30509e-07
-2.84858e-06
1.04511e-06
1.6677e-05
9.64795e-06
0.000112919
2.54685e-06
1.61533e-06
6.08975e-05
2.17082e-06
2.53552e-06
2.04398e-06
4.98644e-07
2.20965e-06
4.6322e-07
-1.43426e-05
1.76805e-06
2.00392e-06
-2.29186e-06
1.54094e-05
-2.60942e-05
-1.69426e-06
1.24007e-07
1.96772e-06
2.78959e-05
-2.19918e-06
2.87424e-06
5.78822e-07
0.000185989
-3.36947e-07
-2.38559e-08
8.97818e-07
6.69526e-08
4.3825e-07
7.84104e-07
6.6825e-07
1.02047e-06
1.50642e-06
0.000137794
1.23523e-06
1.79664e-06
1.31969e-06
1.54887e-06
1.58904e-06
1.51028e-06
-1.81804e-05
1.33075e-06
8.55482e-07
1.86299e-05
-9.18605e-06
1.19073e-06
-1.76198e-06
9.75729e-06
-2.76619e-05
3.93602e-07
-3.28711e-07
2.81758e-05
-2.92913e-05
1.76884e-07
1.68314e-07
6.08156e-07
2.98444e-05
-1.12041e-05
5.03616e-07
-9.69202e-07
1.16697e-05
-1.54462e-06
-9.16751e-07
5.92433e-07
1.86894e-06
-3.49349e-06
-3.01953e-07
3.62898e-07
3.43254e-06
1.50135e-06
-3.03462e-07
-4.43681e-06
7.66785e-07
-2.11398e-06
4.58612e-06
8.61308e-07
-6.43697e-06
-9.96376e-07
-3.42693e-07
-6.51708e-07
7.56644e-06
-7.04162e-06
-6.50753e-07
-2.71801e-06
8.57998e-07
7.5641e-06
1.98828e-06
2.67888e-10
-1.10882e-06
1.07777e-06
2.18285e-06
-6.51698e-07
-1.50037e-06
1.53953e-05
-2.62217e-06
3.97237e-05
2.13488e-06
2.50162e-06
2.01487e-06
2.55248e-06
-3.1921e-06
-3.23544e-06
-3.11483e-06
-2.84903e-06
9.238e-06
6.51656e-06
4.08369e-05
-8.47584e-08
-1.38278e-06
-3.26056e-07
-1.19326e-06
3.40376e-07
5.15642e-06
3.83919e-05
-1.41445e-06
1.67558e-06
-9.82223e-07
1.85968e-06
5.78334e-07
9.57702e-08
4.50415e-07
-1.08998e-05
2.93155e-06
-3.04071e-06
1.13494e-05
2.23704e-07
4.78267e-07
-5.53515e-08
-6.4662e-07
-2.13466e-06
-3.94213e-06
1.10842e-06
3.80605e-06
-1.89643e-06
3.05874e-06
1.15979e-05
6.39203e-06
0.0001514
-2.71863e-06
-2.56513e-07
-1.82499e-06
1.81858e-07
1.68463e-05
8.95399e-06
0.000105233
2.70451e-06
1.55906e-06
6.88563e-05
2.26216e-06
2.62096e-06
2.11736e-06
4.45046e-07
1.98449e-06
3.504e-07
-1.65796e-05
1.96892e-06
2.00192e-06
-2.30961e-06
1.76229e-05
-2.92452e-05
2.36889e-07
-1.01141e-06
2.59124e-07
2.93604e-05
4.00168e-07
4.72623e-06
1.20876e-06
0.000179428
6.94442e-07
4.51635e-07
1.77622e-06
7.62325e-07
9.26433e-07
1.27558e-06
1.13063e-06
1.40779e-06
1.32785e-06
0.000139008
1.67448e-06
2.23681e-06
1.70757e-06
1.43434e-06
1.33533e-06
1.34235e-06
-2.03371e-05
1.41504e-06
8.6672e-07
2.10221e-05
-1.02786e-05
1.19209e-06
-1.73353e-06
1.08201e-05
-2.8551e-05
7.8151e-07
2.86762e-08
2.89496e-05
-3.05018e-05
-5.35405e-08
4.78622e-07
4.72579e-07
3.0932e-05
-1.21876e-05
5.83666e-07
-1.16818e-06
1.27721e-05
-2.17921e-06
-8.53771e-07
5.74154e-07
2.45882e-06
-3.51005e-06
-1.33435e-07
-9.26276e-08
3.73611e-06
1.80234e-06
-3.43732e-07
-4.7508e-06
3.94071e-07
-2.18265e-06
5.08077e-06
2.68077e-07
-8.52079e-06
3.8304e-08
-1.51737e-06
4.77028e-07
9.25475e-06
-8.1233e-06
4.61437e-07
-3.53629e-06
-2.30498e-07
8.74292e-06
2.68573e-06
8.21056e-07
-9.16329e-07
1.58194e-06
1.90278e-06
-2.01135e-06
-1.37809e-06
1.2049e-05
-4.00361e-06
3.3006e-05
2.06422e-06
2.42078e-06
1.92065e-06
2.44728e-06
-2.78486e-06
-2.48306e-06
-2.65443e-06
-2.25828e-06
8.94953e-06
4.59391e-06
4.36351e-05
-9.23231e-07
-1.41203e-06
-9.38528e-07
-1.01882e-06
1.48134e-07
1.21713e-06
4.05281e-05
-4.65655e-07
2.51007e-06
1.4327e-07
2.68333e-06
5.09662e-07
-2.49087e-07
3.16408e-07
-1.16284e-05
3.50548e-06
-3.75435e-06
1.20254e-05
1.0006e-06
8.41818e-07
-6.3898e-07
-1.20343e-06
-1.43247e-06
-2.58511e-06
2.65964e-06
2.92698e-06
-3.96419e-06
2.39514e-06
1.31746e-05
4.26546e-06
0.00013454
-2.08172e-06
-9.36465e-07
-1.10502e-06
-4.60276e-07
1.72533e-05
6.02342e-06
9.97249e-05
2.76084e-06
7.8945e-07
7.55527e-05
2.43744e-06
2.68422e-06
2.33919e-06
-4.29495e-08
1.10404e-06
-2.98266e-07
-1.86548e-05
2.36267e-06
2.00649e-06
-2.53915e-06
1.95856e-05
-2.84069e-05
1.42054e-06
-7.12113e-07
-1.21009e-06
2.61809e-05
2.72769e-06
3.355e-06
1.09942e-06
0.000170488
1.46207e-06
1.24594e-06
2.41362e-06
1.19517e-06
7.55484e-07
9.42322e-07
7.37208e-07
1.58547e-06
7.92528e-07
0.000137431
1.73846e-06
2.54545e-06