/*--------------------------------*- C++ -*----------------------------------*\
| =========                 |                                                 |
| \\      /  F ield         | OpenFOAM: The Open Source CFD Toolbox           |
|  \\    /   O peration     | Version:  5.x                                   |
|   \\  /    A nd           | Web:      www.OpenFOAM.org                      |
|    \\/     M anipulation  |                                                 |
\*---------------------------------------------------------------------------*/
FoamFile
{
    version     2.0;
    format      ascii;
    class       volVectorField;
    location    "7.75";
    object      U;
}
// * * * * * * * * * * * * * * * * * * * * * * * * * * * * * * * * * * * * * //

dimensions      [0 1 -1 0 0 0 0];

internalField   nonuniform List<vector> 
10571
(
(-0.324047 -0.0622801 0.919737)
(-0.269754 0.624942 0.796971)
(-0.888756 0.67932 1.40889)
(-0.708186 0.265025 1.16072)
(-0.109854 -0.00932275 0.694798)
(-0.141319 1.13869 1.23694)
(-0.488048 1.18039 1.19163)
(-0.522271 0.896487 0.831715)
(-0.21538 0.61688 0.922662)
(-0.00207783 0.314603 0.835099)
(0.190564 -0.0317099 1.33192)
(-0.294936 0.515826 1.67079)
(-1.96315 1.80471 1.81619)
(-2.09374 2.20081 1.42909)
(-1.03979 1.24445 0.833256)
(-0.231975 0.739558 1.18978)
(-0.465122 -0.447348 1.49794)
(-2.12531 0.444308 1.83412)
(-1.48399 1.84057 1.17567)
(-2.19389 2.09795 1.91762)
(-0.361417 0.272171 0.477751)
(-0.231851 0.157932 1.26246)
(-0.600259 1.00111 1.63905)
(-0.136458 0.0945591 0.910798)
(0.0482968 0.0592846 0.556926)
(-0.243541 0.290438 0.588124)
(-0.261131 0.397461 0.871616)
(-0.0797307 0.227712 0.786045)
(0.0550076 0.0993324 0.611544)
(-0.0713609 0.100757 0.643873)
(-0.207638 0.441124 0.7682)
(-0.14774 0.28648 0.477776)
(-0.103559 0.23389 0.520968)
(-0.126824 0.195772 0.818056)
(-0.0180896 -0.489318 2.053)
(-0.241286 0.523904 2.8625)
(0.000145625 0.228846 1.03557)
(-0.0717635 0.0856315 0.346648)
(-0.143645 0.193975 0.395089)
(-0.21703 0.230309 0.600049)
(-0.181624 0.383021 2.06395)
(-0.123636 0.199293 1.35403)
(-0.107504 -0.00786302 0.687233)
(-0.0596108 0.0783057 0.548993)
(-0.104062 0.185995 0.442755)
(-0.27892 -0.0628639 1.00465)
(-0.734789 0.0654724 3.18947)
(0.120096 -0.0120916 0.819145)
(-0.0454204 0.0154612 0.496341)
(-0.264438 0.16492 0.330903)
(-0.252053 0.229112 0.683329)
(-0.0895904 0.208054 0.64831)
(0.0391021 0.126729 0.491777)
(-0.742605 0.0988242 1.53135)
(-0.000648296 0.292308 0.611875)
(-0.0511816 0.280806 0.340262)
(-0.14365 0.25256 0.325544)
(-0.228084 0.163855 0.651437)
(-0.111854 -0.128541 1.1768)
(-0.0341588 -0.393091 1.21735)
(0.224332 0.194029 1.55679)
(-0.0411287 0.0546394 0.35652)
(-0.182999 0.17903 0.495923)
(-0.238644 0.278847 0.432636)
(0.0653784 0.534786 1.01986)
(0.052417 0.150437 2.36648)
(-0.0862648 -0.0466298 1.40848)
(-0.0763616 0.0291161 0.3473)
(-0.0757699 0.186315 0.354905)
(-0.52288 0.110682 2.11604)
(-0.119249 0.0225179 1.41569)
(0.103544 0.00177408 1.08524)
(-0.0812133 0.00550092 0.257248)
(-0.177418 0.106939 0.297778)
(-0.132326 0.0924732 0.384257)
(-0.0862107 0.189889 0.31234)
(0.0198054 0.14772 0.256378)
(-0.144995 0.18619 0.763207)
(0.0787313 0.374493 0.772081)
(-0.041639 0.409013 0.815894)
(-0.166355 0.311196 0.602133)
(-0.0470127 0.127382 0.204378)
(0.0911217 0.623274 0.521091)
(0.312443 0.344724 1.32673)
(0.507126 0.0830707 2.11885)
(-0.342022 0.16508 0.802063)
(-0.372472 0.239755 0.88462)
(-0.139765 0.316754 0.479571)
(0.199484 -1.82947e-05 1.00888)
(0.263759 -0.206764 2.30758)
(-0.327195 -0.228916 1.38702)
(-0.45489 -0.075217 0.0304246)
(0.0125681 -0.236096 0.170081)
(0.116783 0.0585533 1.47929)
(-0.120157 0.254485 1.82323)
(-0.318377 0.0510095 -0.202411)
(-0.0293368 0.0104451 0.108701)
(-0.0915085 0.0388293 0.287972)
(-0.00128485 0.0353919 0.0982141)
(-0.105769 0.241366 0.441039)
(-0.00145363 0.110802 -0.0339006)
(0.113677 0.072249 0.717993)
(-0.000200004 0.0915293 0.200653)
(-0.173025 0.194902 0.148626)
(-0.0668408 0.0785735 0.171901)
(-0.010417 0.0280236 0.0051321)
(-0.0353242 0.31586 0.775435)
(0.0796907 0.239771 1.40249)
(0.443322 -0.0401845 1.57502)
(-0.0892536 0.117644 0.722424)
(-0.115801 0.359917 0.280831)
(0.0735874 0.363994 -0.127803)
(0.116331 0.256551 1.01556)
(0.219726 -0.0983967 1.94778)
(-0.0678797 -0.132479 1.13603)
(-0.255612 0.149346 0.0387015)
(-0.0764728 0.0657945 0.133823)
(0.024928 -0.0344535 1.60805)
(0.0820372 0.0765982 1.95246)
(0.0507639 -0.107245 -0.0805194)
(0.0177054 0.0371933 0.0120701)
(-0.0282871 -0.018515 0.207173)
(-0.0603777 0.158553 0.165405)
(-0.0748781 0.221003 0.257922)
(-0.0525911 0.0135534 -0.191166)
(-0.0243247 -0.000781745 0.564536)
(0.10097 0.0032481 0.518121)
(-0.219387 0.113207 0.422882)
(-0.0220088 0.0675543 0.0389567)
(-0.000863543 0.0491843 -0.274758)
(-0.00119617 0.00646071 0.00068373)
(-0.0211236 0.204774 0.803465)
(0.0688627 0.197244 1.36871)
(0.409183 -0.0976155 1.70426)
(0.115256 -0.00241208 1.02155)
(0.0301288 0.291282 0.398895)
(0.144234 0.152102 0.0164264)
(-0.00108876 -0.000761746 0.000114334)
(0.14413 0.105369 0.936406)
(0.194347 -0.0925054 1.98848)
(0.0553467 -0.148046 1.28693)
(-0.000267481 0.333922 0.350165)
(0.00123832 0.042686 0.249153)
(0.0671964 0.178333 1.60298)
(0.1518 0.0114625 1.87095)
(0.121005 -0.0870335 0.180411)
(0.11723 0.0186432 -0.222921)
(0.0448179 -0.0632813 0.136296)
(-0.0548882 0.10245 0.229494)
(-0.0524741 0.0665559 0.216267)
(0.00968525 0.00471175 -0.191174)
(-0.041215 -0.0365531 0.47817)
(0.073386 0.0317165 0.68816)
(-0.182007 0.018934 0.364982)
(-0.0281535 0.030411 -0.043115)
(-0.0921816 -0.000358931 -0.144964)
(-0.0876652 0.0241464 0.0343554)
(-0.0197485 0.18473 0.894018)
(-0.0868446 0.106671 1.33192)
(0.367103 -0.0917552 1.86598)
(0.152112 -0.0522092 1.27107)
(0.113039 0.192058 0.290374)
(-0.00459708 -0.101827 0.10983)
(-0.215709 0.058126 -0.0311809)
(0.109377 0.0903395 1.00233)
(0.200386 -0.125455 1.97847)
(0.0795792 -0.206303 1.44307)
(0.0425472 0.24501 0.513791)
(0.0635029 -0.000949085 0.35145)
(-0.281489 -0.000822447 -0.0405975)
(0.0822123 0.178295 1.54066)
(0.195867 0.00893227 1.74424)
(0.0968516 -0.0747326 0.459423)
(0.290339 0.00986158 -0.199525)
(0.0330248 -0.0764303 0.134843)
(-0.0798091 0.0927238 0.122978)
(-0.045589 0.0400679 0.126588)
(0.0352322 0.042515 -0.154916)
(0.0170669 -0.00705731 0.497753)
(-0.00988361 0.0767684 0.803896)
(-0.066636 -0.0559822 0.423882)
(0.00827186 0.119954 -0.0177813)
(-0.070848 0.0541407 -0.0954196)
(-0.0573003 0.0962393 -0.189057)
(-0.0147943 0.211659 0.949645)
(-0.152333 0.147399 1.23755)
(0.335797 -0.102947 1.97179)
(0.0699721 -0.041729 1.31919)
(0.165157 0.0967633 0.288043)
(0.0317532 -0.103668 0.246507)
(-0.0736195 0.227343 -0.0217542)
(0.0702941 0.113236 1.01719)
(0.189378 -0.21879 1.89704)
(0.0573274 -0.200673 1.48249)
(0.0608678 0.204286 0.60246)
(0.0920954 -0.0471904 0.469985)
(-0.0935184 -0.00494038 0.0979563)
(0.0562531 -0.0634325 1.38219)
(0.242192 -0.10628 1.61412)
(0.0923151 -0.0613657 0.659594)
(0.253611 0.00544577 -0.137046)
(0.0450007 -0.0846517 0.11374)
(0.131638 -0.0355282 -0.0763751)
(0.243166 0.0372539 -0.0480412)
(0.220436 0.125353 -0.0754463)
(0.0367077 -0.0207431 0.529193)
(-0.0512785 0.00592936 0.966297)
(0.0315905 -0.083275 0.461224)
(0.0802111 0.190387 -0.0208469)
(0.0814733 0.0739261 -0.0620135)
(0.12541 -0.236364 -0.201702)
(-0.0122349 0.20444 0.936546)
(0.0003358 0.0855003 1.09471)
(0.257972 -0.1067 2.07344)
(0.00551428 0.0350333 1.34088)
(0.167724 0.103411 0.269425)
(0.0834468 -0.118463 0.358374)
(0.210406 -0.217428 0.128191)
(0.0777172 0.118573 1.01832)
(0.16521 -0.249494 1.87544)
(0.018128 -0.169128 1.49168)
(0.0944803 0.180657 0.640872)
(0.11246 -0.123845 0.554781)
(0.10736 -0.0223693 1.2909)
(0.10721 -0.103371 1.48924)
(0.0901274 -0.0423284 0.78009)
(0.126898 0.0139411 -0.127519)
(0.13046 -0.181492 0.0557993)
(0.269044 -0.120555 -0.173699)
(0.320263 -0.011755 -0.112329)
(0.240496 0.0589165 -0.0828116)
(0.0108791 -0.167927 0.539202)
(-0.0640701 -0.063491 1.03193)
(0.143213 -0.0921463 0.43849)
(0.0656018 0.201266 0.0344033)
(-0.0413234 -0.111104 -0.0352507)
(-0.0121845 0.117281 0.942016)
(0.0623403 -0.0407859 0.961617)
(0.164015 -0.102361 2.10839)
(0.0159793 0.109904 1.35532)
(0.131175 0.124411 0.283257)
(0.0259097 -0.133532 0.408837)
(0.0896558 0.0978839 0.995172)
(0.143868 -0.231641 1.88083)
(-0.0398768 -0.11032 1.49142)
(0.111061 0.164469 0.658137)
(0.130385 -0.130087 0.645486)
(0.118275 -0.00255118 1.31231)
(-0.00671451 0.0349986 1.30406)
(0.0727369 -0.0266954 0.869362)
(0.118088 0.00421272 -0.132171)
(0.234901 -0.281704 -0.0644216)
(0.32252 -0.246045 -0.126217)
(0.353996 -0.0743572 -0.0547732)
(0.224338 0.0482001 -0.0264457)
(0.133354 -0.155661 0.519889)
(-0.0420831 -0.0688033 0.985333)
(0.275239 -0.0645628 0.344034)
(0.1104 0.170285 0.12453)
(0.0261025 -0.0965421 0.121173)
(0.00182857 0.0632213 0.884193)
(0.150826 -0.0504456 0.814392)
(0.140939 -0.0812473 2.1067)
(0.0493473 0.117004 1.35979)
(0.125116 0.1351 0.32585)
(0.0471708 -0.159066 0.430457)
(0.0987056 0.0646104 0.938672)
(0.109899 -0.167204 1.93218)
(-0.0884128 -0.0533235 1.49225)
(0.106244 0.14403 0.667458)
(0.124686 -0.13444 0.686207)
(-0.0612946 -0.0632936 1.33943)
(0.0178588 0.0827223 1.17944)
(0.0752277 -0.0178497 0.923545)
(0.137374 0.0069364 -0.0607017)
(0.225381 -0.310234 0.0344635)
(0.256961 -0.277605 -0.00327949)
(0.298041 -0.0715929 0.0347507)
(0.13828 0.0842306 0.0554694)
(0.190852 -0.313066 0.309466)
(0.161795 -0.139455 0.852379)
(0.397787 -0.0784681 0.305563)
(0.17195 0.135188 0.210272)
(0.0356412 -0.133774 0.278359)
(-0.00713612 -0.0409599 0.758213)
(0.184169 -0.0184499 0.721009)
(0.162189 -0.0559074 2.07552)
(0.117772 0.106776 1.35194)
(0.166222 0.142562 0.398029)
(0.0646775 -0.127976 0.449259)
(0.077393 0.0651119 0.911453)
(0.0930159 -0.0954654 1.99474)
(-0.100697 0.00535708 1.46714)
(0.0986174 0.107684 0.696524)
(0.122496 -0.136127 0.717067)
(-0.0767805 -0.0322254 1.3562)
(0.0217969 0.0893077 1.12541)
(0.0918277 -0.0191307 0.943016)
(0.14519 0.00729982 0.0329231)
(0.145811 -0.164264 0.210178)
(0.176577 -0.24435 0.10504)
(0.242455 -0.0784561 0.110057)
(0.0129226 0.0847852 0.167916)
(0.212675 -0.249948 0.120479)
(0.35743 -0.252525 0.666775)
(0.430716 -0.081562 0.322552)
(0.144972 0.118781 0.304902)
(0.041227 -0.1564 0.401878)
(0.0248111 -0.101138 0.252701)
(0.253102 -0.00456569 0.622315)
(0.161409 -0.0316592 1.95236)
(0.252229 0.142396 1.28043)
(0.201909 0.152247 0.49055)
(0.11647 -0.102648 0.506703)
(0.0881464 0.0978587 0.932788)
(0.076099 -0.0493286 2.01172)
(-0.0535191 0.0833903 1.43657)
(0.105821 0.108946 0.731812)
(0.119625 -0.126202 0.777851)
(-0.0481845 0.0151872 1.37507)
(0.0170532 0.093184 1.12555)
(0.103466 -0.0199538 0.977298)
(0.143728 0.0056266 0.137951)
(0.0314733 -0.0255096 0.26298)
(0.0979319 -0.168324 0.17828)
(0.18678 -0.101303 0.203634)
(-0.0696567 0.0582467 0.245336)
(0.14751 -0.0428657 0.0146415)
(0.346368 -0.245301 0.533856)
(0.363014 -0.0315789 0.361457)
(0.0690984 0.0937466 0.37157)
(0.0414607 -0.171598 0.501104)
(0.00725619 -0.0166529 0.0583594)
(0.159775 -0.129081 0.326365)
(0.0584076 0.0475675 1.73722)
(0.353289 0.20218 1.17247)
(0.211 0.162594 0.588996)
(0.153771 -0.107226 0.588163)
(0.0639154 0.155644 1.04883)
(0.077671 0.0252542 1.98247)
(0.0358932 0.129802 1.43767)
(0.127172 0.1339 0.797568)
(0.116254 -0.12383 0.86249)
(-0.020137 0.0539092 1.40414)
(0.0145352 0.10066 1.15927)
(0.111753 -0.0164989 1.03841)
(0.171798 0.00576373 0.244983)
(-0.045586 0.0207402 0.252091)
(0.034653 -0.147491 0.198632)
(0.0784357 -0.0768704 0.310249)
(-0.147985 -0.0045305 0.289362)
(0.0905228 -0.0300555 -0.0594763)
(0.274259 -0.220433 0.427917)
(0.26253 0.00335082 0.391994)
(0.0390436 0.0460327 0.393792)
(0.0276105 -0.200738 0.562194)
(0.00593163 -0.0692672 -0.0629465)
(0.234025 -0.128937 0.149747)
(0.0108746 0.137008 1.58091)
(0.362952 0.216942 1.08804)
(0.214814 0.147321 0.681952)
(0.165342 -0.109312 0.67712)
(0.0213645 0.0802523 1.1635)
(0.0609522 0.0646506 1.92233)
(0.111014 0.108088 1.45446)
(0.135738 0.139279 0.898722)
(0.111838 -0.125861 0.9617)
(-0.0102067 0.102446 1.45054)
(0.0307809 0.095963 1.20555)
(0.124106 -0.019063 1.13587)
(0.178835 0.0026205 0.333051)
(-0.0388487 -0.00198849 0.261772)
(0.0210841 -0.163423 0.215788)
(-0.0471046 -0.00273783 0.396273)
(-0.200392 -0.0853611 0.333306)
(0.0635285 -0.112513 -0.0661068)
(0.197986 -0.236356 0.349116)
(0.229968 -0.00899457 0.416605)
(0.0594034 -0.0261345 0.408544)
(0.000533142 -0.246932 0.596266)
(-0.00236114 -0.128038 -0.161397)
(0.19566 -0.248247 0.111874)
(0.0642418 0.109134 1.45522)
(0.36329 0.163289 1.03634)
(0.230129 0.0729909 0.767773)
(0.16505 -0.128586 0.756794)
(0.0935919 -0.0286583 1.08824)
(-0.00933073 0.0294843 1.84252)
(0.1291 0.0640199 1.46071)
(0.149905 0.0973858 1.01759)
(0.115827 -0.124351 1.05815)
(-0.0335107 0.108962 1.466)
(0.025459 0.0647288 1.24132)
(0.134811 -0.0335599 1.2303)
(0.134165 -0.00428202 0.410233)
(-0.0198778 -0.00296512 0.305561)
(0.00725537 -0.14728 0.259846)
(-0.129363 0.0300092 0.446483)
(-0.225647 -0.144568 0.384402)
(0.0156858 -0.162633 -0.0302781)
(0.140664 -0.282406 0.318233)
(0.257522 -0.0851631 0.461866)
(0.105412 -0.120556 0.456259)
(-0.0362262 -0.298438 0.628498)
(-0.0196807 -0.170205 -0.171221)
(0.0644133 -0.355545 0.115185)
(0.155049 -0.110011 1.28104)
(0.377436 -0.0125634 0.991894)
(0.25064 -0.062494 0.838954)
(0.158917 -0.172845 0.830034)
(-0.0545204 -0.290248 0.811616)
(-0.0254878 0.0314747 1.75253)
(0.10826 0.0377385 1.43016)
(0.146934 0.0250287 1.11555)
(0.109022 -0.126392 1.15377)
(-0.0544425 0.076931 1.45911)
(0.0319064 0.0243651 1.23925)
(0.157197 -0.0625076 1.26631)
(0.0791026 -0.0127759 0.489233)
(-0.0297829 0.00741547 0.371574)
(-0.00151621 -0.120275 0.335783)
(-0.152329 0.0254173 0.502959)
(-0.244554 -0.203718 0.444296)
(-0.0363648 -0.184245 0.0550321)
(0.09841 -0.294941 0.331548)
(0.287907 -0.212063 0.52246)
(0.142129 -0.214887 0.54458)
(-0.0528902 -0.338969 0.67974)
(-0.0301338 -0.176931 -0.119589)
(-0.0409113 -0.38084 0.125259)
(0.168739 -0.349286 0.999049)
(0.389179 -0.229326 0.932235)
(0.27282 -0.216341 0.89467)
(0.141686 -0.225708 0.910355)
(-0.0873435 -0.204436 0.484321)
(0.0749749 0.0328057 1.65092)
(0.122 -0.0111029 1.37388)
(0.0948908 -0.0467775 1.15646)
(0.0983402 -0.139044 1.16756)
(-0.0837378 0.0265966 1.3998)
(0.0270387 -0.0266963 1.20569)
(0.171216 -0.0745882 1.25)
(0.02653 -0.0187484 0.581786)
(-0.0518338 0.0199357 0.449143)
(-0.00802053 -0.0836694 0.444021)
(-0.151147 -0.00629326 0.599672)
(-0.248562 -0.245205 0.549793)
(-0.0713519 -0.218389 0.156234)
(0.0769384 -0.286616 0.364165)
(0.262242 -0.290693 0.568536)
(0.142946 -0.286672 0.674067)
(-0.0577178 -0.366403 0.769865)
(-0.0320776 -0.164182 -0.0585792)
(-0.0985591 -0.316593 0.132212)
(0.1239 -0.439812 0.754053)
(0.35996 -0.357988 0.835501)
(0.288541 -0.337648 0.958542)
(0.13648 -0.291527 0.977626)
(-0.116497 -0.216983 0.321527)
(0.114463 -0.0730853 1.44113)
(0.222646 -0.142444 1.29267)
(0.154069 -0.126947 1.17009)
(0.106847 -0.174372 1.12399)
(-0.040427 -0.0176036 1.35514)
(0.0322135 -0.0880991 1.05237)
(0.229388 -0.129995 1.19545)
(-0.03155 -0.0251159 0.696248)
(-0.0555906 0.0326734 0.5806)
(-0.0330996 -0.0517362 0.548233)
(-0.147761 -0.0386553 0.710731)
(-0.247506 -0.264957 0.692069)
(-0.103451 -0.22174 0.264722)
(0.0653259 -0.307517 0.422033)
(0.176342 -0.294165 0.617988)
(0.12442 -0.315172 0.809377)
(-0.0558923 -0.382098 0.898165)
(-0.0279776 -0.130036 0.00963648)
(-0.105459 -0.241983 0.131382)
(0.116784 -0.446923 0.605167)
(0.256273 -0.351759 0.735974)
(0.278362 -0.388181 1.00112)
(0.154947 -0.361018 1.05163)
(-0.111105 -0.223603 0.248993)
(0.0947971 -0.202089 1.11819)
(0.26955 -0.22689 1.10376)
(0.279095 -0.265676 1.16108)
(0.186476 -0.289 1.12204)
(0.0472044 -0.0544324 1.22618)
(0.142353 -0.0247113 0.868594)
(0.254767 -0.133489 0.984739)
(-0.0411173 -0.0243659 0.809453)
(-0.0727798 0.0596853 0.666985)
(-0.0617834 -0.0269132 0.62992)
(-0.15381 -0.0457177 0.818067)
(-0.247009 -0.263386 0.833146)
(-0.148769 -0.164931 0.399144)
(-0.00720265 -0.331767 0.452665)
(0.100845 -0.247991 0.655003)
(0.0928791 -0.300247 0.908208)
(-0.0584598 -0.388698 1.03282)
(-0.0140539 -0.0826716 0.0523613)
(-0.0773213 -0.186049 0.148615)
(0.0727734 -0.393037 0.494808)
(0.14671 -0.280722 0.658455)
(0.259964 -0.382453 1.00427)
(0.162398 -0.380996 1.15118)
(-0.065684 -0.130816 0.22591)
(0.125278 -0.227263 0.849749)
(0.224186 -0.1812 0.901587)
(0.318226 -0.256051 1.07131)
(0.227248 -0.354893 1.19444)
(-0.0887285 -0.0325023 0.964708)
(0.095416 0.00952395 0.778418)
(0.16746 -0.0365431 0.889904)
(-0.0279976 -0.0217448 0.902884)
(-0.0944336 0.0682273 0.734682)
(-0.0795604 -0.0313069 0.712569)
(-0.164649 -0.0374023 0.920604)
(-0.235714 -0.244044 0.955536)
(-0.181042 -0.115607 0.539555)
(-0.0933712 -0.339805 0.458125)
(0.0492416 -0.228884 0.659021)
(0.0376146 -0.261222 0.962266)
(-0.0361288 -0.390048 1.16557)
(-0.00445618 0.0033964 0.11398)
(-0.0282246 -0.159014 0.177999)
(0.0278726 -0.338308 0.399032)
(0.0634482 -0.25525 0.579258)
(0.182467 -0.339037 0.988756)
(0.144068 -0.390009 1.23991)
(-0.0053904 -0.0710307 0.199646)
(0.122202 -0.215328 0.670034)
(0.179604 -0.127823 0.760169)
(0.262073 -0.184231 0.901223)
(0.22679 -0.336659 1.2326)
(-0.0254915 -0.0702344 0.774611)
(0.0383852 0.0205267 0.734951)
(0.100375 -0.0212131 0.870325)
(0.000563488 -0.0201674 0.989059)
(-0.119269 0.0892032 0.839894)
(-0.104055 -0.0633005 0.791964)
(-0.165557 -0.0204739 1.01926)
(-0.209487 -0.221063 1.05896)
(-0.179521 -0.0842131 0.650813)
(-0.112901 -0.344766 0.462912)
(-0.0120995 -0.263628 0.663966)
(-0.0048492 -0.217706 1.00582)
(-0.0407957 -0.366495 1.28836)
(0.000511522 0.0900423 0.173943)
(0.0244286 -0.0957575 0.201363)
(0.0587056 -0.309584 0.354185)
(0.0171355 -0.265767 0.504647)
(0.0793079 -0.301752 0.923223)
(0.120853 -0.312914 1.28451)
(0.0399915 -0.0239743 0.187073)
(0.102171 -0.222929 0.536321)
(0.151927 -0.142154 0.641251)
(0.11411 -0.120884 0.736185)
(0.206105 -0.299156 1.29639)
(0.033765 -0.0880021 0.706561)
(0.0196719 0.0282088 0.704682)
(0.0260528 -0.0200574 0.741344)
(-0.0044401 -0.0179978 1.07701)
(-0.126206 0.103847 0.940339)
(-0.133514 -0.0960884 0.874817)
(-0.161823 -0.0195769 1.11961)
(-0.189823 -0.195471 1.15396)
(-0.147942 -0.0415388 0.70914)
(-0.0967709 -0.329423 0.467972)
(-0.0892649 -0.308481 0.695873)
(-0.0191254 -0.181887 1.05005)
(-0.125187 -0.301651 1.32278)
(0.00489783 0.179682 0.178008)
(0.0918079 0.0155727 0.219765)
(0.171339 -0.236919 0.319517)
(0.0332202 -0.255243 0.464772)
(0.0810238 -0.277583 0.842417)
(0.0629874 -0.267285 1.26034)
(0.0905135 -0.0045127 0.169083)
(0.171237 -0.178691 0.425633)
(0.15494 -0.17511 0.536946)
(0.107863 -0.0759062 0.622449)
(0.0718614 -0.190189 1.20318)
(-0.0444583 -0.11821 0.604626)
(0.0456781 0.00298637 0.687429)
(-0.00429751 0.0235768 0.727654)
(-0.0193406 -0.0154997 1.14993)
(-0.149997 0.0873077 1.01833)
(-0.192927 -0.0850394 0.947995)
(-0.166942 -0.0352092 1.20363)
(-0.182249 -0.151449 1.23863)
(-0.0560489 0.120708 0.766783)
(-0.0739203 -0.234797 0.508014)
(-0.136161 -0.321743 0.720913)
(-0.00848946 -0.174397 1.09194)
(-0.151254 -0.234079 1.28724)
(0.0080215 0.266616 0.17297)
(0.153607 0.129862 0.224284)
(0.245203 -0.0964086 0.291735)
(0.0780057 -0.227783 0.45603)
(0.108112 -0.229529 0.799625)
(-0.00243946 -0.224239 1.2407)
(0.165331 0.0852415 0.0779843)
(0.225983 -0.104657 0.380863)
(0.171866 -0.197933 0.489336)
(0.108254 -0.0857918 0.560192)
(0.0148504 -0.0620184 0.927539)
(0.0226005 -0.0905476 0.526404)
(0.0341075 -0.0692889 0.63467)
(-0.0423199 0.0253739 0.753485)
(-0.0318866 -0.0121881 1.20062)
(-0.148851 0.109973 1.07553)
(-0.254752 0.012018 0.974255)
(-0.16847 -0.0464779 1.25709)
(-0.181085 -0.0842473 1.31022)
(0.123793 0.221533 0.784417)
(0.00778041 -0.000162278 0.571942)
(-0.136759 -0.313479 0.737504)
(-0.00115002 -0.181838 1.13486)
(-0.140152 -0.191175 1.233)
(0.0151895 0.199843 0.216053)
(0.190687 0.161657 0.20225)
(0.252673 0.0432632 0.314529)
(0.110168 -0.214807 0.47679)
(0.0891377 -0.177789 0.771162)
(-0.0186015 -0.170782 1.20055)
(0.153932 0.139942 0.0185771)
(0.217796 -0.0702929 0.371456)
(0.16718 -0.216555 0.480957)
(0.0766486 -0.0996057 0.516872)
(-0.0111787 0.0495545 0.886328)
(0.0497652 -0.0585481 0.511798)
(0.00766988 -0.0493328 0.544993)
(-0.0539557 0.0144948 0.738677)
(-0.0289738 -0.0115579 1.2107)
(-0.131422 0.167542 1.08474)
(-0.271005 0.0780441 0.97665)
(-0.157948 -0.0470956 1.30322)
(-0.152922 -0.0172567 1.36394)
(0.165274 0.375514 0.664277)
(0.106065 0.201376 0.608261)
(-0.121683 -0.300504 0.783195)
(-0.0272129 -0.185684 1.16215)
(-0.116748 -0.16729 1.17964)
(0.0146964 0.115252 0.18794)
(0.137954 0.186758 0.172887)
(0.241732 0.129355 0.385531)
(0.136543 -0.191954 0.506936)
(0.0495841 -0.159333 0.735965)
(0.00508182 -0.124197 1.13913)
(0.117523 0.129025 0.00761698)
(0.190057 -0.0737382 0.38452)
(0.145804 -0.235249 0.477876)
(0.0495702 -0.137283 0.52004)
(-0.00579942 0.0892363 0.897836)
(0.00559667 -0.068286 0.490901)
(0.00689569 -0.0293119 0.477945)
(-0.0308978 0.0146038 0.711869)
(-0.0106797 -0.0137101 1.21201)
(-0.0864152 0.182108 0.936199)
(-0.222236 0.097003 0.959055)
(-0.132887 -0.0479123 1.30372)
(-0.1053 0.0311075 1.39604)
(0.0934267 0.351002 0.510124)
(0.122765 0.305474 0.680258)
(-0.140277 -0.240319 0.885014)
(-0.0803992 -0.174484 1.17788)
(-0.0807629 -0.157287 1.14087)
(0.0106289 0.152783 0.124357)
(0.0677105 0.176368 0.136969)
(0.226026 0.188872 0.483375)
(0.15046 -0.118347 0.55006)
(0.0259072 -0.187596 0.705311)
(0.0584709 -0.0894336 1.07408)
(0.0612236 0.0622252 0.060813)
(0.179936 -0.0625865 0.396742)
(0.139931 -0.23157 0.468695)
(0.0660547 -0.205186 0.528527)
(0.00799358 0.075763 0.936201)
(-0.0692371 -0.0569819 0.392993)
(0.0156092 -0.01072 0.420976)
(-0.0306032 0.00913304 0.608277)
(-0.00447436 -0.0106547 1.20004)
(-0.132138 0.156023 0.645205)
(-0.0857488 0.206391 0.917964)
(-0.116811 -0.0639616 1.23624)
(-0.0583202 0.0669449 1.37066)
(0.0936001 0.248396 0.455913)
(0.0520934 0.369438 0.7783)
(-0.180237 -0.117427 0.988354)
(-0.117072 -0.15236 1.19021)
(-0.0486825 -0.15458 1.12257)
(0.00992459 0.169409 0.119193)
(0.0227148 0.139255 0.120721)
(0.189763 0.283382 0.590264)
(0.133128 -0.00419908 0.633789)
(0.018289 -0.233033 0.698675)
(0.0818991 -0.0794117 1.02331)
(0.00983989 -0.0185556 0.179687)
(0.181507 0.000598054 0.407921)
(0.148234 -0.19454 0.465751)
(0.0864279 -0.221381 0.515341)
(-0.00330452 0.037358 0.968507)
(-0.0586324 -0.00536359 0.301788)
(0.0355278 0.0132438 0.359411)
(0.0192511 -0.00589912 0.439539)
(0.0461895 0.00442473 1.18895)
(-0.0660877 0.0756163 0.551298)
(-0.129317 0.225925 0.730754)
(-0.0795513 0.0610692 1.19178)
(0.0252732 0.081125 1.33004)
(0.0330486 0.201635 0.422536)
(0.000494701 0.403057 0.86049)
(-0.188357 0.0137 1.04898)
(-0.114608 -0.137401 1.20378)
(-0.0239415 -0.142955 1.12054)
(0.00831687 0.174765 0.124675)
(-0.0161382 0.123956 0.133917)
(0.13781 0.354181 0.690215)
(0.111845 0.0965609 0.725133)
(0.0234141 -0.244235 0.703086)
(0.0781409 -0.114172 0.976426)
(-0.00251277 -0.0424759 0.266573)
(0.158011 0.115925 0.438558)
(0.170638 -0.101773 0.488734)
(0.136217 -0.201923 0.498244)
(0.0343938 -0.0882458 0.926809)
(-0.0526672 0.0430256 0.265257)
(0.0579564 0.0280206 0.321683)
(0.0728103 -0.0155339 0.34916)
(0.0215768 0.00988396 1.02564)
(-0.0121358 0.00721121 0.497017)
(-0.0544448 0.18031 0.553314)
(0.0560597 0.218699 1.12229)
(0.127453 0.197656 1.24906)
(-0.029722 0.13999 0.387831)
(-0.0170238 0.362868 0.920874)
(-0.181988 0.0942146 1.12135)
(-0.0922798 -0.116898 1.24127)
(-0.00331622 -0.10191 1.15969)
(0.00778375 0.187474 0.152732)
(-0.0316616 0.127063 0.164513)
(0.0854576 0.364489 0.744285)
(0.129487 0.128118 0.787191)
(0.0129384 -0.231974 0.711341)
(0.0733636 -0.141861 0.988742)
(-0.00477925 -0.0422425 0.329406)
(0.114625 0.181527 0.46497)
(0.173095 -0.0340801 0.510448)
(0.181718 -0.163657 0.459114)
(0.112178 -0.227177 0.901059)
(-0.0574069 0.0672182 0.28531)
(0.0659085 0.0368927 0.318639)
(0.0986495 -0.0254202 0.303135)
(0.00734638 0.0340535 0.675863)
(0.0202936 -0.0268193 0.445745)
(0.0516941 0.0798072 0.450281)
(0.124163 0.166589 0.852388)
(0.219293 0.222224 1.16856)
(-0.0768694 0.0946936 0.356324)
(-0.0338749 0.290647 0.933206)
(-0.163096 0.0722958 1.21298)
(-0.0853618 -0.0726817 1.31582)
(-0.000980091 -0.0838437 1.23867)
(0.0102615 0.188874 0.200027)
(-0.0278303 0.140536 0.209236)
(0.0445657 0.35043 0.730919)
(0.186345 0.114607 0.852534)
(-0.073995 -0.184149 0.725341)
(0.0644543 -0.158739 1.02985)
(-0.0190488 -0.0491733 0.400635)
(0.0620425 0.210789 0.494949)
(0.14536 0.0146139 0.536102)
(0.115878 -0.133032 0.421976)
(0.0671782 -0.189233 0.827691)
(-0.0706559 0.0741915 0.335667)
(0.0540289 0.0518608 0.340993)
(0.0882638 -0.0256225 0.292746)
(0.04777 0.0122304 0.487054)
(0.00961209 -0.00708691 0.390806)
(0.0974749 0.0370529 0.372712)
(0.102708 0.0153805 0.638162)
(0.240284 0.165222 1.16026)
(-0.0863384 0.0987068 0.330461)
(-0.0628072 0.249849 0.868613)
(-0.0767872 0.0171233 1.29904)
(-0.0846016 -0.0728983 1.36809)
(0.0136416 -0.0612347 1.33503)
(0.0116896 0.162958 0.24566)
(0.0106689 0.152904 0.267152)
(0.00594811 0.322172 0.659083)
(0.232342 0.134175 0.914928)
(-0.123801 -0.0928936 0.734376)
(0.0540038 -0.130473 1.0891)
(-0.0537299 -0.0753777 0.486655)
(0.00964429 0.222471 0.532536)
(0.112614 0.074966 0.58265)
(0.0112159 -0.0958358 0.428608)
(-0.0557502 0.135867 0.493725)
(-0.0897607 0.069295 0.401576)
(0.0238071 0.0710064 0.387292)
(0.0474973 -0.0135462 0.331008)
(-0.00960304 -0.0106585 0.394298)
(-0.0513666 0.0696221 0.30303)
(0.039834 0.0242091 0.339078)
(0.103589 -0.13022 0.518919)
(0.159716 0.0875113 1.24046)
(-0.0571714 0.112422 0.3105)
(-0.0525266 0.202994 0.678685)
(0.0522043 0.0420318 1.29925)
(-0.0420751 -0.101186 1.40465)
(-0.00593362 -0.0445203 1.37269)
(0.0132449 0.123691 0.255661)
(0.073784 0.142422 0.338956)
(-0.0283261 0.303192 0.594389)
(0.23854 0.190261 0.932271)
(-0.0593901 0.0218239 0.772674)
(-0.0763764 -0.131614 1.05504)
(-0.112041 -0.115901 0.566707)
(-0.0386388 0.220553 0.565135)
(0.0854875 0.15281 0.641815)
(-0.0157079 -0.0508741 0.469109)
(-0.0683754 0.156267 0.377924)
(-0.118927 0.0577836 0.47799)
(-0.0112625 0.0961728 0.451672)
(0.01495 0.00140066 0.387199)
(-0.0851065 -0.0147861 0.336868)
(-0.105567 0.118752 0.263017)
(-0.0900544 0.0461817 0.328401)
(-0.000195514 -0.123686 0.461979)
(-0.0169267 -0.129162 1.43603)
(-0.0240042 0.112289 0.299264)
(-0.00693327 0.166205 0.526504)
(0.105479 0.133942 1.19621)
(0.0653879 -0.0742699 1.41226)
(-0.0175126 -0.00898987 1.40613)
(0.0192188 0.065968 0.222569)
(0.106083 0.0709885 0.42548)
(-0.0736767 0.280507 0.555768)
(0.198861 0.258812 0.902538)
(0.011619 0.162643 0.815366)
(0.0237177 0.0438701 0.931382)
(-0.166349 -0.153812 0.618418)
(-0.0828089 0.207388 0.600379)
(0.0374818 0.232579 0.700397)
(-0.0084658 0.0261226 0.546434)
(-0.0584195 0.145799 0.36784)
(-0.160374 0.0344313 0.560137)
(-0.0521231 0.129929 0.538224)
(-0.00773268 0.0184251 0.451073)
(-0.163562 -0.0186861 0.314199)
(-0.133276 0.135897 0.272958)
(-0.166505 0.0657719 0.329538)
(-0.15032 -0.0589255 0.455467)
(-0.106195 -0.194369 1.60886)
(0.0117833 0.0985471 0.306844)
(0.0115539 0.122769 0.452765)
(0.029283 0.253924 0.98592)
(0.135487 0.0606212 1.3574)
(-0.0573703 0.0473459 1.46079)
(0.00790981 -0.0152425 0.216703)
(0.118028 -0.0341446 0.504976)
(-0.0987992 0.24566 0.532571)
(0.0778898 0.326857 0.834193)
(-0.00542833 0.301451 0.810425)
(0.131525 0.212763 0.901031)
(-0.193644 -0.181164 0.657712)
(-0.129654 0.196479 0.65914)
(-0.0391034 0.2836 0.754189)
(-0.00914532 0.155933 0.648128)
(-0.0703182 0.184783 0.418116)
(-0.203953 0.00147897 0.640752)
(-0.0972772 0.162426 0.639)
(-0.032462 0.0399346 0.536944)
(-0.207401 -0.0344665 0.340408)
(-0.14004 0.13473 0.307991)
(-0.196515 0.0641503 0.355924)
(-0.251218 -0.0044281 0.485855)
(-0.131763 -0.146674 1.61113)
(0.0312142 0.074385 0.33798)
(0.0258955 0.0652524 0.440169)
(-0.0791009 0.269186 0.81895)
(-0.00838932 0.301912 1.14935)
(0.00759274 0.210029 1.48607)
(-0.00572682 -0.083681 0.257602)
(0.147809 -0.118437 0.539657)
(-0.0917981 0.19168 0.541695)
(-0.0399193 0.345388 0.808763)
(-0.0856149 0.394407 0.810305)
(0.0568821 0.404817 0.856016)
(-0.19848 -0.202859 0.692208)
(-0.172547 0.188808 0.725364)
(-0.117976 0.294243 0.805759)
(-0.0514987 0.274373 0.75929)
(-0.101095 0.233573 0.550294)
(-0.237315 -0.0193589 0.728051)
(-0.144218 0.177883 0.740661)
(-0.0556576 0.0578984 0.661201)
(-0.185399 -0.0335867 0.421151)
(-0.143876 0.13308 0.343222)
(-0.176505 0.0381683 0.415085)
(-0.282155 0.0369401 0.538018)
(-0.202975 -0.085365 1.44356)
(0.0327001 0.0559178 0.381183)
(0.0499484 0.009758 0.471637)
(-0.119028 0.204222 0.752783)
(-0.17134 0.41238 0.907524)
(0.0303847 0.320329 1.33597)
(-0.0150876 -0.113976 0.320776)
(0.174341 -0.185481 0.531141)
(-0.0177929 0.0910853 0.55999)
(-0.0812329 0.322169 0.805094)
(-0.117502 0.416005 0.851294)
(-0.0966012 0.519862 0.80175)
(-0.185416 -0.216312 0.734433)
(-0.191276 0.161643 0.784715)
(-0.157979 0.286519 0.853636)
(-0.0909327 0.329233 0.866777)
(-0.10167 0.224031 0.754098)
(-0.261813 -0.0400334 0.82477)
(-0.178888 0.176266 0.837921)
(-0.0816313 0.0706928 0.812934)
(-0.0957208 -0.0137899 0.46435)
(-0.148543 0.132312 0.372067)
(-0.123497 0.00109959 0.48784)
(-0.230047 0.0370547 0.606301)
(-0.232348 0.0839908 0.949015)
(0.0220169 0.0495035 0.41979)
(0.0804125 -0.0410918 0.521443)
(-0.0815225 0.111528 0.739467)
(-0.151907 0.329359 0.812983)
(-0.104803 0.210002 0.902202)
(-0.0176979 -0.100999 0.39206)
(0.168225 -0.219427 0.510029)
(0.0852224 -0.00907591 0.566746)
(-0.0524637 0.263109 0.799518)
(-0.0784528 0.367937 0.91648)
(-0.0945708 0.34626 0.838292)
(-0.163523 -0.215209 0.759733)
(-0.176699 0.108154 0.817513)
(-0.158702 0.257857 0.883215)
(-0.0702744 0.293734 0.977417)
(-0.0677668 0.14099 0.915392)
(-0.273779 -0.0551621 0.91124)
(-0.192563 0.157188 0.921172)
(-0.10446 0.0819571 0.946372)
(-0.0134487 -0.010965 0.456644)
(-0.157405 0.132265 0.392658)
(-0.0697151 -0.0402166 0.541393)
(-0.109217 -0.00442148 0.642745)
(-0.0154569 0.114455 0.645762)
(0.00282008 0.0555393 0.44424)
(0.101261 -0.0937585 0.565197)