/*--------------------------------*- C++ -*----------------------------------*\
| =========                 |                                                 |
| \\      /  F ield         | OpenFOAM: The Open Source CFD Toolbox           |
|  \\    /   O peration     | Version:  5.x                                   |
|   \\  /    A nd           | Web:      www.OpenFOAM.org                      |
|    \\/     M anipulation  |                                                 |
\*---------------------------------------------------------------------------*/
FoamFile
{
    version     2.0;
    format      ascii;
    class       volScalarField;
    location    "3";
    object      p;
}
// * * * * * * * * * * * * * * * * * * * * * * * * * * * * * * * * * * * * * //

dimensions      [0 2 -2 0 0 0 0];

internalField   nonuniform List<scalar> 
10571
(
311.559
337.804
327.304
298.765
280.173
332.202
290.591
272.14
261.631
211.75
319.8
299.823
276.55
251.883
240.682
179.02
280.861
236.475
171.214
146.376
174.305
138.743
137.394
131.533
132.647
232.465
191.313
103.22
94.5888
143.053
145.739
144.892
94.8348
89.985
109.967
112.301
121.811
122.475
80.8409
93.4719
86.6764
79.409
95.9453
91.4631
90.6389
91.9689
91.8955
93.9202
92.2184
97.164
84.0601
89.7064
84.7146
76.4039
75.6881
79.255
76.554
86.3002
76.7074
76.0652
74.3432
74.7226
78.6137
86.4778
77.1356
77.7106
76.6243
82.6535
84.6304
91.3374
85.9513
87.0031
80.5524
77.0602
78.5126
86.735
79.5343
74.8339
74.6091
77.6214
78.6982
79.8786
74.3304
74.349
72.8109
72.5708
76.162
78.5326
74.6191
75.8873
73.4187
77.3483
77.8959
80.9205
79.2065
79.4
69.3844
72.3794
72.6138
68.6423
72.4296
72.2539
73.5427
72.972
72.7827
74.7394
72.4224
72.3001
72.1527
71.2124
72.026
70.3417
72.6555
73.3361
73.8307
74.7303
71.6642
73.0692
74.5409
75.3712
68.2774
69.582
68.9649
68.7914
68.1448
70.7986
70.4973
67.3247
67.1315
68.0127
67.6979
70.7995
70.8862
69.5344
67.7282
68.0461
67.8033
67.1736
70.8809
71.1696
71.4928
72.4904
68.5074
70.8453
71.1059
71.1777
67.4443
67.1727
67.2123
67.2842
67.7947
69.4017
67.0246
67.0093
67.4492
68.3898
67.6109
69.1153
69.2504
67.7814
67.152
67.1237
67.5995
67.0633
69.3695
69.3985
68.0438
68.5527
67.3705
66.9481
69.0141
68.7555
68.1514
66.9725
66.6781
66.6616
66.8621
67.1452
66.7722
66.2235
66.8374
67.3257
67.4108
66.7148
67.5893
67.5976
67.304
66.9772
67.1903
67.4226
66.7465
68.0923
67.8075
66.024
67.7976
68.3586
67.3514
67.3354
66.9968
67.2402
66.6841
66.518
66.5247
66.6286
66.7592
66.4344
66.4382
66.5575
66.8502
66.3786
66.6161
66.6195
67.0406
66.3012
66.5991
66.9377
66.9206
67.4042
66.98
66.0522
65.6145
67.0251
68.3437
66
66.07
66.8983
66.4841
66.4112
66.3973
66.4362
66.514
66.3263
66.451
66.351
66.4298
65.4176
66.208
65.879
65.4681
66.2662
66.4626
66.3554
65.8131
65.3073
65.766
66.1462
66.0934
65.7472
65.8497
66.394
66.3372
66.3048
66.2908
66.2782
66.3174
66.2912
66.3662
66.2318
66.1413
65.7293
66.129
65.8998
65.74
66.1023
66.1093
65.6194
65.714
65.7074
65.8933
65.6599
65.9496
65.8031
65.8655
66.0626
66.2241
66.2038
66.182
66.1559
66.1757
66.1967
66.2403
66.1641
66.024
65.9548
66.0863
66.033
65.9808
66.0574
65.971
65.9097
65.8613
65.9122
65.9073
65.8294
65.8502
65.8195
65.9237
65.7118
66.1135
66.1203
66.0809
66.0344
66.0707
66.1294
66.125
66.095
66.0111
65.997
66.0084
66.0118
65.99
66.0252
65.9276
65.9884
65.8301
65.8896
65.8654
65.8464
65.9292
65.8418
65.8668
65.6897
66.0028
66.0383
65.991
65.9194
65.9856
66.0485
66.0307
65.9907
65.9867
65.9982
65.964
65.9746
65.9312
65.9889
65.9368
65.9619
65.8137
65.8437
65.8516
65.8736
65.9518
65.8303
65.7837
65.8468
65.9223
65.9718
65.926
65.8325
65.9319
65.9794
65.9434
65.8767
65.9497
65.9935
65.9224
65.9541
65.919
65.9691
65.9568
65.9603
65.8576
65.8553
65.8453
65.8717
65.9457
65.8532
65.8553
65.8597
65.9023
65.925
65.8926
65.8205
65.9235
65.8928
65.8643
65.8087
65.9003
65.9883
65.8918
65.9091
65.933
65.9551
65.9552
65.9695
65.8764
65.8994
65.849
65.9007
65.9643
65.8954
65.9022
65.9089
65.9478
65.9015
65.8944
65.8761
65.9419
65.827
65.8223
65.8181
65.8496
65.9863
65.8461
65.8538
65.9423
65.9568
65.9444
65.9625
65.8967
65.9201
65.8714
65.9398
65.9741
65.9061
65.913
65.9104
66.0174
65.8855
65.9196
65.9547
65.9735
65.7541
65.8423
65.8907
65.8298
66.0025
65.8231
65.8099
65.9573
65.9949
65.954
65.9705
65.9074
65.9252
65.8987
65.9379
65.9864
65.9282
65.9145
65.8974
66.0746
65.8751
65.9511
66.0129
66.0126
65.6837
65.8774
65.9665
65.9048
66.0371
65.7947
65.7467
65.9344
66.0225
65.9668
65.9949
65.9046
65.9285
65.9209
65.9571
66.0036
65.9372
65.9473
65.942
66.103
65.8882
65.9812
66.0342
66.0492
65.6752
65.884
66.0057
66.0514
66.0951
65.8215
65.7311
65.9025
66.003
65.9711
66.0229
65.9015
65.9232
65.9398
65.9921
66.0304
65.9457
65.9494
65.9601
66.1042
65.9406
66.0077
66.0325
66.0723
65.7751
65.8849
66.0035
66.1804
66.1449
65.8966
65.8034
65.9341
65.9902
65.9881
66.0469
65.9281
65.9221
65.9584
66.0067
66.05
65.9547
65.9584
65.9739
66.0936
66.0154
66.0308
66.0176
66.0826
65.9318
65.8919
65.9829
66.1923
66.1618
66.0083
65.9423
65.9899
66.0161
66.0173
66.0527
65.9662
65.9391
65.9796
66.0352
66.0705
65.9685
65.9837
66.0102
66.073
66.0785
66.0512
65.9984
66.067
66.0756
65.9554
65.9551
66.117
66.1584
66.1
66.0879
65.9799
66.0287
66.0289
66.0436
66.0129
65.959
65.9774
66.0459
66.0776
65.9769
65.9945
66.0161
66.0568
66.0955
66.06
65.9707
66.0332
66.1062
65.9747
65.9186
66.0141
66.1143
66.1495
66.2408
66.0089
66.0081
66.0173
66.0338
66.0382
65.9415
65.9497
66.034
66.0563
65.9754
65.9912
66.0104
66.0285
66.0743
66.0382
65.9191
65.9807
66.0527
65.9511
65.8771
65.9181
66.0389
66.0632
66.0829
65.9762
65.983
65.9832
66.0032
66.0082
65.901
65.9163
66.0086
66.0313
65.9599
65.9744
65.9958
65.9824
66.0316
65.9765
65.8486
65.9161
66.0374
65.9318
65.8469
65.8298
65.9776
66.024
65.9535
65.9631
65.9703
65.934
65.971
65.9659
65.8901
65.8832
65.979
66.0058
65.9484
65.9565
65.9743
65.9219
65.9801
65.9172
65.8203
65.8688
66.0141
65.9142
65.8362
65.7429
65.9357
66.0288
65.9503
65.962
65.937
65.8999
65.9418
65.9238
65.8983
65.8435
65.9466
65.9791
65.9384
65.9356
65.9494
65.8361
65.9307
65.8796
65.8053
65.8326
65.9583
65.8888
65.8386
65.6947
65.9014
66.0037
65.9346
65.9487
65.8954
65.8837
65.9193
65.9067
65.9172
65.8178
65.9182
65.9528
65.9296
65.9162
65.9314
65.8045
65.8893
65.8502
65.8077
65.8045
65.8966
65.8601
65.8417
65.6822
65.8863
65.8887
65.8681
65.9254
65.8749
65.8765
65.9068
65.8908
65.9213
65.8232
65.9074
65.9322
65.9249
65.9048
65.9257
65.8027
65.8556
65.8218
65.796
65.7831
65.8489
65.83
65.8472
65.6883
65.883
65.7938
65.8107
65.8937
65.8693
65.863
65.9009
65.8614
65.8997
65.8488
65.9042
65.9232
65.9147
65.8982
65.9281
65.8074
65.8236
65.8021
65.7888
65.7735
65.8071
65.801
65.8428
65.6997
65.8795
65.7884
65.822
65.8634
65.8652
65.8503
65.8978
65.8693
65.881
65.8677
65.8993
65.9183
65.9017
65.8951
65.9217
65.8125
65.8023
65.7901
65.7981
65.7828
65.7723
65.779
65.8218
65.7133
65.8749
65.8063
65.8293
65.8439
65.8537
65.8562
65.9089
65.8984
65.9014
65.8663
65.8969
65.9186
65.8934
65.886
65.9142
65.8109
65.8043
65.7832
65.7854
65.789
65.7753
65.7638
65.7904
65.7205
65.8617
65.8228
65.8352
65.8354
65.8375
65.8743
65.9159
65.9146
65.9395
65.8437
65.8966
65.9188
65.8899
65.8724
65.9059
65.8177
65.8121
65.775
65.7738
65.7863
65.8015
65.7531
65.7489
65.7134
65.8463
65.83
65.8405
65.8231
65.8147
65.8783
65.9007
65.8886
65.9435
65.8117
65.8886
65.9075
65.8817
65.8462
65.8914
65.833
65.7985
65.7621
65.7631
65.7793
65.7948
65.7333
65.7055
65.695
65.8258
65.7971
65.7921
65.7903
65.7939
65.8505
65.8745
65.8318
65.9041
65.792
65.8615
65.8797
65.8576
65.8175
65.8692
65.8128
65.7498
65.7402
65.7567
65.758
65.7385
65.7016
65.6859
65.6673
65.7986
65.7281
65.7187
65.7494
65.7798
65.7908
65.8344
65.7896
65.8534
65.7835
65.8152
65.8367
65.8323
65.7937
65.8427
65.7584
65.678
65.7053
65.7169
65.7179
65.6478
65.66
65.6643
65.6212
65.7575
65.6556
65.6391
65.7009
65.7633
65.716
65.7807
65.6955
65.8126
65.7769
65.7615
65.7852
65.8083
65.7764
65.8166
65.6987
65.6147
65.6679
65.6569
65.674
65.5714
65.62
65.6288
65.5636
65.7
65.6043
65.5536
65.6683
65.7375
65.6338
65.7219
65.5551
65.7822
65.7801
65.7043
65.7288
65.7909
65.7644
65.7911
65.6509
65.5949
65.6378
65.6411
65.6236
65.5595
65.5911
65.5791
65.4967
65.6355
65.6242
65.5341
65.6537
65.6931
65.5587
65.6556
65.5342
65.7614
65.8115
65.6661
65.6759
65.7776
65.7575
65.7716
65.6237
65.6154
65.6124
65.6172
65.5619
65.5951
65.5648
65.5223
65.4175
65.5587
65.69
65.6021
65.6341
65.6006
65.4695
65.579
65.653
65.7362
65.8272
65.636
65.6195
65.7577
65.7452
65.7461
65.5661
65.6471
65.5859
65.5289
65.4694
65.6192
65.5393
65.4521
65.3324
65.4681
65.6937
65.6077
65.603
65.4398
65.3729
65.4778
65.746
65.7093
65.7803
65.5924
65.553
65.7272
65.7148
65.7093
65.4758
65.702
65.5597
65.4311
65.3805
65.6573
65.5181
65.3789
65.2498
65.3933
65.6621
65.5957
65.5643
65.2636
65.3131
65.3812
65.7696
65.6829
65.6836
65.5495
65.4851
65.698
65.6692
65.6594
65.3885
65.7096
65.5306
65.3727
65.3233
65.6994
65.4971
65.3422
65.1818
65.3415
65.6576
65.6123
65.5188
65.164
65.2988
65.3217
65.7132
65.6421
65.5738
65.5185
65.436
65.6871
65.6256
65.6156
65.3224
65.6732
65.5081
65.3582
65.3042
65.7295
65.4794
65.3587
65.1489
65.3174
65.6827
65.6349
65.4729
65.1642
65.3144
65.3136
65.71
65.6063
65.4631
65.4954
65.4113
65.7024
65.5935
65.5845
65.2829
65.6678
65.5034
65.3068
65.2844
65.7423
65.4873
65.3564
65.1798
65.3321
65.7004
65.6531
65.4396
65.2397
65.3349
65.3484
65.7651
65.5699
65.3754
65.4607
65.4137
65.7176
65.5683
65.5647
65.2773
65.6929
65.5249
65.2582
65.2808
65.7513
65.5217
65.352
65.2382
65.3968
65.72
65.6719
65.4123
65.3491
65.3724
65.4251
65.7904
65.5378
65.3175
65.4627
65.4559
65.7011
65.5418
65.558
65.3521
65.7481
65.586
65.2627
65.3722
65.7857
65.5983
65.3976
65.3539
65.511
65.7597
65.7132
65.4318
65.5267
65.4289
65.539
65.8224
65.5325
65.304
65.5109
65.5346
65.6862
65.5248
65.5665
65.5515
65.8342
65.7001
65.4081
65.5692
65.8478
65.7091
65.4619
65.5222
65.6474
65.8203
65.7801
65.5665
65.7224
65.4931
65.6793
65.8842
65.5568
65.3482
65.5787
65.6397
65.7014
65.5302
65.6022
65.8219
65.9363
65.8546
65.6765
65.8268
65.9103
65.8381
65.5716
65.7251
65.82
65.8977
65.8632
65.7166
65.7784
65.674
65.841
65.9622
65.5978
65.4373
65.6945
65.7714
65.7454
65.5617
65.6478
66.0989
66.0281
66.0123
65.9725
66.1534
65.9651
65.962
65.7751
66.0932
66.0123
65.9826
65.9451
65.8251
65.7823
65.874
66.0144
66.0447
65.6427
65.5633
65.816
65.9311
65.7912
65.6095
65.7066
66.3289
66.0898
66.1357
66.2407
66.3784
65.9965
66.065
66.072
66.4154
66.372
66.0492
66.0057
65.9095
65.8695
66.1943
66.3081
66.1019
65.6907
65.6858
66.0084
66.1626
65.8351
65.6758
65.7857
66.4628
66.1182
66.2116
66.4139
66.6618
66.025
66.1317
66.2807
66.5513
66.641
66.0792
66.0335
65.9979
66.1288
66.5219
66.6458
66.1074
65.7523
65.8255
66.2678
66.4212
65.88
65.7631
65.8838
66.4985
66.1216
66.2431
66.4745
66.8327
66.0354
66.1384
66.3675
66.6845
66.7556
66.0757
66.0286
66.046
66.3051
66.6543
66.857
66.0728
65.8114
65.9243
66.4389
66.5677
65.9269
65.8502
65.9522
66.4714
66.1146
66.2418
66.4474
66.7938
66.0235
66.1128
66.3437
66.635
66.8004
66.0494
65.9971
66.0196
66.2713
66.5712
66.7448
66.0406
65.8561
65.9283
66.4297
66.5511
65.966
65.9405
66.021
66.4151
66.118
66.2318
66.3905
66.6286
66.012
66.0926
66.2726
66.4788
66.6083
66.0279
65.9644
65.95
66.1655
66.3725
66.4824
66.0135
65.8757
65.9008
66.2848
66.4049
65.9955
65.9918
66.0693
66.3657
66.1482
66.2396
66.3304
66.4506
66.0308
66.0913
66.1841
66.3054
66.3692
66.0375
65.9286
65.9068
66.0443
66.1517
66.2354
66.0134
65.9028
65.8875
66.1341
66.1843
66.0263
66.0102
66.0431
66.3397
66.2301
66.279
66.2938
66.3064
66.109
66.1233
66.12
66.1193
66.1424
66.1153
65.9608
65.8819
65.9284
65.9705
66.0295
66.0778
65.9983
65.7986
65.9881
66.0113
66.114
66.0316
65.9595
66.3472
66.3834
66.365
66.2899
66.186
66.2645
66.2145
66.0869
65.9176
65.9197
66.307
66.1345
65.9013
65.8488
65.721
65.7751
66.2717
66.1623
65.6718
65.6443
65.7504
66.2507
66.0403
65.8071
66.388
66.613
66.4972
66.3138
66.0793
66.511
66.3504
66.072
65.6436
65.6193
66.6083
66.4268
65.9726
65.8011
65.3465
65.3711
66.5583
66.4045
65.5779
65.2377
65.3496
66.4345
66.0921
65.6102
66.4628
66.8969
66.6698
66.36
65.9607
66.8436
66.5273
66.0637
65.2041
65.0791
67.006
66.8104
66.2049
65.7598
64.7959
64.5476
66.9606
66.8062
65.5515
64.818
64.656
66.6626
66.1233
65.3575
66.5738
67.1997
66.8729
66.4213
65.8081
67.2087
66.6893
66.0087
64.4512
63.9253
67.4657
67.2379
66.6107
65.6447
63.9343
62.4228
67.4603
67.2492
65.7364
64.2592
63.358
66.9649
66.2683
65.131
66.7263
67.5054
67.0879
66.4947
65.6165
67.5572
66.7596
65.7696
63.3707
60.9056
67.8781
67.6131
66.9027
65.3946
62.7501
57.2162
67.9318
67.6495
66.0861
63.696
60.8214
67.2674
66.4458
65.0377
66.9345
67.7727
67.3034
66.5888
65.4083
67.8626
66.8387
65.3659
61.963
52.1145
68.1394
67.8283
66.9533
65.1242
61.4966
50.853
-26.894
68.498
67.8507
66.439
63.1773
55.5415
67.4728
66.5593
65.0905
67.2055
68.0283
67.5226
66.7194
65.3597
68.1783
66.6873
65.2346
61.369
44.1449
0.283133
68.1614
67.8644
66.6239
65.2043
61.0572
48.1767
5.47647
68.7537
67.6263
66.5753
63.2282
48.8512
67.4282
66.684
65.4673
67.4974
68.2225
67.7362
66.8822
65.6272
68.2302
66.4125
65.1497
62.2535
49.8663
14.8938
68.3576
67.7698
66.1624
65.4305
62.7802
49.1688
17.8318
67.4653
66.9006
66.3724
64.3697
53.6346
19.6009
66.9059
66.492
66.0497
67.753
68.3966
67.8906
67.0512
66.1604
67.638
66.1738
65.189
63.8789
51.8257
15.0828
67.8027
66.6447
65.6254
65.4168
64.5169
53.2323
18.6327
65.0268
65.5812
65.9803
65.7286
63.2342
65.8493
66.053
66.4308
67.8132
68.1857
67.66
67.0182
66.5274
66.8314
65.4441
65.4564
65.2202
59.1768
66.2979
65.5265
65.135
65.6134
65.2171
59.0303
-6.60201
64.1047
65.0095
65.6537
66.1385
67.3506
65.196
65.5661
66.3368
67.3734
67.2775
66.8454
66.4854
66.7198
66.119
65.1909
65.481
66.2057
65.8919
65.8277
65.2794
64.8763
65.869
65.6523
65.8854
64.7346
64.8903
65.5119
66.1939
67.9038
65.12
65.3476
66.0763
66.8984
66.7878
66.1463
65.9176
66.6439
65.9744
65.0926
65.3951
66.4112
67.1727
66.0076
65.4706
65.0811
66.0585
66.163
67.6656
65.3316
65.0952
65.772
66.3247
67.4994
65.3508
65.6111
66.1593
66.5866
66.8998
66.0866
65.5675
66.4491
66.2515
65.2801
65.5595
66.5265
67.3547
66.4861
65.9406
65.5583
66.3165
66.5048
67.8802
65.9364
65.8329
66.2818
66.6169
67.4059
65.945
66.3748
66.6403
66.5874
67.3584
66.4315
65.7041
66.2861
66.8211
65.6871
65.8301
66.482
67.3418
67.1735
66.5662
66.0761
66.5562
66.9899
68.1121
66.6387
66.5896
67.0563
66.9274
67.8672
66.6664
67.5061
67.3035
66.7357
67.9428
66.7932
65.9363
66.356
67.518
66.3099
66.1937
66.7308
67.3253
67.991
67.2822
66.7919
67.001
67.681
68.1717
67.3884
67.3559
67.6191
67.7143
68.4462
67.4631
68.0338
68.1312
66.968
68.4207
66.9697
66.2139
66.6258
68.1562
66.907
66.6332
67.0726
67.3755
68.7608
68.0089
67.4091
67.532
68.1391
68.2426
68.1304
68.0387
68.2281
68.5428
68.8897
68.2524
68.5156
69.018
67.2235
68.7111
66.896
66.6036
66.9124
68.5962
67.4492
66.9952
67.1452
67.5593
69.3419
68.523
67.768
67.5606
67.9622
68.5775
68.6266
68.2862
68.4239
69.0507
69.3285
68.7295
69.0189
69.8813
67.2295
68.6343
66.8755
67.0152
67.218
68.7546
67.6243
67.279
67.329
67.8523
69.5703
68.6745
67.9609
67.8056
68.325
68.9003
68.8432
68.4833
68.6353
69.247
69.6243
69.0102
69.2389
70.1729
341.684
332.455
343.528
339.023
319.333
318.733
305.314
298.098
350.374
345.723
345.303
348.942
335.316
339.929
327.27
317.75
304.312
309.675
300.403
290.695
282.698
293.787
281.756
276.859
277.627
265.736
354.346
348.299
353.003
345.47
322.417
332.443
308.822
301.392
288.186
291.427
280.212
278.505
271.059
270.05
264.02
265.312
269.272
258.707
262.491
263.054
263.305
244.937
338.245
335.196
318.685
313.644
295.504
300.281
287.919
286.574
289.564
277.048
287.413
269.904
257.728
259.848
235.766
251.308
257.994
232.631
247.005
257.293
242.778
249.457
306.737
300.926
286.346
273.687
256.689
263.72
253.676
233.936
230.907
216.526
192.391
218.171
187.232
198.891
225.229
182.895
183.942
234.995
212.872
208.98
217.853
190.291
222.879
191.827
195.143
176.09
338.03
311.509
324.192
339.729
330.398
268.689
292.196
269.414
309.875
302.253
262.509
254.805
257.69
294.38
214.993
340.645
292.311
336.586
340.959
325.137
314.112
317.853
301.772
299.832
263.279
270.422
252.611
170.366
136.806
200.831
120.562
224.693
110.525
344.464
334.122
339.762
282.19
260.301
262.788
223.054
178.087
111.131
110.399
105.917
318.939
298.337
233.191
224.417
190.286
165.43
173.187
105.995
106.661
103.502
285.843
149.015
270.04
246.414
191.998
164.668
142.93
115.599
92.6676
148.879
123.792
128.63
103.161
101.106
100.681
102.576
105.074
134.447
91.304
143.038
124.415
95.8081
98.1224
97.1492
140.024
116.227
101.478
106.978
99.5667
103.207
229.794
151.179
163.346
206.758
159.933
105.477
132.403
102.914
116.013
112.93
93.7517
91.0985
90.0387
108.522
87.784
201.666
125.562
231.867
204.891
196.369
146.558
142.831
115.581
95.4366
93.844
91.1755
86.5692
85.5584
88.0174
81.3246
85.8555
88.7259
87.8621
183.576
142.951
143.531
103.38
85.2684
84.8278
89.3312
92.2391
88.9395
89.606
90.9316
95.6611
91.891
77.7638
75.7745
77.1637
94.376
91.2337
90.2181
90.5477
88.3716
87.378
77.5036
85.2099
82.334
80.843
76.9559
77.4965
79.4022
84.7889
90.761
95.2521
92.9604
86.838
88.015
90.5434
88.6907
87.4245
88.071
89.513
87.934
89.3077
92.0637
87.9585
88.7759
93.7039
95.0204
89.8113
90.3072
90.7702
90.6518
104.012
86.9697
92.1283
95.8092
90.5174
87.1321
85.0862
87.1657
92.5888
91.2499
88.1277
88.6024
85.8108
86.0689
81.0259
87.7842
78.3742
90.9403
82.9581
79.1754
81.9778
81.1559
78.14
79.2312
83.771
84.6273
84.1314
81.8815
81.114
84.0862
81.9642
84.6637
82.25
78.898
77.3109
76.9652
75.9486
75.9663
75.7972
86.227
87.2728
82.8523
82.2883
82.9852
76.7332
77.4288
75.4267
75.7191
75.9988
86.2418
85.3661
82.8014
82.2593
81.417
77.3092
76.0935
77.2481
77.4836
82.6446
76.0477
75.7165
75.0384
76.6605
84.6405
86.6142
85.5501
79.4589
81.0103
83.0894
82.6247
81.407
88.4308
81.8323
86.5258
87.5491
88.4725
83.8696
85.3158
86.3669
86.3992
82.3004
82.2237
82.4866
82.8566
80.0612
75.4683
81.4291
79.6719
81.8323
73.7806
75.0531
73.8286
80.586
77.6679
71.2685
70.7035
71.487
76.9606
74.8424
75.5392
73.9229
77.8998
75.9053
77.1029
74.4507
75.0366
74.0968
74.5523
79.4641
81.8752
80.0462
77.65
77.4651
79.3258
78.3054
80.2088
77.996
74.7086
74.4718
74.4929
73.4531
73.5025
73.404
80.1427
79.7046
77.3216
78.1479
76.7308
74.4672
74.5199
73.4111
73.4825
73.3546
78.344
76.7776
73.5756
73.7381
72.7264
74.5295
73.3567
74.2359
73.9264
73.5146
73.5785
73.109
73.397
72.758
77.7578
79.9453
79.4429
75.82
74.9446
77.5673
76.4269
74.4552
74.592
73.3418
80.4815
82.3053
75.2118
76.9751
77.8572
78.5472
79.7058
76.7086
76.3484
77.3588
77.0889
71.9957
69.7781
69.8822
71.1376
69.7873
68.8766
69.0244
68.9277
69.3951
69.1283
69.0361
69.155
68.6073
70.8992
68.7291
72.482
71.3319
72.2187
72.3482
72.3791
70.754
70.24
70.6866
70.5518
73.1079
73.6523
75.5469
68.0693
69.3232
67.5228
69.7306
74.903
70.0439
72.3145
72.4556
72.3955
71.6367
71.6548
71.6502
74.915
72.4959
70.7704
70.1081
68.6892
72.4765
72.3702
71.5699
71.5721
71.4938
70.1151
70.5543
68.6116
68.4496
69.4067
72.5162
71.6621
72.2095
72.5514
72.0489
71.7394
71.3757
71.7759
71.3354
72.7038
75.7298
73.9318
73.8677
70.8706
73.9735
71.8995
69.7825
72.4066
71.5106
73.969
73.76
71.8397
72.1521
71.6268
75.0382
74.6445
72.5908
72.9645
72.3035
73.3817
68.2584
67.4571
68.0659
67.938
68.1408
67.6649
67.4978
67.5517
68.3321
68.2863
67.7662
67.7301
67.9133
68.4579
68.1193
70.3962
69.675
68.9034
69.6504
69.2154
68.6213
67.9112
69.2438
69.0147
68.1429
67.3664
66.8812
68.0908
68.0917
67.8024
67.5927
67.4058
67.8587
70.9556
71.1114
71.0712
70.2144
70.3731
70.3478
68.1959
67.5802
68.2857
68.0418
68.1136
67.6569
67.6679
68.2964
67.2489
67.4628
67.7766
68.7858
67.2426
67.581
70.8221
70.6956
69.9168
70.0197
69.9177
68.0083
68.3067
67.0151
67.4668
67.2902
67.4858
66.565
67.3327
67.0473
67.3435
67.0874
67.3968
66.9265
67.4742
70.797
70.0201
70.6749
70.9263
70.6258
70.0949
70.0297
70.1085
69.8618
69.3293
72.0996
70.2733
70.1804
68.0982
69.9047
69.0559
67.6368
70.726
69.8811
71.2356
70.58
69.9574
70.3581
70.0309
70.7884
70.8634
69.859
69.3155
69.7763
69.4527
67.2583
66.9898
67.3228
67.1783
67.1896
67.0466
66.9553
66.9989
67.3581
67.5487
67.1784
67.1203
67.2561
67.7558
67.4216
68.7642
67.22
67.1124
68.312
68.5587
66.7327
66.7795
66.8501
67.1291
67.9791
67.7501
67.9249
67.4443
67.704
67.4662
67.7855
68.4064
68.2307
68.1376
67.7241
67.799
68.4694
67.486
68.3728
69.277
69.3335
69.3802
68.0208
68.1966
68.2325
68.1199
67.9497
67.6612
67.8514
67.449
67.6917
67.1189
68.1395
67.1203
67.3296
66.9062
67.9011
66.5355
67.288
69.1519
69.1193
68.3489
68.3726
68.3056
67.7012
67.5772
67.3016
67.6002
67.4649
67.5328
67.6173
67.4097
66.9083
67.3735
66.7693
67.3733
66.9291
67.4557
69.2703
68.5353
69.2136
69.4265
69.2672
68.7057
68.4729
68.8567
68.746
67.383
67.9097
67.9387
68.0688
67.5754
67.0205
67.4886
66.9507
67.7687
67.7849
67.2675
67.0861
67.3304
69.0609
68.4301
69.1709
69.0932
68.1858
68.0367
68.1364
68.2025
68.7052
67.7693
67.5646
67.7495
67.4438
66.7587
66.6343
66.8561
66.789
66.8423
66.7126
66.6614
66.6996
66.9472
67.029
66.8117
66.7999
66.8608
67.1407
66.9321
66.6078
66.5405
66.6812
66.5405
66.4874
66.5989
66.6063
66.5233
66.523
67.3704
67.1951
67.5143
66.92
67.0623
66.9286
67.1949
67.6071
67.4931
66.6734
67.0954
67.2547
68.3266
67.1359
68.4232
66.8794
67.2092
67.2151
66.5491
66.6728
66.658
67.1317
67.2353
66.6825
66.7748
66.7129
66.71
66.2662
67.8908
66.2504
67.2562
66.7044
68.0029
66.1874
67.2865
67.6946
67.7014
66.977
67.0897
67.2282
67.2684
67.4822
67.6751
67.1479
67.2029
67.1697
67.9334
67.2922
66.8923
67.3992
66.8843
67.4866
67.5681
68.0533
67.9488
67.5089
67.9733
68.2183
68.1026
67.565
67.7111
67.477
67.397
67.7078
66.9805
67.419
67.4662
67.6
67.0438
67.3157
68.4111
68.5068
68.9581
67.4138
67.8593
67.8922
67.7263
66.9854
67.1553
67.3124
66.5331
66.4167
66.6473
67.0885
67.0147
66.4503
66.7772
66.5035
67.1083
66.5532
66.4797
66.5988
66.5667
66.582
66.5044
66.4875
66.487
66.6709
66.7266
66.5776
66.5562
66.6087
66.7794
66.6504
66.4896
66.4445
66.5268
66.4907
66.4845
66.4613
66.4606
66.4537
66.4374
66.7912
66.689
66.815
66.628
66.5935
66.4965
66.5523
65.9147
65.8029
66.4832
66.4339
66.4057
66.4177
66.2973
66.2644
66.4536
66.3021
66.2295
65.6793
66.1175
65.9879
66.4387
68.2061
66.2605
67.5522
67.5581
68.4269
67.7055
67.9867
66.6188
66.7995
66.3868
66.2851
66.4316
67.3456
67.0767
68.8724
66.6084
67.6221
66.6395
69.3897
68.1171
68.3069
68.4337
68.464
68.861
68.8506
68.732
67.0639
66.5706
67.2249
66.6379
66.4879
66.3278
66.2528
66.0593
65.8428
67.292
66.9614
67.1032
66.5189
66.7672
66.7368
66.8236
67.0298
66.2725
65.8522
66.0006
66.13
65.7727
65.8187
65.8761
66.4897
66.1064
65.8994
66.2356
65.8821
66.6361
66.4116
66.354
66.4215
66.4169
66.4056
66.347
66.3516
66.3326
66.4547
66.4989
66.403
66.3677
66.401
66.5293
66.4177
66.3978
66.344
66.4043
66.4132
66.3907
66.356
66.3518
66.3589
66.3419
66.4548
66.363
66.3972
66.4086
66.3568
66.2582
66.2965
65.8691
65.9942
66.3595
66.2402
66.2472
66.3207
66.2428
66.2605
66.166
67.5949
65.5633
65.8011
64.6276
66.0949
66.054
66.1475
66.1006
65.8685
68.2643
65.9806
65.8426
64.2203
65.7558
66.087
65.7823
65.4632
65.8261
65.7235
65.5968
65.2783
65.7709
65.754
66.3118
66.5081
66.5301
65.8187
66.0758
66.3022
66.3968
66.063
65.7792
65.8117
65.758
65.8151
65.7799
65.7532
65.7574
66.1468
65.8236
65.8518
65.998
65.8416
66.1867
66.3013
66.2494
66.2819
66.2947
66.2664
66.2251
66.2431
66.208
66.2951
66.3175
66.2787
66.2338
66.2482
66.3223
66.2447
66.2945
66.2433
66.2981
66.3059
66.2901
66.2536
66.2427
66.2556
66.2422
66.2842
66.174
66.2197
66.2407
66.222
66.1156
66.162
66.043
66.0598
66.2862
66.244
66.2401
66.229
66.2215
66.2075
65.7372
65.4027
65.8645
65.8677
65.9615
66.1164
65.9173
66.0876
66.0841
65.975
65.1633
65.7261
65.7723
65.8766
65.7806
65.7996
65.8869
65.5097
65.7851
65.8018
65.8395
65.7192
65.8196
65.8007
65.8571
66.0966
66.1987
65.7419
65.7005
65.9369
65.9138
65.8485
65.8256
65.808
65.7762
65.7538
65.8108
65.8059
65.7953
65.8754
65.8733
65.9016
65.7766
65.8733
65.9586
66.1999
66.1527
66.1734
66.1918
66.1546
66.1247
66.1436
66.1055
66.1782
66.1962
66.1683
66.1278
66.1524
66.1809
66.1272
66.1911
66.1449
66.1947
66.2094
66.1915
66.1611
66.1477
66.1703
66.1398
66.1633
66.07
66.1195
66.1203
66.1164
66.0334
66.0828
66.0679
66.0661
66.1699
66.166
66.1728
66.1242
66.1119
66.1151
65.9604
66.1222
65.9908
65.988
66.1162
66.0753
65.9864
66.0594
66.0498
65.9646
66.1435
65.8581
65.9632
66.1679
65.9151
65.9183
65.9041
65.8102
65.8364
65.795
65.8423
65.8109
65.8435
65.8096
65.7044
65.7338
65.668
65.8291
65.7603
65.6031
65.6153
65.884
65.8004
65.8114
65.8297
65.8379
65.8289
65.8367
65.8388
65.7144
65.8663
65.902
65.7827
65.8825
65.572
66.1081
66.0673
66.0785
66.0979
66.0601
66.033
66.0538
66.016
66.0808
66.1045
66.057
66.0283
66.0539
66.0759
66.0317
66.1044
66.0661
66.1038
66.1281
66.1003
66.0781
66.0637
66.0838
66.0665
66.0834
66.003
66.0555
66.0262
66.0548
65.9756
66.027
66.0593
66.0481
66.0819
66.076
66.0736
66.0411
66.0426
66.045
65.9797
66.1043
65.998
65.9577
66.0851
66.0101
65.9373
65.9804
65.9773
65.92
66.1562
65.9432
65.9865
66.1199
65.9587
65.8896
65.8761
65.8028
65.8483
65.8298
65.8099
65.803
65.8387
65.8503
65.8298
65.7191
65.7677
65.8766
65.8815
65.8231
65.8549
65.9533
65.8388
65.8504
65.8303
65.8175
65.8427
65.8236
65.8107
65.822
65.8651
65.8199
65.8141
65.827
65.8111
66.0306
66.0012
65.9904
66.0131
65.9746
65.953
65.978
65.9382
65.9764
66.0032
65.9566
65.9313
65.9611
65.9903
65.9558
66.0324
65.9994
66.0258
66.0488
66.0325
66.0033
65.9923
66.0187
66.0006
66.0246
65.9431
65.996
65.9527
65.9984
65.9185
65.9678
66.0359
66.0257
66.0002
66.0127
66.013
65.9705
65.9893
65.9907
65.935
66.0633
65.9964
65.9228
66.0476
65.9499
65.9119
65.9398
65.9333
65.9126
66.0738
65.9682
65.955
66.0578
65.9703
65.8574
65.8637
65.8169
65.8362
65.8558
65.8324
65.8377
65.8512
65.8547
65.8973
65.8703
65.888
65.8656
65.8932
65.8621
65.9028
65.9429
65.8344
65.8311
65.8289
65.8209
65.8273
65.8464
65.8429
65.8266
65.7782
65.8013
65.8352
65.7942
65.8482
65.9746
65.9529
65.9226
65.9512
65.9097
65.9032
65.9318
65.8912
65.8985
65.9312
65.9028
65.8802
65.9148
65.9346
65.9254
65.9651
65.9342
65.9625
65.9844
65.97
65.9448
65.9396
65.9498
65.9432
65.9779
65.9004
65.9478
65.9233
65.9638
65.8888
65.9326
66.0166
66.0098
65.9488
65.966
65.9601
65.9108
65.9343
65.9307
65.917
66.0344
65.9913
65.9135
66.0235
65.9197
65.9174
65.9057
65.9006
65.9196
66.0506
65.977
65.9676
66.0461
65.9894
65.8837
65.8958
65.855
65.8635
65.8534
65.8682
65.8692
65.8708
65.8632
65.8929
65.8428
65.8891
65.8852
65.9036
65.8423
65.8712
65.9553
65.8476
65.8723
65.8679
65.8647
65.882
65.8848
65.8819
65.8794
65.8472
65.886
65.9081
65.892
65.9006
65.9431
65.9397
65.8987
65.9234
65.8849
65.9078
65.9243
65.8904
65.8796
65.9156
65.9192
65.8957
65.9325
65.9258
65.9362
65.9074
65.8859
65.9244
65.9241
65.9216
65.9116
65.9157
65.9036
65.9062
65.9536
65.8862
65.926
65.9307
65.9514
65.8976
65.927
66.0044
66.0031
65.872
65.9061
65.9069
65.8485
65.8814
65.8832
65.9098
66.0139
65.985
65.9044
66.004
65.8847
65.9161
65.8736
65.8702
65.9054
66.0412
66.0006
65.9665
66.0353
66.0049
65.9005
65.9022
65.8802
65.8801
65.8757
65.8864
65.8881
65.8925
65.8894
65.9192
65.857
65.8962
65.9214
65.9284
65.8828
65.9173
65.969
65.8892
65.8979
65.8994
65.9004
65.8988
65.9104
65.91
65.8971
65.9051
65.9044
65.9011
65.8954
65.9023
65.9419
65.9487
65.9272
65.9324
65.9051
65.9519
65.9452
65.9251
65.9221
65.9574
65.9824
65.9535
65.9835
65.953
65.9727
65.8655
65.8449
65.9126
65.886
65.8962
65.8925
65.9136
65.8699
65.8892
65.957
65.9106
65.937
65.956
65.9665
65.931
65.9532
66.0078
66.0197
65.8225
65.852
65.8529
65.7905
65.8197
65.8198
65.9012
65.9955
65.9923
65.9021
65.9923
65.8449
65.8926
65.8321
65.8214
65.887
66.0292
66.0066
65.9623
66.0283
66.0128
65.9033
65.9057
65.8951
65.9031
65.8981
65.9034
65.9019
65.9094
65.9048
65.936
65.9146
65.9298
65.9434
65.9426
65.9151
65.9321
65.9806
65.9034
65.911
65.9137
65.912
65.9222
65.9196
65.9243
65.9121
65.9093
65.9208
65.9158
65.9266
65.9099
65.9576
65.9673
65.978
65.9609
65.947
66.0021
65.9781
65.9686
65.9864
66.0113
66.0488
66.0166
66.0387
65.9935
66.0158
65.8268
65.81
65.9175
65.8552
65.8835
65.88
65.9232
65.8384
65.8793
65.9804
65.9529
65.9712
65.992
65.9992
65.981
65.9918
66.0347
66.0525
65.7597
65.7877
65.7866
65.7333
65.7522
65.7484
65.9111
65.9966
66.0168
65.9291
66.0067
65.8078
65.8839
65.8036
65.7902
65.8779
66.0329
66.0226
65.9822
66.0407
66.0314
65.9063
65.9025
65.9081
65.9148
65.9121
65.9075
65.9127
65.9198
65.9196
65.9486
65.9084
65.9336
65.9425
65.9562
65.9073
65.9409
65.9925
65.9208
65.93
65.9316
65.9414
65.9286
65.9409
65.9463
65.9108
65.9389
65.9243
65.9057
65.9398
65.9035
65.9776
65.9889
66.0225
65.9955
65.9881
66.0386
66.0125
66.0049
66.0413
66.0602
66.093
66.0589
66.0741
66.0376
66.0573
65.7934
65.7882
65.9307
65.8203
65.8758
65.8767
65.9407
65.8081
65.8727
66.0211
66.01
66.0156
66.0318
66.041
66.0338
66.0447
66.0727
66.0977
65.714
65.7209
65.7107
65.7072
65.7034
65.6865
65.9535
66.0229
66.0649
65.9831
66.0428
65.7729
65.8665
65.8024
65.7667
65.861
66.0508
66.0427
66.0079
66.0623
66.0547
65.8952
65.8895
65.9127
65.9224
65.9239
65.8998
65.9099
65.9239
65.9273
65.9678
65.917
65.953
65.9782
65.9824
65.9404
65.9663
66.0173
65.9371
65.9418
65.9437
65.9401
65.9435
65.9459
65.9497
65.9244
65.9306
65.958
65.9481
65.9505
65.978
66.0012
66.0141
66.0498
66.0282
66.0184
66.0565
66.0415
66.028
66.0705
66.0828
66.1058
66.0774
66.0882
66.072
66.0837
65.7949
65.811
65.954
65.8099
65.8758
65.9134
65.9709
65.8259
65.8876
66.0594
66.0552
66.0725
66.0621
66.0749
66.0733
66.0883
66.1218
66.1395
65.7198
65.7028
65.6862
65.7497
65.726
65.7115
66.016
66.0672
66.1242
66.0448
66.0905
65.7824
65.8698
65.8525
65.814
65.8915
66.0751
66.0681
66.0378
66.0857
66.0804
65.8922
65.9049
65.9101
65.9279
65.9319
65.9123
65.9137
65.9366
65.9411
65.996
65.955
65.9761
65.9989
66.0091
65.9609
65.9841
66.041
65.9468
65.9541
65.9484
65.9542
65.9489
65.9522
65.9565
65.9509
65.9486
65.9443
65.9544
65.9513
65.9481
66.0273
66.0418
66.0598
66.0516
66.0336
66.0606
66.0594
66.0359
66.0792