/*--------------------------------*- C++ -*----------------------------------*\
| =========                 |                                                 |
| \\      /  F ield         | OpenFOAM: The Open Source CFD Toolbox           |
|  \\    /   O peration     | Version:  5.x                                   |
|   \\  /    A nd           | Web:      www.OpenFOAM.org                      |
|    \\/     M anipulation  |                                                 |
\*---------------------------------------------------------------------------*/
FoamFile
{
    version     2.0;
    format      ascii;
    class       surfaceScalarField;
    location    "3";
    object      phi;
}
// * * * * * * * * * * * * * * * * * * * * * * * * * * * * * * * * * * * * * //

dimensions      [0 3 -1 0 0 0 0];

internalField   nonuniform List<scalar> 
29271
(
-1.08878e-05
-3.3757e-06
6.88179e-06
7.46059e-06
-1.56243e-05
4.05851e-06
-1.64761e-07
1.18659e-05
-3.38745e-05
-7.57551e-06
-6.75687e-06
5.91803e-06
2.20811e-05
2.02077e-05
-4.43055e-05
-1.3421e-05
-7.30715e-06
7.41448e-06
2.5167e-05
3.24523e-05
-4.3686e-05
-9.78002e-06
4.5335e-06
1.60442e-05
3.97995e-05
-6.91118e-06
-3.65156e-05
-4.62639e-06
-6.59492e-06
1.67239e-05
8.46484e-06
2.25482e-05
-6.05882e-05
-3.37554e-05
-2.9266e-05
3.18906e-05
2.51336e-05
6.65853e-05
-6.29548e-05
-3.49036e-05
-2.88566e-05
2.22657e-05
3.78782e-05
6.65711e-05
-7.24399e-05
-2.88622e-05
-1.29615e-05
4.42898e-06
3.40546e-05
7.578e-05
-3.68447e-05
-2.57691e-06
2.29337e-06
4.38101e-05
-6.59055e-06
-6.77429e-06
-1.78761e-06
3.34643e-06
5.28409e-06
-4.99883e-05
-1.37868e-05
-1.019e-05
2.52441e-05
1.00399e-05
3.86811e-05
-5.80226e-05
-1.57553e-05
-3.05142e-05
2.07807e-05
1.87039e-05
6.48075e-05
-4.27312e-05
-2.01587e-05
-1.05797e-05
5.72883e-06
1.88241e-05
4.89167e-05
-5.9953e-05
-3.12311e-05
-2.68072e-06
-3.36918e-06
2.14455e-05
7.57885e-05
-5.39162e-05
-3.89303e-06
-2.71085e-07
5.05206e-07
6.17328e-05
-4.15773e-06
-3.83912e-05
-4.034e-06
8.28137e-06
6.43255e-06
3.39518e-05
-6.24055e-06
-6.27104e-05
-1.62476e-05
-2.40786e-05
1.66774e-05
1.46635e-05
7.16957e-05
-6.52878e-05
-2.88231e-05
-2.36313e-05
1.16389e-05
9.25296e-06
9.68504e-05
-8.5703e-05
-8.41553e-06
9.89102e-06
0.000107548
-2.25766e-05
-7.44148e-07
-1.19655e-05
4.03927e-07
5.51855e-06
6.29132e-06
-5.44646e-05
-1.51427e-06
5.20083e-06
6.07985e-05
-1.02746e-05
-4.72102e-05
-2.29023e-06
-3.80102e-06
5.10337e-06
5.15827e-05
-3.38469e-06
-1.82124e-05
2.89371e-06
6.59873e-08
1.52177e-05
-5.66917e-06
-1.4574e-06
3.64428e-06
3.62882e-06
-9.20976e-06
3.4521e-07
2.9377e-06
6.22468e-06
-2.0066e-06
-3.34106e-06
-1.74542e-05
4.60431e-06
4.35508e-06
1.38424e-05
-3.53151e-06
-3.17056e-05
-3.20377e-06
1.6978e-06
2.96154e-06
3.37815e-05
-4.43772e-05
-6.1727e-06
2.08148e-06
5.96748e-06
4.3986e-05
-1.48505e-06
-4.94418e-06
-3.18626e-06
-2.12214e-05
1.40988e-06
2.71881e-06
2.52231e-05
7.71416e-06
2.86095e-05
0.000210592
-6.63302e-05
-5.13251e-05
-4.7057e-05
-0.000102097
-3.01287e-06
-1.68705e-06
-9.4349e-07
1.71409e-05
-1.31603e-06
-1.33125e-06
3.71536e-06
7.328e-06
2.49634e-05
2.9137e-05
0.00021532
-5.35726e-05
-7.7335e-05
-0.000109587
-6.51558e-05
-6.03859e-07
-1.02665e-06
2.59322e-05
1.96425e-05
1.11393e-05
2.57468e-05
0.000194688
-2.80031e-06
-3.56656e-06
1.18221e-06
-2.08107e-06
6.4413e-06
7.23249e-06
3.76562e-06
-6.5415e-05
-4.25143e-05
-6.29043e-05
-4.59512e-05
-5.26299e-05
3.20707e-07
5.36187e-06
5.8095e-05
-4.45682e-06
-1.26707e-06
2.77011e-06
3.06953e-06
-1.8969e-07
-3.72789e-05
-2.4755e-06
-1.20471e-06
1.83982e-06
3.9309e-05
1.19409e-05
7.26583e-05
0.000211884
-6.33754e-05
-7.55247e-05
-6.93827e-05
-5.16574e-05
-5.79575e-06
-3.60553e-06
-1.02945e-06
2.49722e-06
3.87998e-05
7.19928e-05
9.1226e-05
-5.65788e-05
-3.87798e-05
-2.6524e-05
-3.90582e-05
6.37455e-07
1.45896e-05
0.000321816
-3.3319e-06
-6.23655e-06
-1.12573e-05
-7.64722e-06
9.95459e-06
-8.71989e-06
-7.34876e-05
-5.19336e-05
-7.19656e-05
-4.78716e-05
-7.39183e-05
-9.64011e-07
-3.00138e-06
5.21936e-06
7.33017e-05
-3.19605e-05
-1.37049e-06
2.88825e-06
2.49342e-06
3.15933e-05
-3.64397e-06
-4.05406e-06
8.37269e-06
0.000344585
-2.40092e-06
-6.40343e-06
-1.06086e-06
-6.1389e-06
5.711e-06
4.67495e-06
7.6169e-07
-6.92312e-05
-5.35696e-05
-9.5779e-05
-5.28095e-05
5.81247e-06
1.72752e-05
0.000356156
7.9724e-06
1.41012e-05
9.5715e-06
1.44269e-05
1.63999e-05
1.53791e-05
-9.03013e-05
-0.000115022
-7.22544e-05
-0.000111578
-0.000136067
3.60364e-06
1.34746e-05
0.000139391
-3.30487e-06
-6.73778e-07
1.03678e-07
3.9015e-06
-7.34635e-05
5.0632e-06
-2.37193e-08
7.6753e-05
-6.28557e-05
5.36161e-06
-5.97393e-06
3.59968e-06
7.71436e-05
-1.6076e-05
-3.73523e-06
-4.77416e-07
2.02718e-05
-3.12499e-07
3.3818e-08
1.09525e-06
-8.28484e-07
-2.73568e-06
4.9214e-07
3.142e-06
-6.758e-07
-3.44272e-06
-1.76035e-06
-9.83482e-06
-6.65295e-07
7.54618e-06
8.157e-06
-8.99989e-06
-5.09273e-05
-1.58633e-06
9.95385e-06
-5.95826e-06
5.75179e-05
-4.53767e-05
-5.5596e-06
3.99906e-06
6.67666e-06
5.01663e-05
-9.90572e-06
-8.38025e-06
-2.31066e-06
-3.07752e-05
6.15612e-07
6.85491e-06
3.39956e-05
2.71091e-06
1.91583e-05
0.000212883
-9.74319e-06
2.37027e-06
-1.37163e-05
-7.04916e-06
9.68464e-07
2.51722e-06
-4.96416e-07
9.89342e-07
-7.45028e-06
1.97502e-05
0.000193474
7.50345e-06
6.66425e-06
5.48405e-07
-2.45971e-06
-1.07032e-06
1.5452e-05
0.000240099
-9.48298e-06
-1.01313e-05
-1.05165e-05
-1.20226e-05
-6.06305e-06
-8.33689e-06
-1.06889e-05
-6.08366e-05
2.29126e-06
7.52996e-07
5.6736e-05
-8.09857e-07
-7.69301e-07
2.01505e-06
-4.36109e-07
-2.21143e-06
-4.44372e-05
-5.6748e-06
1.72108e-06
3.29879e-06
4.73036e-05
8.74244e-06
1.70178e-05
0.000213142
-2.72936e-06
-2.24039e-07
-4.18759e-06
-7.19232e-07
-4.76566e-07
2.422e-05
9.59752e-05
-1.1228e-05
4.71215e-06
0.000374697
-1.15954e-05
-7.63538e-06
-7.04558e-06
-7.3091e-06
7.64922e-06
-5.45256e-06
-6.23534e-05
-2.51788e-06
-3.40359e-06
1.0328e-05
4.67188e-05
-3.78722e-05
-1.67514e-06
-6.29539e-07
-5.98236e-06
4.2195e-05
3.96425e-06
-1.31714e-06
-1.11497e-05
0.000395955
-1.00651e-06
1.27183e-06
3.8921e-06
4.45685e-06
-8.96997e-06
-1.09051e-05
-1.06241e-05
3.94172e-06
4.77522e-06
0.00034862
4.67034e-06
5.68976e-06
3.41788e-06
4.44012e-06
2.15463e-06
1.34879e-06
-0.000148723
5.38811e-06
5.04206e-06
0.000146946
-7.02417e-06
-3.53022e-06
1.26504e-06
9.28034e-06
-7.39258e-05
5.78139e-06
-1.07701e-06
5.8069e-05
-8.98381e-05
2.36737e-06
-3.60423e-06
3.26806e-06
9.25822e-05
-2.41768e-05
-5.05803e-07
8.20882e-08
2.45758e-05
6.4005e-07
-1.31987e-07
-1.19859e-07
-4.04195e-07
2.32601e-06
-4.17176e-07
1.13747e-06
-3.04646e-06
-1.1094e-06
4.4576e-06
-1.47505e-05
-1.1661e-05
3.72336e-06
1.934e-05
2.61531e-06
-4.31867e-05
6.18858e-06
1.05764e-05
5.87201e-07
2.32192e-05
-5.40534e-05
1.98404e-06
8.94941e-06
3.22427e-06
5.95265e-05
-1.96309e-05
-5.52881e-06
1.62926e-06
-3.38304e-05
-1.88625e-06
6.63459e-06
3.29816e-05
-1.69306e-05
3.09778e-05
0.000223878
-1.18889e-05
-1.10041e-05
-7.04776e-06
-4.46841e-06
1.80309e-06
1.0918e-06
3.39083e-06
3.08141e-06
-1.4317e-05
6.23166e-05
0.000165222
-1.12659e-05
-1.32381e-05
-4.71951e-06
-7.45425e-06
-5.50459e-06
2.80497e-05
0.000249462
-1.06946e-05
-9.3045e-06
-5.96961e-06
-6.25721e-06
-7.76745e-06
-2.60535e-06
-3.62658e-06
-4.74912e-05
2.86153e-07
-1.41562e-06
4.31243e-05
5.55009e-08
-3.78703e-07
-5.81805e-08
3.84693e-07
-1.81983e-06
-4.93797e-05
-5.37511e-06
3.8024e-06
1.6175e-06
5.11548e-05
-1.75382e-06
-1.48818e-05
0.000277907
-7.32149e-06
-4.98064e-06
-4.57619e-06
-2.73076e-07
-2.50268e-05
2.52046e-05
0.00015636
-2.92992e-06
1.7999e-06
0.000381841
-3.02698e-06
2.0962e-07
2.09873e-06
-5.01846e-06
5.23679e-06
-2.49074e-06
-3.48137e-05
-3.01274e-06
-1.12239e-06
6.42531e-06
2.95936e-05
-4.61214e-05
-1.29914e-07
-1.192e-06
-2.99208e-06
4.84852e-05
1.95018e-06
-1.04309e-05
-7.242e-06
0.000397348
3.36401e-06
6.83633e-06
9.69896e-06
9.08519e-06
-1.29324e-05
-3.55508e-06
-1.10988e-05
-2.19007e-07
-4.27128e-06
0.000381374
-2.61393e-07
3.45776e-06
-4.60983e-07
-4.3242e-06
-6.36388e-06
-5.53717e-06
-0.000154054
2.5159e-06
2.49685e-07
0.00015287
-9.23619e-06
-8.81171e-07
1.67843e-06
8.44349e-06
-4.29612e-05
7.75608e-06
-1.48669e-06
2.94599e-05
-9.74304e-05
-2.9447e-06
2.06655e-06
-3.85445e-06
9.78917e-05
-2.39367e-05
-1.30789e-08
9.57474e-07
2.29713e-05
5.69397e-08
-1.01483e-06
6.3059e-07
3.01377e-07
3.2433e-06
-2.75781e-07
3.18965e-07
-3.34401e-06
8.12048e-07
5.51582e-07
-1.58834e-05
2.56376e-06
1.07852e-06
1.08775e-05
6.60974e-07
-1.86981e-05
-1.33138e-06
-1.80613e-06
-2.22884e-06
2.34035e-05
-5.6874e-05
8.45319e-06
4.00124e-06
-2.57629e-06
4.92617e-05
-2.26589e-06
-2.739e-06
1.04255e-06
-3.28869e-05
-2.4868e-06
4.28361e-06
3.27865e-05
-9.15979e-06
1.82419e-05
0.000184815
-1.90558e-06
3.06197e-07
2.84158e-06
5.91246e-06
4.71927e-06
3.82722e-06
6.82028e-06
7.45895e-06
1.05236e-07
1.67704e-05
0.000124111
2.619e-06
-2.85424e-07
6.39312e-06
6.34873e-06
-3.37635e-07
1.32326e-05
0.000229892
-2.21386e-06
-2.50491e-06
2.29634e-06
2.62988e-07
1.72269e-06
2.98991e-06
4.2268e-06
-4.09253e-05
-4.68611e-07
2.38987e-06
3.86586e-05
-6.32375e-07
-2.75526e-07
1.5461e-07
7.60302e-07
-1.17432e-06
-5.40353e-05
-4.19695e-06
2.27776e-06
6.47341e-07
5.64814e-05
5.83352e-06
-1.21976e-05
0.000309632
-5.85819e-06
-2.32155e-06
-8.03291e-07
1.86368e-06
-4.22812e-06
8.02483e-06
0.000175167
4.0011e-06
-1.1617e-06
0.000367428
5.04944e-06
7.66545e-06
9.6453e-06
-3.87989e-06
2.8307e-06
-7.33578e-07
-3.1873e-05
-8.14441e-06
-2.33968e-07
2.93048e-06
4.1322e-05
-5.13134e-05
1.88256e-06
-3.87642e-06
-1.79583e-06
5.23976e-05
2.70549e-06
-1.78966e-05
-2.34923e-06
0.000384383
7.68154e-06
8.08976e-06
1.11974e-05
8.50919e-06
-8.97079e-06
-7.55115e-08
-5.41832e-06
3.59981e-07
-4.81665e-06
0.000378421
-1.22909e-06
5.90324e-06
8.93186e-07
-3.92522e-06
-2.60529e-06
-1.49883e-06
-0.000157644
7.39223e-06
-2.2663e-06
0.000151716
-8.86708e-06
1.42535e-06
-4.81111e-06
1.22345e-05
-2.20959e-05
5.2265e-06
-4.12878e-06
1.86411e-05
-9.71734e-05
-1.05621e-06
2.62499e-06
-5.01397e-06
9.58019e-05
-2.18182e-05
2.84655e-07
4.44742e-07
2.10707e-05
-1.64084e-06
-1.02498e-07
-1.68652e-06
3.41826e-06
3.41727e-06
3.01934e-07
-3.45172e-07
-3.40266e-06
3.20557e-06
-5.62788e-07
-9.81302e-06
2.66421e-06
-3.94321e-06
8.44923e-06
2.79158e-06
-2.42805e-05
-5.1451e-06
5.54179e-06
-2.60845e-06
2.37006e-05
-5.017e-05
3.87156e-06
4.39365e-07
-1.832e-06
5.147e-05
-3.77889e-06
1.02063e-06
1.12941e-06
-3.40712e-05
-4.77732e-06
1.42932e-06
3.52691e-05
1.38467e-05
6.68728e-06
0.000127168
3.97423e-06
5.61667e-06
5.81744e-06
7.05582e-06
3.55861e-06
3.42276e-06
3.69867e-06
3.96858e-06
9.89195e-06
-3.00381e-07
0.00012141
1.79631e-06
2.17409e-06
1.40583e-06
1.57984e-06
2.92884e-06
4.84127e-06
0.000230322
-1.02988e-07
-7.68844e-08
-9.81801e-08
-2.57804e-06
4.14965e-06
-7.5159e-07
1.15021e-06
-3.62561e-05
-9.48731e-07
4.50386e-06
-2.45844e-06
3.80883e-05
-1.64908e-07
-2.02069e-08
4.21523e-08
1.38688e-07
-8.03185e-07
-7.95528e-07
3.68644e-07
1.22999e-06
5.97344e-07
-6.08567e-05
-2.96884e-06
-6.76898e-07
-4.86855e-07
6.43919e-05
1.46329e-05
-1.13113e-05
0.000318419
-3.70966e-06
-1.77905e-06
-1.08123e-06
1.14928e-06
2.16443e-06
-7.48315e-06
0.000194819
5.2694e-06
-3.47183e-06
0.000359802
7.3032e-06
4.60154e-06
5.77219e-06
-1.33416e-06
2.62413e-07
-3.77043e-06
-5.32352e-05
-4.51253e-06
5.37965e-06
8.42113e-06
4.92163e-05
-1.19941e-09
-1.66326e-07
-2.20329e-08
-1.61623e-08
1.93871e-07
-5.49932e-05
2.09215e-06
-5.80744e-06
-1.75512e-06
5.73906e-05
3.07295e-06
-2.08992e-05
-1.36956e-07
0.000362144
9.0863e-06
7.35837e-06
1.11064e-05
7.86303e-06
-3.66945e-06
8.57254e-07
-6.37869e-07
2.60849e-06
-2.20317e-06
0.000337589
1.81829e-06
6.66894e-06
3.35309e-06
-1.01172e-06
-1.32292e-07
1.34813e-06
-0.000149608
1.47247e-05
-1.2225e-06
0.000135243
-2.26761e-05
5.07912e-06
-1.50642e-05
3.26553e-05
-1.7366e-05
1.80778e-06
-2.02977e-06
1.74382e-05
-9.38892e-05
-4.7096e-07
1.81478e-06
-6.06478e-07
9.09487e-05
-2.0709e-05
-2.06534e-06
2.34523e-07
2.24656e-05
-5.14438e-06
6.1352e-07
-2.122e-06
6.65286e-06
2.99794e-06
3.37235e-07
-2.03543e-06
-1.34794e-06
4.43178e-06
-1.436e-07
-7.26148e-06
1.66723e-06
-4.93753e-06
6.2436e-06
2.90419e-06
-2.27582e-05
-3.8297e-06
4.12788e-06
-2.40247e-06
2.19583e-05
-5.19145e-05
2.39103e-06
3.51426e-08
-5.42353e-07
5.26007e-05
-2.57003e-06
3.39989e-06
2.69315e-06
-3.61027e-05
-3.83072e-06
-4.64157e-07
3.43045e-05
1.40363e-05
-5.53604e-06
0.000106915
2.73599e-06
3.51771e-06
1.66482e-06
3.3211e-06
6.65757e-07
2.40031e-07
-6.12554e-07
2.20368e-07
4.97786e-06
-6.87567e-06
0.000133707
9.88498e-07
1.05966e-07
1.57173e-06
9.71396e-07
-3.41111e-06
2.87645e-06
0.000245417
-1.65954e-06
-2.29064e-06
9.9781e-09
-1.67529e-06
-6.10442e-07
-3.52949e-06
1.73163e-07
-3.97142e-05
5.67833e-06
-5.47184e-06
5.39221e-06
3.07044e-05
4.91189e-06
-1.07334e-05
1.45644e-05
-1.55511e-05
1.00918e-05
-3.2836e-06
-2.1009e-06
-9.28354e-07
1.89666e-07
2.84325e-06
1.6111e-06
-6.77096e-05
-2.1251e-06
-2.10714e-07
-5.53658e-07
6.8988e-05
2.15931e-05
-1.80741e-05
0.000317783
-3.75261e-06
-2.52126e-06
-1.97198e-06
-1.73877e-07
6.92881e-06
-1.37844e-05
0.000216392
3.19076e-06
-4.08931e-06
0.000361799
5.25191e-06
3.22886e-06
5.38078e-06
-2.78287e-06
3.36812e-07
-2.70908e-06
-5.46818e-05
-5.78956e-06
4.45072e-06
9.26551e-07
5.82849e-05
-3.22422e-06
-6.17086e-06
4.27708e-08
-7.6725e-06
3.51228e-06
1.35125e-05
-6.0202e-05
3.02307e-06
-6.56071e-06
-2.20092e-06
6.25212e-05
3.41937e-06
-8.66176e-06
6.11274e-07
0.000317729
8.68747e-06
6.41754e-06
1.10255e-05
6.08367e-06
-7.08974e-07
1.6337e-06
1.25187e-06
4.89188e-06
-1.09385e-06
0.000292712
4.73282e-06
7.70827e-06
4.86073e-06
2.82561e-07
-1.81251e-07
1.22969e-06
-0.000127673
1.39329e-05
-1.40239e-07
0.000114683
-3.48067e-05
-6.00597e-06
-1.64366e-05
1.14514e-05
4.57958e-05
-4.66793e-06
-2.07082e-06
-6.71531e-07
7.41028e-06
-1.83395e-05
2.73272e-07
-2.2177e-07
1.88833e-05
-9.00192e-05
-1.81005e-06
3.4062e-06
-3.44108e-07
8.76733e-05
-2.63584e-05
-1.63808e-06
-9.52285e-07
2.89357e-05
-7.47094e-06
1.16825e-06
-1.66808e-06
7.97077e-06
-9.32484e-07
-3.40293e-08
-8.1789e-07
1.78435e-06
6.23502e-07
-6.95559e-07
-5.99743e-06
8.47848e-07
-5.23791e-07
5.74543e-06
1.65409e-06
-2.20598e-05
-2.0858e-06
2.48611e-06
-2.0639e-06
2.20693e-05
-5.44254e-05
2.48226e-06
-2.52952e-06
-1.00938e-06
5.61787e-05
-6.96634e-07
2.98646e-06
1.24537e-06
-3.11604e-05
-8.62085e-07
-1.16676e-06
2.89574e-05
7.76704e-06
-1.69515e-05
0.000114896
1.51317e-06
2.76195e-06
6.85043e-07
1.99406e-06
-1.24788e-06
-9.28726e-07
-2.06378e-06
-1.51049e-06
-1.1806e-06
-7.71583e-06
0.000147618
7.07024e-07
-2.64435e-07
1.62695e-06
6.82453e-07
-3.83206e-06
1.20276e-06
0.000253147
-1.26381e-06
-1.98241e-06
8.66072e-07
-1.19141e-06
3.72139e-07
-4.7672e-06
1.68479e-06
-2.93317e-05
-3.71409e-06
-7.37073e-06
7.61482e-06
2.89697e-05
6.53399e-06
6.41281e-06
1.09156e-05
-6.243e-06
-4.36919e-06
-1.32502e-05
-3.48916e-06
4.74683e-07
-1.34865e-06
4.35056e-06
9.01891e-07
-7.04105e-05
4.20674e-07
7.82054e-07
-2.60895e-06
7.09149e-05
2.38922e-05
-1.4259e-05
0.000299456
-4.06171e-06
-2.93703e-06
-1.25926e-06
6.36673e-10
7.58165e-06
-8.68427e-06
0.000233671
3.43429e-06
-3.7387e-06
0.000360197
5.52554e-06
4.44201e-06
6.63222e-06
-3.42745e-06
2.23185e-07
-2.70484e-06
-6.14905e-05
-5.2132e-06
6.05279e-06
-9.64612e-07
6.50498e-05
-1.72143e-05
2.15974e-06
-2.72409e-06
2.09552e-06
-3.05609e-06
1.87392e-05
-6.47772e-05
4.41826e-06
-7.36284e-06
-2.99357e-06
6.67744e-05
3.94092e-06
-1.07022e-06
2.17083e-06
0.000270288
7.65698e-06
3.81386e-06
8.93687e-06
3.74055e-06
1.89867e-06
3.22632e-06
2.80876e-06
4.05709e-06
-1.38644e-06
0.000269145
3.45475e-06
5.13376e-06
2.66709e-06
4.70407e-07
-9.30371e-07
3.45445e-07
-0.000108371
1.14385e-05
7.24137e-07
9.65272e-05
-5.06693e-05
5.01505e-06
-1.45821e-05
1.07331e-05
4.9501e-05
-1.21924e-05
2.79578e-06
-1.20073e-05
7.16228e-06
1.42417e-05
-1.99105e-05
-1.46264e-06
1.96892e-06
2.15388e-05
-8.60116e-05
-2.32537e-06
4.06991e-06
-7.82768e-07
8.36634e-05
-3.18354e-05
4.50124e-08
-2.66712e-06
3.44578e-05
-8.18981e-06
1.66207e-06
-1.77921e-06
8.30695e-06
-2.08573e-06
-2.59417e-07
-2.30417e-07
2.57485e-06
-1.03757e-06
-4.43847e-07
-5.85559e-06
1.5608e-07
3.71467e-07
6.80946e-06
1.42929e-06
-2.24209e-05
-9.8663e-07
1.02137e-06
-1.5673e-06
2.25242e-05
-5.87058e-05
3.05123e-06
-4.45339e-06
-1.75907e-06
6.04054e-05
1.46168e-06
2.89037e-06
8.95764e-07
-2.71058e-05
-4.85467e-08
-2.79036e-06
2.61586e-05
3.71031e-06
-1.13393e-05
0.000120409
1.01636e-06
1.92316e-06
9.17456e-07
2.55773e-06
-1.3096e-06
-1.43766e-06
-1.09999e-06
-4.51739e-07
-4.93162e-06
-4.03529e-06
0.000158932
6.01004e-07
-8.16892e-07
1.47581e-06
1.03533e-07
-3.58855e-06
-1.17479e-06
0.000259086
-2.82515e-07
-2.58414e-07
1.4471e-06
-1.26814e-06
2.20162e-06
-7.91117e-06
-3.58191e-08
-3.59521e-05
6.94517e-06
-8.73059e-06
2.64826e-06
3.15007e-05
2.28151e-05
8.79838e-06
-1.33326e-06
-1.69552e-05
-1.3325e-05
-5.66589e-06
1.27114e-06
-3.03432e-06
7.41929e-06
2.85104e-06
-7.15288e-05
3.62329e-06
-6.53788e-08
-4.34574e-06
6.94656e-05
1.83877e-05
-3.42773e-06
0.000281674
-3.74147e-06
-2.78304e-06
-1.53605e-06
-4.56919e-07
6.37213e-06
-4.97474e-06
0.000246626
4.0962e-06
-2.70462e-06
0.000364661
4.84101e-06
1.16138e-06
-2.50555e-06
-1.14492e-06
-2.78591e-08
-2.98261e-06
-6.80547e-05
-2.30191e-06
6.9577e-06
-2.44505e-06
6.99402e-05
-2.1224e-05
1.90258e-05
-1.06861e-05
1.28415e-05
-1.55602e-05
1.56031e-05
-6.79065e-05
5.07832e-06
-7.94427e-06
-5.4587e-07
6.79457e-05
3.37261e-06
4.09842e-06
3.00808e-06
0.000239526
4.36361e-06
1.60815e-06
4.3379e-06
1.66144e-06
2.73488e-06
3.0866e-06
2.43537e-06
1.79354e-06
-1.35977e-06
0.000263881
1.43298e-06
2.70716e-06
9.63028e-07
3.51299e-08
-9.0925e-07
-2.7491e-07
-9.13248e-05
6.02367e-06
6.55871e-07
8.37342e-05
-3.81394e-05
1.20569e-06
-8.66811e-06
4.55931e-05
-2.40087e-05
-2.08733e-06
2.7801e-06
2.63122e-05
-8.28818e-05
-2.05764e-06
2.53163e-06
-1.5542e-06
8.26022e-05
-3.64081e-05
1.2412e-07
-1.52206e-06
3.78063e-05
-8.42654e-06
2.00603e-06
-2.25943e-06
8.67995e-06
-3.03063e-06
-8.8497e-07
6.88021e-07
3.22765e-06
-1.29808e-06
2.88525e-08
-7.7145e-06
1.24421e-07
6.18693e-07
8.24061e-06
1.83596e-06
-2.29099e-05
-6.35219e-07
4.10495e-07
-1.82174e-06
2.31204e-05
-6.19746e-05
3.4556e-06
-4.16642e-06
-2.27349e-06
6.2839e-05
2.11991e-06
7.42176e-07
3.3824e-07
-2.5713e-05
1.04074e-07
-1.95496e-06
2.64835e-05
8.5021e-07
-4.12349e-06
0.000120371
3.42223e-07
1.51321e-06
5.83125e-07
1.85834e-06
-6.5531e-07
-6.82675e-07
-4.20713e-07
7.73508e-07
-4.89138e-06
-1.33085e-06
0.000166007
5.50673e-07
-1.63009e-06
1.43868e-06
-3.61631e-07
-8.2948e-06
-5.17216e-06
0.000276113
4.78919e-07
-5.62574e-07
2.51516e-06
7.22815e-07
-3.53271e-06
-5.12637e-06
-2.94684e-06
-3.10788e-05
2.92019e-06
-9.27042e-06
2.91343e-05
-8.74849e-06
1.45248e-06
-2.46119e-06
9.7566e-06
2.75192e-06
-6.73197e-05
2.96815e-06
-8.64455e-07
-3.69277e-06
6.61569e-05
1.27932e-05
-2.61769e-06
0.000274533
-3.08272e-06
-2.20761e-06
-1.24729e-06
-6.19739e-07
2.86613e-06
-4.98472e-06
0.000260207
-3.00827e-06
-2.76554e-06
0.000381174
-4.6923e-06
-1.83054e-06
-1.11908e-06
-3.27635e-06
-1.15782e-07
-2.01099e-06
-9.51854e-05
3.53719e-06
-1.43715e-07
-6.94003e-06
9.57237e-05
-6.62205e-05
3.13793e-06
-3.94758e-06
2.101e-06
6.36653e-05
1.26392e-06
-1.06263e-06
2.02276e-06
0.000226186
2.7407e-06
1.0992e-06
2.99883e-06
5.72968e-07
1.27521e-06
7.76404e-07
2.98542e-07
-3.66647e-08
-1.00837e-06
0.000257857
3.84026e-08
2.40645e-06
1.44924e-07
-5.27445e-07
-5.35824e-07
-5.04458e-07
-8.19783e-05
2.42122e-06
8.47208e-08
7.66701e-05
-4.39436e-05
1.24364e-05
-4.73623e-06
3.62435e-05
-2.84235e-05
-1.48495e-06
2.37767e-06
2.95528e-05
-8.30444e-05
-1.11819e-06
1.07748e-06
-1.10441e-06
8.31812e-05
-3.89773e-05
1.90656e-07
-7.56897e-07
3.95487e-05
-9.01861e-06
2.22237e-06
-2.61963e-06
9.41586e-06
-3.31584e-06
-9.66232e-07
8.64208e-07
3.41786e-06
-1.30811e-06
2.8211e-07
-8.68496e-06
-9.21192e-08
7.17833e-07
9.08524e-06
1.70975e-06
-2.33796e-05
-5.0371e-07
2.44938e-07
-1.59349e-06
2.35221e-05
-6.36074e-05
3.41048e-06
-3.70853e-06
-2.37777e-06
6.40135e-05
2.2698e-06
-9.86426e-08
3.1962e-07
-2.73489e-05
2.78406e-07
-6.94559e-07
2.7544e-05
1.12188e-06
4.7359e-06
0.000113803
-3.33604e-07
1.64755e-08
-8.29635e-08
7.33604e-07
-4.72676e-07
9.12287e-08
-3.9198e-07
1.14963e-06
4.91766e-07
7.1621e-07
0.000165997
4.075e-07
-1.66883e-06
1.30276e-06
-1.17504e-07
-3.30413e-06
-6.17109e-06
0.000278173
1.2389e-06
1.21592e-06
2.94958e-06
1.54919e-06
5.82657e-07
-1.84113e-06
2.21242e-06
-2.95028e-05
4.01562e-06
-8.85548e-06
3.10385e-05
-1.04424e-05
9.27121e-07
-1.44048e-06
1.09596e-05
1.17878e-06
-6.54685e-05
9.50448e-07
5.67677e-08
-1.86287e-06
6.51453e-05
8.59222e-06
2.20208e-07
0.000276001
-2.61202e-06
-1.80142e-06
-1.1215e-06
-9.4802e-09
4.77767e-06
-4.8488e-06
0.000269586
2.11092e-06
-2.58675e-06
0.000376743
1.4571e-06
3.84522e-06
2.54347e-06
-2.1174e-06
-2.67572e-07
-1.94751e-06
-9.4468e-05
4.37471e-06
8.07179e-06
-8.77128e-06
9.29037e-05
-6.09791e-05
2.01797e-06
-2.29504e-06
8.26006e-07
5.90815e-05
1.34869e-06
-2.01797e-06
5.49441e-07
0.000221848
1.64792e-06
6.47897e-07
2.68689e-06
4.09452e-07
8.1357e-08
3.52855e-07
2.00088e-07
4.82929e-09
-6.83564e-07
0.000249812
-2.19923e-07
2.82909e-06
1.05622e-07
-4.42216e-07
-1.75769e-07
-2.40425e-07
-7.59506e-05
2.81381e-06
-9.60324e-07
7.15152e-05
-3.50137e-05
6.77411e-06
-5.91357e-06
3.41533e-05
-3.00056e-05
-1.46078e-06
1.88024e-06
3.01345e-05
-8.36926e-05
-4.56602e-07
3.82551e-07
-8.68272e-07
8.39514e-05
-3.98085e-05
5.48315e-07
-3.10006e-07
3.95692e-05
-9.71163e-06
2.35499e-06
-2.60837e-06
9.96501e-06
-3.5321e-06
-8.84791e-07
7.75662e-07
3.64123e-06
-1.411e-06
3.78094e-07
-9.62907e-06
-1.92211e-07
7.77322e-07
1.00769e-05
1.63978e-06
-2.39641e-05
-3.32907e-07
-3.58939e-07
-1.39251e-06
2.44086e-05
-6.43887e-05
3.27444e-06
-3.76539e-06
-2.43424e-06
6.43531e-05
2.9608e-06
1.04583e-07
2.90863e-07
-2.73235e-05
5.86096e-07
-8.39125e-08
2.64259e-05
3.69433e-06
9.41397e-06
0.000103315
-6.42771e-07
-3.23067e-07
-5.84821e-07
2.65221e-07
-7.8287e-07
-3.2521e-07
-6.4245e-07
4.15761e-07
4.00978e-06
2.56705e-06
0.000163159
7.5554e-08
-1.37166e-06
1.13159e-06
1.19633e-07
-1.54532e-06
-6.02837e-06
0.000278753
1.50604e-06
1.71997e-06
3.1165e-06
1.91527e-06
1.852e-06
-1.13873e-06
2.03214e-06
-3.34633e-05
4.06256e-06
-8.29524e-06
3.61506e-05
-1.17646e-05
4.31754e-07
-1.18231e-06
1.25157e-05
9.27015e-07
-6.55703e-05
-2.84321e-07
2.14802e-07
-1.25465e-06
6.59675e-05
8.95367e-06
3.65683e-06
0.000278145
-2.85682e-06
-1.8169e-06
-9.02558e-07
2.35508e-07
8.64077e-06
-3.98927e-06
0.000276455
3.63083e-06
-2.83295e-06
0.000372612
2.70299e-06
3.89672e-06
2.81215e-06
-2.0914e-06
9.95062e-09
-1.38446e-06
-9.36002e-05
4.73122e-06
7.04142e-06
-8.63843e-06
9.40968e-05
-5.72055e-05
1.05757e-06
-1.56465e-06
8.66744e-07
5.60752e-05
7.70658e-07
7.84764e-07
6.39136e-07
0.000218007
1.17186e-06
3.03704e-07
2.53138e-06
4.44886e-07
2.53068e-07
7.99916e-07
5.69674e-07
7.52387e-07
-5.00953e-07
0.000241021
9.09529e-07
3.29779e-06
1.70084e-06
-2.56958e-07
-1.89692e-07
-1.25576e-07
-7.16938e-05
3.46537e-06
-1.35812e-06
6.7506e-05
-3.35539e-05
5.71791e-06
-5.4159e-06
3.32523e-05
-3.00879e-05
-9.02619e-07
1.31137e-06
3.03182e-05
-8.42093e-05
-4.2376e-07
8.08625e-07
-3.25029e-07
8.36485e-05
-3.87017e-05
1.4093e-06
-5.05702e-07
3.77961e-05
-1.01371e-05
2.25891e-06
-2.38566e-06
1.02638e-05
-3.75399e-06
-1.22829e-06
1.16753e-06
3.81475e-06
-1.73686e-06
6.55314e-07
-1.05558e-05
-5.14436e-07
1.43217e-06
1.07196e-05
1.47624e-06
-2.51883e-05
1.02789e-07
-8.95863e-07
-1.41769e-06
2.59228e-05
-6.44318e-05
3.09114e-06
-3.78232e-06
-2.38564e-06
6.4401e-05
3.10754e-06
-1.73915e-07
4.82662e-07
-2.55189e-05
6.93485e-07
5.80114e-07
2.39365e-05
8.29489e-06
1.00131e-05
9.16482e-05
-1.19394e-06
-3.42331e-07
-1.31814e-06
1.86279e-08
-1.35717e-06
-1.1069e-06
-1.10369e-06
-2.37426e-07
6.7673e-06
3.48308e-06
0.000160215
2.20131e-07
-1.04107e-06
1.29315e-06
5.16225e-07
-1.00946e-06
-4.65917e-06
0.000279322
1.53277e-06
2.01183e-06
3.11076e-06
2.26491e-06
1.6817e-06
-7.10335e-07
1.97494e-06
-3.88633e-05
4.55147e-06
-8.14101e-06
4.14434e-05
-1.28934e-05
2.16378e-07
-5.51665e-07
1.32287e-05
1.10942e-06
-6.60356e-05
-1.07067e-06
2.01844e-07
-3.7313e-07
6.61682e-05
8.83936e-06
6.98125e-06
0.000276044
-2.4921e-06
-1.30798e-06
-5.56426e-07
6.50007e-07
1.04792e-05
-2.41849e-06
0.000280717
3.22541e-06
-2.07285e-06
0.000369837
2.79256e-06
3.40623e-06
2.83523e-06
-1.28571e-06
5.93997e-07
-9.00348e-07
-9.49014e-05
4.84417e-06
5.98496e-06
-7.60695e-06
9.49046e-05
-5.58554e-05
2.88879e-07
-1.36592e-06
8.34266e-07
5.58659e-05
2.32295e-07
2.57698e-06
1.01648e-06
0.000215082
1.1125e-06
1.35351e-07
2.36931e-06
3.77396e-07
5.46235e-07
9.86669e-07
7.8469e-07
1.09118e-06
-4.22811e-07
0.000234116
1.59376e-06
3.26957e-06
1.78915e-06
-1.65888e-07
-7.27007e-08
-1.95819e-08
-6.79298e-05
3.00502e-06
-6.80652e-07
6.46238e-05
-3.31605e-05
4.74468e-06
-4.60773e-06
3.30236e-05
-3.07279e-05
-5.38803e-07
9.60908e-07
3.13223e-05
-8.32556e-05
-5.61798e-07
1.44254e-06
-4.63525e-07
8.24156e-05
-3.77071e-05
1.1571e-06
-1.6094e-06
3.81597e-05
-1.0272e-05
2.03973e-06
-1.97498e-06
1.02073e-05
-3.80937e-06
-1.78919e-06
1.82751e-06
3.77104e-06
-1.92413e-06
1.09923e-06
-1.08345e-05
-1.14251e-06
2.1551e-06
1.06468e-05
9.3104e-07
-2.6858e-05
8.11761e-07
-1.64973e-06
-1.03147e-06
2.77964e-05
-6.45442e-05
3.00241e-06
-3.89164e-06
-2.35013e-06
6.43447e-05
3.43886e-06
-8.09031e-07
1.02656e-06
-2.24019e-05
-1.54005e-07
1.25254e-06
2.10859e-05
9.7396e-06
9.31178e-06
8.04683e-05
-1.83135e-06
-6.34156e-07
-1.79016e-06
-3.10983e-07
-1.14315e-06
-1.29621e-06
-4.22857e-07
-4.42686e-07
7.51846e-06
3.32875e-06
0.000157136
2.94734e-07
-5.79833e-07
1.18898e-06
1.06774e-06
-6.21559e-07
-4.20711e-06
0.000278741
1.56577e-06
2.36496e-06
3.22688e-06
2.62467e-06
1.62897e-06
-3.81948e-07
1.89902e-06
-4.40301e-05
5.03599e-06
-8.12175e-06
4.64943e-05
-1.3568e-05
2.14363e-07
-3.93134e-07
1.37474e-05
1.44696e-06
-6.64134e-05
-1.85675e-06
-1.24116e-07
5.87036e-07
6.63603e-05
7.54782e-06
9.7046e-06
0.000270394
-2.04396e-06
-1.01977e-06
-2.24599e-07
9.97784e-07
1.11694e-05
-1.08928e-06
0.000281514
2.947e-06
-1.54383e-06
0.000367001
2.78929e-06
3.25819e-06
2.85242e-06
-9.4725e-07
1.03668e-06
-5.93336e-07
-9.52228e-05
4.76288e-06
5.1617e-06
-6.92523e-06
9.51704e-05
-5.669e-05
-3.49638e-07
-1.22575e-06
7.55608e-07
5.78804e-05
-3.70601e-07
3.13872e-06
1.23404e-06
0.000213896
8.41506e-07
1.52473e-07
1.98375e-06
2.9455e-07
9.45925e-07
1.16756e-06
1.13245e-06
8.14591e-07
-2.56137e-07
0.000229487
1.35458e-06
2.86414e-06
1.60788e-06
1.96185e-09
2.13242e-07
7.88977e-08
-6.58632e-05
2.37872e-06
-7.52975e-07
6.35082e-05
-3.30638e-05
4.07234e-06
-4.10451e-06
3.30953e-05
-3.18316e-05
-5.9297e-07
1.12728e-06
3.25313e-05
-8.20236e-05
-9.17558e-07
1.3934e-06
-4.16986e-07
8.17086e-05
-3.87086e-05
1.16396e-06
-1.54404e-06
3.90886e-05
-1.00178e-05
2.01981e-06
-1.76081e-06
9.7588e-06
-3.74935e-06
-2.09182e-06
2.10555e-06
3.73563e-06
-2.04885e-06
1.56859e-06
-1.05196e-05
-1.852e-06
2.48011e-06
1.03717e-05
5.77372e-07
-2.89205e-05
1.73714e-06
-2.84888e-06
-6.9802e-07
3.01529e-05
-6.41253e-05
3.23902e-06
-4.13148e-06
-2.50463e-06
6.34871e-05
4.03528e-06
-1.03794e-06
1.32715e-06
-2.03244e-05
-1.19434e-06
1.49781e-06
1.97317e-05
7.01481e-06
9.68793e-06
7.02344e-05
-2.31204e-06
-1.08375e-06
-2.35572e-06
-7.70735e-07
2.45023e-07
-7.57688e-07
5.83571e-07
-1.75035e-08
7.15805e-06
3.32722e-06
0.000151202
1.72668e-07
-7.93663e-08
1.00964e-06
1.361e-06
-4.10997e-07
-4.23459e-06
0.000276957
1.75589e-06
2.71469e-06
3.3456e-06
2.94202e-06
1.39187e-06
-2.25099e-07
1.66262e-06
-4.89402e-05
5.40889e-06
-8.05817e-06
5.11785e-05
-1.40102e-05
2.56205e-07
-6.84008e-07
1.4438e-05
1.80928e-06
-6.62092e-05
-2.26049e-06
-4.19931e-07
1.3635e-06
6.57169e-05
7.14466e-06
1.20381e-05
0.000261724
-1.75391e-06
-6.73279e-07
2.28692e-07
1.37308e-06
1.19897e-05
-5.737e-07
0.000280569
2.80185e-06
-1.24048e-06
0.000363917
2.85008e-06
3.18716e-06
2.94856e-06
-7.07676e-07
1.29731e-06
-2.97841e-07
-9.55485e-05
4.7086e-06
4.48245e-06
-6.3252e-06
9.54845e-05
-5.93812e-05
-5.76013e-07
-9.49344e-07
1.0481e-06
6.08673e-05
-1.00879e-06
3.83492e-06
1.39412e-06
0.000214455
4.45942e-07
1.35861e-07
1.6818e-06
2.15357e-07
1.06844e-06
1.3996e-06
1.30319e-06
5.10837e-07
-9.7887e-08
0.000226861
1.3374e-06
2.59154e-06
1.62047e-06
-9.40231e-08
1.45547e-07
-1.26832e-07
-6.53713e-05
1.94601e-06
-6.49343e-07
6.33449e-05
-3.32388e-05
3.58077e-06
-3.61021e-06
3.32683e-05
-3.32264e-05
-5.49086e-07
1.07322e-06
3.40962e-05
-8.16174e-05
-9.24673e-07
1.38301e-06
9.80433e-08
8.09632e-05
-3.95374e-05
1.21787e-06
-1.61849e-06
3.99381e-05
-9.4919e-06
2.37712e-06
-2.2253e-06
9.34008e-06
-3.70792e-06
-2.08014e-06
2.07717e-06
3.71089e-06
-2.11722e-06
1.88324e-06
-1.04119e-05
-2.52553e-06
2.60877e-06
1.05626e-05
8.39049e-07
-3.14691e-05
2.8879e-06
-4.17655e-06
-7.13265e-07
3.2632e-05
-6.26991e-05
3.51183e-06
-4.34499e-06
-2.63326e-06
6.14324e-05
4.73318e-06
-1.36561e-06
1.31431e-06
-1.94935e-05
-1.67496e-06
1.69335e-06
1.95264e-05
2.7562e-06
1.02952e-05
6.29634e-05
-2.94105e-06
-1.71237e-06
-2.99522e-06
-1.46175e-06
1.10634e-06
1.89601e-07
1.0605e-06
9.73593e-07
6.42575e-06
2.57922e-06
0.000142637
6.89683e-08
6.14029e-08
9.12386e-07
1.2735e-06
-3.00541e-07
-4.35665e-06
0.000274936
1.82409e-06
2.82365e-06
3.24743e-06
2.88796e-06
1.12908e-06
-1.95879e-07
1.38751e-06
-5.34252e-05
5.66451e-06
-7.94156e-06
5.54017e-05
-1.48821e-05
3.52763e-07
-6.70205e-07
1.51995e-05
2.03839e-06
-6.53246e-05
-2.19929e-06
-8.78061e-07
1.55761e-06
6.48059e-05
6.59208e-06
1.25267e-05
0.000251322
-1.07781e-06
-1.52853e-07
8.13752e-07
1.99597e-06
1.25917e-05
-3.53503e-07
0.000277503
2.75823e-06
-1.04843e-06
0.0003603
2.92219e-06
3.1596e-06
3.0243e-06
-4.04013e-07
1.46979e-06
-3.02072e-08
-9.58056e-05
4.6083e-06
4.10312e-06
-5.83747e-06
9.56899e-05
-6.24227e-05
-7.30442e-07
-7.85459e-07
1.34211e-06
6.38802e-05
-1.2838e-06
4.30154e-06
1.54217e-06
0.000215148
1.8794e-07
-4.86308e-08
1.62122e-06
1.54484e-08
1.20499e-06
1.5752e-06
1.43371e-06
2.21277e-07
-2.64303e-07
0.000226323
1.28017e-06
2.28819e-06
1.43939e-06
-2.36815e-07
-2.48554e-08
-2.17555e-07