/*--------------------------------*- C++ -*----------------------------------*\
| =========                 |                                                 |
| \\      /  F ield         | OpenFOAM: The Open Source CFD Toolbox           |
|  \\    /   O peration     | Version:  5.x                                   |
|   \\  /    A nd           | Web:      www.OpenFOAM.org                      |
|    \\/     M anipulation  |                                                 |
\*---------------------------------------------------------------------------*/
FoamFile
{
    version     2.0;
    format      ascii;
    class       volVectorField;
    location    "3";
    object      U;
}
// * * * * * * * * * * * * * * * * * * * * * * * * * * * * * * * * * * * * * //

dimensions      [0 1 -1 0 0 0 0];

internalField   nonuniform List<vector> 
10571
(
(0.763645 0.352898 2.09954)
(0.146773 -0.105566 1.72868)
(0.406327 0.796102 1.56285)
(0.79361 1.07163 2.44047)
(0.582694 0.714739 2.34142)
(0.743241 0.497852 1.68929)
(2.49655 2.28742 4.21396)
(2.04635 2.96901 4.85179)
(0.992916 2.18547 5.25319)
(0.249301 0.227368 1.47278)
(0.268819 0.409402 1.39955)
(1.23043 0.986194 2.71183)
(2.04207 1.17557 4.09345)
(0.863572 1.544 2.73034)
(0.108104 2.02142 3.81914)
(0.332169 0.260912 1.55114)
(0.502424 0.614676 1.94737)
(1.58695 1.68053 3.24127)
(2.06911 2.36224 4.6005)
(-0.287577 1.79342 3.17362)
(-0.364766 0.025771 1.039)
(0.195908 0.606046 2.07302)
(-0.183538 0.760948 2.85207)
(0.0850895 -0.219277 1.93529)
(0.408097 0.248574 1.11393)
(-0.00931513 0.262637 1.03631)
(0.589898 0.408851 1.17335)
(0.367854 0.276379 1.64948)
(0.245697 0.711718 2.77098)
(0.321367 0.542286 1.24182)
(0.171151 0.368453 1.81847)
(0.346416 0.301243 2.3555)
(0.597924 0.311246 2.92023)
(0.781632 0.197814 4.14056)
(0.194205 0.385673 0.942749)
(-0.268725 0.305783 1.96678)
(0.362974 0.982185 2.92741)
(0.398917 0.881183 2.11702)
(0.900704 0.427354 5.01102)
(-0.0605416 0.224432 4.02029)
(0.0625434 0.402379 1.95063)
(-0.286104 1.55287 5.06543)
(0.308751 2.17918 4.12882)
(0.959938 1.88424 6.83655)
(-0.0206737 0.0148197 0.611185)
(-0.208136 0.65645 4.40309)
(-0.476018 0.595544 3.37975)
(0.107565 0.0881656 2.12764)
(-0.00842522 -0.0341008 -0.219514)
(0.0213212 0.167269 0.167804)
(0.173229 0.48541 0.74027)
(0.526003 0.593693 2.38285)
(0.47408 0.875611 1.81951)
(0.315651 0.992176 2.24606)
(0.0957525 0.592855 3.60082)
(0.0601976 0.64687 3.19907)
(-0.444751 0.67397 3.16547)
(0.185555 -0.032395 3.16205)
(0.01725 0.150057 -0.0862707)
(-0.0513175 0.480611 2.4425)
(0.252223 0.252672 2.99782)
(0.138517 0.381341 0.977146)
(-0.0862435 0.0516826 3.95655)
(-0.879861 0.428679 2.31382)
(-0.047586 -0.52135 1.61463)
(-0.0615273 0.36365 4.3266)
(-0.040535 0.630099 4.03232)
(0.847458 0.774043 6.52658)
(-0.140967 0.273119 0.98187)
(0.0243773 -0.97801 3.78328)
(-0.286475 0.354886 3.54543)
(0.0267674 -0.0104391 2.40507)
(0.0287177 -0.00444461 -0.259716)
(-0.0436855 0.0468535 -0.410394)
(-0.863317 0.089272 0.948604)
(0.0126186 -0.199715 2.12344)
(1.21449 -0.0274379 2.27394)
(-0.149748 0.696971 1.42975)
(-0.297776 0.99613 2.45333)
(-0.239033 1.27122 2.45822)
(-0.360379 0.749794 3.01502)
(-0.530173 -0.0783714 2.43262)
(-0.039319 0.0511782 0.0711444)
(0.145563 0.347303 2.20821)
(0.363148 0.0212247 2.84109)
(-0.462992 0.787884 2.10159)
(-0.238047 0.200694 4.18096)
(-0.262394 0.368397 1.29844)
(0.0050877 -0.195582 1.90693)
(-0.262337 -0.405828 4.13429)
(-0.295409 0.154478 4.38454)
(0.395431 0.325312 6.83121)
(-0.143338 -0.0147111 0.969646)
(-0.346276 -0.515316 1.74679)
(0.0873431 -0.391433 3.97655)
(-0.0777398 0.0972731 2.32378)
(0.255397 -0.00638587 0.111056)
(-0.0231149 0.0106434 -0.467069)
(-0.0142707 -0.0324712 0.382405)
(-0.197161 -0.08653 1.6314)
(0.40583 -0.498126 1.69795)
(-0.128455 0.396121 1.44566)
(-0.397758 0.450274 2.34438)
(-0.0114678 0.219573 1.08454)
(-0.049398 0.327137 2.13577)
(-0.213285 -0.0583194 2.29068)
(-0.0137084 0.0454824 0.114495)
(0.0605178 0.278036 2.44968)
(0.318481 0.0341672 3.02986)
(-0.168358 0.274469 1.42858)
(-0.0107291 0.11759 3.92433)
(0.179393 0.69395 1.59448)
(-0.0599506 -0.230924 2.09256)
(-0.434689 -0.352528 4.21379)
(-0.320622 0.095767 4.22229)
(0.374266 0.0879442 6.81051)
(0.152661 -0.257222 1.00688)
(-0.32331 -0.124833 1.21734)
(0.181068 -0.571883 3.8449)
(-0.0639574 0.138349 2.12148)
(0.0170166 -0.100992 0.390544)
(0.0122022 -0.0110676 -0.456438)
(0.0863985 -0.257861 0.462441)
(0.42185 -0.145341 1.0163)
(0.162907 -0.168657 2.14632)
(-0.197464 -0.026645 1.54827)
(0.00119806 0.141933 1.46109)
(0.383829 0.186048 1.43537)
(-0.0340044 0.232777 2.83223)
(0.111588 0.137187 1.97469)
(-0.00569127 0.00716718 -0.000397187)
(-0.000906254 0.117627 0.149622)
(-0.104764 0.153809 2.73686)
(0.449356 0.0191086 3.07329)
(-0.022927 -0.208213 2.0148)
(0.0448146 -0.0765437 4.09785)
(0.350655 0.394408 2.15951)
(-0.00290214 -0.00110534 -0.00180684)
(-0.159092 -0.214683 2.24647)
(-0.52569 -0.308231 4.05038)
(-0.25984 0.037669 3.81197)
(0.569684 -0.0805376 6.45254)
(0.651431 -0.340531 2.17808)
(-0.169646 0.131551 0.949308)
(0.112421 -0.295671 3.75191)
(-0.0499961 0.264723 1.99734)
(-0.0281674 -0.0913515 0.894314)
(0.0154581 -0.121371 -0.277901)
(0.0326267 -0.29859 0.223321)
(0.358856 -0.141238 0.984423)
(0.077033 -0.0317581 2.01459)
(-0.316822 -0.310417 1.73281)
(0.188388 0.00276324 1.12399)
(0.316686 0.180856 1.39605)
(-0.137663 0.27978 2.6799)
(-0.190744 0.329889 1.44213)
(-0.955439 0.497265 -0.287479)
(-0.017474 0.197842 0.414474)
(-0.10724 0.145768 3.00639)
(0.534768 -0.215494 3.38021)
(0.187963 -0.435619 2.29647)
(0.0254468 -0.194136 4.13937)
(0.456941 0.297136 2.66728)
(-0.347318 0.15785 0.269004)
(-0.256551 -0.26408 2.4438)
(-0.430206 -0.307139 3.81307)
(0.0285354 -0.00391455 3.33678)
(0.69136 -0.117246 5.57433)
(0.851367 -0.401688 2.83929)
(-0.296725 0.105441 0.465575)
(-0.0800941 0.189873 0.975308)
(0.268968 -0.102264 3.57698)
(0.0461181 0.194898 2.5392)
(-0.0791785 -0.0662928 1.12927)
(-0.0417851 0.00310424 0.122155)
(0.0511385 -0.0059377 0.281214)
(0.234609 -0.109862 1.00062)
(-0.065811 -0.119103 2.18082)
(-0.14762 -0.23511 1.44631)
(0.17359 -0.197159 1.25021)
(0.133062 0.114304 1.42353)
(-0.149626 0.246687 2.70851)
(-0.36129 0.49985 1.53247)
(-0.911454 -0.47957 -0.481308)
(-0.0659184 -0.0753918 0.57049)
(-0.0163512 -0.0643736 3.16031)
(0.526642 -0.32719 3.31635)
(0.264763 -0.343015 2.33528)
(0.0256482 -0.22284 4.01927)
(0.340838 0.237784 2.93544)
(-0.255797 -0.150359 0.718808)
(-0.325983 -0.316163 2.62809)
(-0.225562 -0.124215 3.13349)
(0.154057 -0.0183872 3.06033)
(0.593414 -0.0436796 4.57212)
(0.76343 -0.50498 2.95103)
(0.82964 0.0198607 0.823765)
(0.114816 0.239977 1.06553)
(0.304729 -0.0614006 3.4071)
(0.247341 -0.0187746 3.10852)
(-0.14332 -0.0482246 1.19185)
(-0.0354906 0.0987384 0.173702)
(0.0256991 0.0766495 0.270786)
(0.163353 -0.0698049 0.984205)
(-0.204923 -0.18111 2.34844)
(-0.0943401 -0.24851 1.1777)
(0.118829 -0.205084 1.20452)
(0.00956105 0.079252 1.51856)
(-0.0931818 0.204368 2.81315)
(-0.436186 0.0215291 1.46548)
(-0.700348 -1.26309 -1.02842)
(-0.122364 -0.179416 1.02006)
(-0.0693169 -0.296702 3.211)
(0.440242 -0.179006 2.77953)
(0.26447 -0.187226 2.41379)
(0.0537516 -0.243872 3.97108)
(0.293399 0.0193651 3.36815)
(0.609574 -1.01339 0.872735)
(-0.43843 -0.192043 2.69852)
(0.00776356 0.0378263 2.58389)
(0.113314 -0.0293564 2.94717)
(0.36306 -0.0150742 3.7932)
(0.464492 -0.658702 3.20256)
(0.201241 0.254298 1.2937)
(0.233007 -0.0552682 3.26859)
(0.168012 -0.0665567 3.36517)
(-0.18509 -0.0656723 1.22429)
(-0.0548949 0.0662681 0.229784)
(0.0357316 0.0670481 0.35418)
(0.123588 -0.099282 1.01669)
(-0.236109 -0.18374 2.44821)
(-0.0321783 -0.109263 1.1734)
(0.0635265 -0.0923049 1.21943)
(-0.0274542 0.0889959 1.68058)
(-0.0318862 0.0668984 2.83541)
(-0.616291 -0.688983 1.44849)
(-0.0584372 -0.141472 1.36519)
(-0.120766 -0.279035 2.99508)
(0.392213 -0.0858944 2.88034)
(0.136749 -0.119612 2.58091)
(0.0800273 -0.235651 4.00028)
(-0.0744241 -0.304051 3.56404)
(-0.278666 0.0428888 2.55264)
(-0.00528708 -0.00873581 2.56775)
(-0.00978214 -0.0752086 2.81924)
(0.197271 -0.0357037 3.47915)
(0.406135 -0.513715 3.25771)
(0.168983 0.235995 1.51492)
(0.13558 -0.0168715 3.27994)
(0.122751 -0.0644299 3.56868)
(-0.226543 -0.0835979 1.32853)
(-0.0532016 0.0278491 0.246169)
(0.0209771 0.0935361 0.391005)
(0.119632 -0.0814289 1.03542)
(-0.239962 -0.172689 2.49784)
(-0.00386861 -0.0689909 1.19768)
(0.0347229 0.0865244 1.15182)
(0.00337386 0.113855 1.69454)
(0.0488873 -0.00199728 2.93291)
(-0.334068 -0.608352 1.52893)
(-0.0298911 -0.0847271 1.52094)
(-0.0531044 -0.151286 2.90505)
(0.282666 0.0408172 2.85928)
(0.064536 -0.0885989 2.74131)
(0.150502 -0.20234 4.00806)
(0.25374 -0.416787 3.68405)
(-0.143565 -0.0108035 2.43601)
(-0.0235811 -0.0309548 2.38903)
(-0.0326525 -0.0876411 2.68132)
(0.164191 -0.0706181 3.25592)
(0.383425 -0.494231 3.09916)
(0.173923 0.0755753 1.5295)
(0.0754605 0.00257993 3.30606)
(0.0929907 -0.0523319 3.65561)
(-0.25036 -0.0778553 1.41025)
(-0.0474421 0.0224262 0.25912)
(0.00542406 0.107817 0.433833)
(0.0950252 -0.0816083 1.06315)
(-0.275041 -0.168147 2.52061)
(0.0167627 -0.0944427 1.18383)
(0.0637506 0.166395 1.08498)
(0.0550429 0.1299 1.65953)
(0.0769371 -0.0499274 2.97589)
(-0.178857 -0.580446 1.75557)
(-0.0438551 -0.017097 1.76275)
(-0.0300162 -0.0539949 2.88631)
(0.254091 0.123704 2.75331)
(0.0811603 -0.0466574 2.77848)
(0.198974 -0.158411 3.98846)
(0.229781 -0.390005 3.68199)
(-0.0661609 0.00984714 2.17761)
(-0.0169352 0.0110732 2.27121)
(0.0512317 -0.0909527 2.55828)
(0.174017 -0.0803192 3.00032)
(0.328995 -0.414455 3.05209)
(0.137219 0.0529383 1.52935)
(0.0966496 0.0249793 3.30858)
(0.0919384 -0.06169 3.47164)
(-0.253934 -0.0631335 1.46228)
(-0.0660557 0.0564736 0.275607)
(-0.0175481 0.133578 0.469733)
(0.050539 -0.0807265 1.12931)
(-0.292799 -0.163257 2.51851)
(0.0107914 -0.0570462 1.09497)
(0.147153 0.147926 0.978078)
(0.1284 0.110896 1.60607)
(0.0940371 -0.0683335 2.95796)
(-0.129703 -0.588439 2.03264)
(-0.0120992 0.0421224 1.85368)
(-0.0402358 0.00572683 2.91031)
(0.212913 0.171203 2.74761)
(0.103335 0.00447089 2.83202)
(0.224358 -0.111493 3.94618)
(0.180091 -0.337425 3.71701)
(-0.0301171 0.0395078 2.17987)
(-0.00161734 0.0590797 2.23956)
(0.0909849 -0.0874395 2.5093)
(0.179431 -0.0113164 2.89417)
(0.287729 -0.336695 3.01292)
(0.10011 0.0710449 1.577)
(0.120376 0.0276113 3.27966)
(0.164688 -0.0432948 3.47829)
(-0.236663 -0.0463946 1.46857)
(-0.0904758 0.112779 0.270007)
(-0.0552815 0.147693 0.474871)
(-0.0135373 -0.0405893 1.20693)
(-0.31052 -0.161632 2.52165)
(-0.0577063 0.00592189 0.952434)
(0.168218 0.10305 0.853063)
(0.152227 0.0755507 1.5787)
(0.113317 -0.0890346 2.94073)
(-0.0961007 -0.591633 2.30148)
(-0.00653651 0.0571561 1.94992)
(-0.0634001 0.0752021 2.92733)
(0.157238 0.196539 2.75305)
(0.117671 0.0463388 2.84691)
(0.237458 -0.0680641 3.90564)
(0.153211 -0.301143 3.74422)
(-0.00637885 0.0538527 2.24698)
(0.026402 0.117919 2.26699)
(0.086192 -0.0806001 2.43006)
(0.151304 0.00432724 2.79758)
(0.263593 -0.29217 3.00793)
(0.104227 0.0679122 1.61382)
(0.125781 0.0392637 3.22437)
(0.17613 -0.0354848 3.54324)
(-0.229002 -0.0367459 1.42009)
(-0.101629 0.150668 0.272331)
(-0.104771 0.151629 0.459991)
(-0.111859 -0.0110899 1.30913)
(-0.330363 -0.170613 2.49914)
(-0.0941895 0.0430769 0.876648)
(0.0812293 0.107152 0.740702)
(0.14328 0.0489136 1.55248)
(0.115917 -0.117246 2.91688)
(-0.0701569 -0.586861 2.5442)
(-0.0174617 0.0521639 2.03427)
(-0.0878776 0.137444 2.90535)
(0.117016 0.226163 2.6966)
(0.139437 0.0798548 2.84649)
(0.252214 -0.0311588 3.84874)
(0.136006 -0.281772 3.76069)
(0.00783378 0.080227 2.35404)
(0.0518876 0.162374 2.26551)
(0.0828481 -0.0948094 2.40194)
(0.125638 0.0188651 2.79153)
(0.240874 -0.256501 3.03148)
(0.0930579 0.0712281 1.70171)
(0.127835 0.0676204 3.20675)
(0.180625 -0.0289032 3.63756)
(-0.286012 -0.0506455 1.34847)
(-0.0943358 0.171151 0.270967)
(-0.146918 0.143342 0.46156)
(-0.227079 -0.028652 1.42091)
(-0.346122 -0.177586 2.42895)
(-0.107367 0.108887 0.851334)
(-0.0352662 0.136848 0.651066)
(0.120755 0.01375 1.49421)
(0.110684 -0.144317 2.89315)
(-0.0536324 -0.574621 2.75952)
(-0.0178356 0.0539072 2.16055)
(-0.119507 0.160347 2.86498)
(0.0744984 0.232576 2.58693)
(0.149317 0.0902401 2.83284)
(0.264529 -0.00446534 3.80871)
(0.131877 -0.265127 3.76593)
(0.0171178 0.0994637 2.4773)
(0.078061 0.171961 2.26761)
(0.0691795 -0.0964344 2.38883)
(0.103957 0.0320646 2.80218)
(0.215429 -0.220496 3.04421)
(0.0938208 0.078374 1.78497)
(0.141696 0.0538768 3.14613)
(0.195407 -0.0608715 3.6714)
(-0.366422 -0.0726613 1.3336)
(-0.106665 0.172757 0.27632)
(-0.179176 0.133523 0.489702)
(-0.302361 -0.0691989 1.5016)
(-0.339451 -0.175308 2.32347)
(-0.114829 0.172081 0.87619)
(-0.12018 0.152195 0.613564)
(0.0359045 -0.0119535 1.39406)
(0.0921836 -0.151255 2.88473)
(-0.0501989 -0.555965 2.94763)
(-0.0155292 0.0443403 2.24376)
(-0.149286 0.15029 2.83119)
(0.0446068 0.184372 2.4753)
(0.158512 0.0889638 2.80021)
(0.276581 0.00918016 3.78534)
(0.130266 -0.258927 3.77221)
(0.0102875 0.108441 2.58696)
(0.0975334 0.166435 2.26525)
(0.0626106 -0.0992405 2.39531)
(0.0860408 0.033932 2.83142)
(0.195584 -0.185227 3.06586)
(0.100762 0.0815704 1.8919)
(0.158974 0.0414125 3.12836)
(0.198878 -0.0703795 3.66719)
(-0.419409 -0.0825251 1.37622)
(-0.102439 0.151878 0.28981)
(-0.183879 0.143594 0.541596)
(-0.317945 -0.116371 1.51675)
(-0.313476 -0.163162 2.21232)
(-0.0787995 0.211905 0.955926)
(-0.149936 0.154917 0.619932)
(-0.0885555 0.00224003 1.27662)
(0.0675895 -0.145901 2.86403)
(-0.0601997 -0.527868 3.10234)
(-0.0419219 0.0230545 2.31421)
(-0.178351 0.133316 2.78819)
(0.00186931 0.164317 2.33548)
(0.176781 0.100514 2.72675)
(0.294078 0.0179547 3.76299)
(0.129527 -0.25605 3.77233)
(-0.00960432 0.110028 2.68895)
(0.10488 0.158635 2.25145)
(0.0522677 -0.0963722 2.4014)
(0.073773 0.018515 2.86123)
(0.175539 -0.155106 3.09864)
(0.112082 0.0703029 1.95893)
(0.168585 0.031076 3.08637)
(0.207348 -0.0672559 3.6867)
(-0.430343 -0.0849062 1.46087)
(-0.0679664 0.120359 0.307595)
(-0.157497 0.166713 0.601259)
(-0.295116 -0.147899 1.4977)
(-0.275486 -0.152783 2.11293)
(0.00448267 0.255607 1.06041)
(-0.109401 0.147389 0.64706)
(-0.15827 0.0403209 1.14795)
(0.0549549 -0.148756 2.81661)
(-0.0764992 -0.500239 3.2268)
(-0.0731837 -0.0142223 2.49634)
(-0.18456 0.0862228 2.75785)
(-0.0534191 0.188959 2.20853)
(0.167816 0.131536 2.63504)
(0.304536 0.0271384 3.74737)
(0.127303 -0.250953 3.77221)
(-0.0367937 0.101277 2.78258)
(0.107072 0.145844 2.24288)
(0.0429693 -0.0885336 2.41854)
(0.0675238 0.0186834 2.9004)
(0.147671 -0.116046 3.13298)
(0.126811 0.070497 2.03287)
(0.186899 0.0301385 3.05768)
(0.200524 -0.0720633 3.73592)
(-0.413195 -0.0768313 1.5484)
(-0.0199236 0.0769629 0.349178)
(-0.115275 0.180746 0.649789)
(-0.265506 -0.16224 1.47653)
(-0.251919 -0.156817 2.04665)
(0.107146 0.178381 1.13474)
(0.0577131 0.0975015 0.701876)
(-0.10746 0.0578137 1.04396)
(0.0519153 -0.147749 2.7255)
(-0.0806539 -0.478552 3.32465)
(-0.0821956 -0.0533786 2.64694)
(-0.162902 0.0175655 2.73451)
(-0.123737 0.177855 2.10927)
(0.134626 0.180182 2.56063)
(0.305317 0.0446038 3.73724)
(0.120594 -0.240983 3.77239)
(-0.0505492 0.0938669 2.85492)
(0.096557 0.13074 2.24348)
(0.0271883 -0.0822695 2.45745)
(0.0572315 0.0177891 2.94066)
(0.126771 -0.0834705 3.15637)
(0.14288 0.0753975 2.10283)
(0.193526 0.0431419 3.03955)
(0.191884 -0.0783884 3.72201)
(-0.378171 -0.0687684 1.61477)
(0.018621 0.0299265 0.428585)
(-0.0780024 0.183281 0.689982)
(-0.24179 -0.181582 1.47453)
(-0.244491 -0.177038 2.01743)
(0.183908 -0.0437859 1.15688)
(0.2366 0.035058 0.753758)
(0.0474894 0.0303677 0.995699)
(0.0481362 -0.130352 2.6049)
(-0.0622472 -0.46115 3.4161)
(-0.0853268 -0.0906119 2.71868)
(-0.113987 -0.0905625 2.67663)
(-0.183393 0.113671 1.99463)
(0.117838 0.221193 2.46427)
(0.296446 0.0839997 3.72526)
(0.111745 -0.225972 3.77628)
(-0.0513388 0.0859858 2.88836)
(0.085012 0.117878 2.25071)
(-0.00265846 -0.0943712 2.49967)
(0.0457744 0.0205896 2.99693)
(0.115819 -0.0626134 3.18087)
(0.150429 0.0735333 2.17011)
(0.1961 0.0478885 3.03966)
(0.194669 -0.0737435 3.73989)
(-0.350705 -0.0655684 1.68578)
(0.0344489 -0.00268786 0.530614)
(-0.055162 0.184678 0.721439)
(-0.212564 -0.193656 1.49509)
(-0.243727 -0.196164 2.02784)
(0.171443 -0.194996 1.11892)
(0.353975 0.00806069 0.805972)
(0.205978 -0.021055 1.00045)
(0.0371754 -0.123043 2.51717)
(-0.0226797 -0.444367 3.50574)
(-0.0769579 -0.106836 2.75141)
(-0.158559 -0.135568 2.55938)
(-0.126335 0.0771441 1.82795)
(0.12373 0.240143 2.33397)
(0.286091 0.119725 3.70736)
(0.106099 -0.210829 3.78753)
(-0.0351055 0.086882 2.90105)
(0.0862437 0.11707 2.25358)
(-0.0236089 -0.0906052 2.54084)
(0.0399653 0.0302686 3.05764)
(0.1086 -0.047555 3.20736)
(0.171241 0.0684283 2.23118)
(0.196188 0.0530498 3.03459)
(0.198453 -0.0816038 3.75724)
(-0.326923 -0.0596358 1.76379)
(0.0349401 -0.0205435 0.617653)
(-0.0325892 0.19086 0.748021)
(-0.172398 -0.177626 1.52445)
(-0.239075 -0.213007 2.07761)
(0.135299 -0.179293 1.10223)
(0.376036 0.0241721 0.845532)
(0.30073 -0.0745573 1.03199)
(0.047534 -0.128432 2.44339)
(0.0126239 -0.424987 3.59038)
(-0.0620363 -0.0957627 2.73007)
(-0.113861 -0.0865452 2.41312)
(0.0125141 0.100949 1.69285)
(0.134465 0.252297 2.22125)
(0.280668 0.148722 3.69233)
(0.106277 -0.203278 3.80693)
(0.00237126 0.0985035 2.89782)
(0.0975199 0.125229 2.26182)
(-0.032152 -0.0789258 2.6004)
(0.0374414 0.0458486 3.12669)
(0.100531 -0.0422295 3.24265)
(0.187057 0.0719105 2.29296)
(0.199783 0.0496053 3.03303)
(0.204004 -0.0839041 3.7934)
(-0.290869 -0.0606014 1.82659)
(0.029937 -0.0293912 0.655506)
(0.00618196 0.185379 0.782292)
(-0.10851 -0.117335 1.57302)
(-0.227358 -0.218209 2.14683)
(0.173849 0.0272644 1.09619)
(0.299568 0.0572079 0.881222)
(0.335308 -0.133337 1.0626)
(0.0435075 -0.131205 2.38835)
(0.0325005 -0.404166 3.67715)
(-0.0648972 -0.0783473 2.73048)
(-0.223407 0.102165 1.93944)
(0.117503 0.108915 1.66105)
(0.132879 0.241716 2.14835)
(0.279938 0.176874 3.67596)
(0.111818 -0.196976 3.82355)
(0.0288576 0.125563 2.89621)
(0.122402 0.142335 2.30412)
(-0.0428157 -0.0784187 2.6764)
(0.0360376 0.0627326 3.20266)
(0.101047 -0.0379455 3.29585)
(0.209012 0.0843805 2.36457)
(0.203891 0.0425108 3.03716)
(0.207257 -0.0841805 3.84722)
(-0.281426 -0.0171405 1.94146)
(0.0189511 -0.0264816 0.655083)
(0.0450201 0.143709 0.814098)
(-0.0492727 -0.0629396 1.64462)
(-0.209867 -0.213969 2.2243)
(0.212547 0.105481 1.03975)
(0.192831 0.0587649 0.910277)
(0.352916 -0.186461 1.07406)
(0.0153722 -0.141574 2.34773)
(0.0395008 -0.381539 3.76789)
(-0.0254289 -0.0318345 2.79169)
(-0.00219551 0.145031 1.54116)
(0.192257 0.0371633 1.64492)
(0.129505 0.196803 2.08032)
(0.28884 0.192865 3.65125)
(0.119674 -0.195883 3.84663)
(0.0451076 0.153254 2.93151)
(0.15638 0.144174 2.37465)
(-0.046788 -0.0786824 2.74909)
(0.0342793 0.074609 3.27777)
(0.0956627 -0.0313305 3.35622)
(0.230317 0.0890965 2.45002)
(0.213984 0.0305431 3.04889)
(0.201521 -0.0845258 3.90726)
(-0.289044 0.0727037 1.84476)
(-0.00515788 0.0135012 0.627652)
(0.043492 0.0858316 0.817822)
(-0.121584 0.00651246 1.78502)
(-0.201528 -0.202113 2.29796)
(0.181231 0.0864764 1.0116)
(0.116274 0.0451547 0.929507)
(0.361996 -0.201679 1.07325)
(-0.00517204 -0.170741 2.32394)
(0.0365333 -0.36226 3.84837)
(0.012056 0.0232195 2.74462)
(0.16396 0.125073 1.42983)
(0.201519 -0.0630005 1.54689)
(0.136831 0.147446 2.00268)
(0.29662 0.188166 3.6307)
(0.12789 -0.198451 3.8691)
(0.0573678 0.172852 2.94735)
(0.17161 0.143258 2.40948)
(-0.0454456 -0.0771966 2.82039)
(0.0291556 0.0760716 3.34546)
(0.0900573 -0.0244347 3.41796)
(0.243324 0.0857066 2.52619)
(0.224012 0.0126091 3.06454)
(0.194752 -0.0844058 3.9655)
(-0.156484 0.0463126 1.42173)
(-0.0368321 0.0497841 0.584621)
(-0.00284605 0.0361929 0.813311)
(-0.219621 0.102192 1.93068)
(-0.201464 -0.189323 2.34999)
(0.06427 0.038244 0.998438)
(0.0573943 0.0655985 0.927453)
(0.360177 -0.173117 1.07351)
(-0.0046111 -0.203211 2.33587)
(0.0213302 -0.355492 3.92149)
(0.0173986 0.0199601 2.64022)
(0.195823 0.108518 1.47058)
(0.125356 -0.104745 1.39683)
(0.145804 0.0919711 1.92435)
(0.298387 0.166782 3.59654)
(0.132737 -0.201287 3.88588)
(0.0835583 0.181346 2.94597)
(0.17279 0.143802 2.41346)
(-0.0488858 -0.082974 2.89924)
(0.0192517 0.0664187 3.40253)
(0.0894086 -0.0209923 3.49135)
(0.241186 0.0862666 2.59174)
(0.235108 -0.00784965 3.07829)
(0.194768 -0.0860957 4.01661)
(-0.111007 -0.0025498 1.3198)
(-0.0579349 0.0700252 0.539672)
(-0.0580744 -0.00372594 0.814261)
(-0.227242 0.161525 1.95438)
(-0.211766 -0.198162 2.40363)
(-0.00213743 0.0470789 1.00059)
(0.0204973 0.103864 0.899857)
(0.328025 -0.0586725 1.08477)
(0.00277199 -0.234447 2.37581)
(-0.000938055 -0.358929 3.97899)
(0.0558189 0.0656673 2.28307)
(0.0998788 0.00402774 1.59332)
(0.0354029 -0.0787811 1.26213)
(0.14762 0.00879471 1.85115)
(0.299664 0.139782 3.54117)
(0.137385 -0.208798 3.89345)
(0.118634 0.155882 2.93905)
(0.171999 0.144195 2.41002)
(-0.0520652 -0.0940224 2.97516)
(0.0027374 0.0473314 3.45263)
(0.0871604 -0.0155627 3.55838)
(0.236409 0.0859545 2.64181)
(0.247457 -0.0263363 3.08122)
(0.198338 -0.0903009 4.05483)
(-0.10415 -0.0232326 1.31985)
(-0.0670336 0.0856188 0.498149)
(-0.0922048 -0.0101051 0.816038)
(-0.195612 0.177704 1.91673)
(-0.210482 -0.207877 2.47681)
(-0.0125587 0.0800743 1.03493)
(0.00977273 0.126572 0.85874)
(0.280376 0.0399874 1.10356)
(0.0184155 -0.256008 2.41463)
(-0.0228324 -0.369513 4.01789)
(0.0539023 0.134618 1.93617)
(0.0117101 -0.135215 1.69857)
(-0.00420642 -0.0454158 1.16108)
(0.129197 -0.0709229 1.78933)
(0.300358 0.112817 3.47145)
(0.139855 -0.218562 3.89538)
(0.114314 0.128329 2.93199)
(0.17641 0.144661 2.41117)
(-0.0463732 -0.100075 3.03136)
(-0.0136879 0.0275502 3.49105)
(0.0821261 -0.00249338 3.61769)
(0.220447 0.0956345 2.6732)
(0.257209 -0.0380896 3.07203)
(0.203747 -0.0950747 4.08071)
(-0.109329 -0.0434163 1.37618)
(-0.075569 0.105565 0.46194)
(-0.110488 0.0193833 0.814851)
(-0.188645 0.149253 1.88678)
(-0.212395 -0.20627 2.56806)
(0.00939597 0.10557 1.12248)
(0.029868 0.127836 0.825434)
(0.23886 0.0815867 1.12457)
(0.0375754 -0.262698 2.44765)
(-0.0453363 -0.383948 4.04471)
(0.0316985 0.102007 1.80621)
(0.0278628 -0.189902 1.78726)
(0.00980585 -0.0370343 1.07503)
(0.0907245 -0.110402 1.74069)
(0.309692 0.0859544 3.39331)
(0.141558 -0.225948 3.88954)
(0.0807482 0.124119 2.92906)
(0.192875 0.147771 2.40716)
(-0.0354251 -0.100012 3.07661)
(-0.0183522 0.0127098 3.52757)
(0.0765639 0.0126662 3.67111)
(0.210829 0.107364 2.70182)
(0.262405 -0.0448958 3.05822)
(0.207582 -0.0993347 4.09744)
(-0.130219 -0.067463 1.49263)
(-0.0809719 0.121956 0.428889)
(-0.118842 0.0607188 0.810108)
(-0.173296 0.0686977 1.85439)
(-0.223061 -0.205835 2.661)
(0.00951949 0.0797682 1.25568)
(0.0740675 0.126891 0.809316)
(0.207331 0.0889482 1.13918)
(0.0455576 -0.261618 2.47513)
(-0.0685109 -0.397949 4.06552)
(0.00541852 0.00835091 1.891)
(0.0870705 -0.170503 1.87772)
(0.0525088 -0.0472423 1.00412)
(0.0472494 -0.106332 1.70125)
(0.325916 0.0612994 3.30685)
(0.142821 -0.230244 3.8771)
(0.0245852 0.131315 2.89335)
(0.207082 0.148319 2.38073)
(-0.0220401 -0.0998026 3.12172)
(-0.0163365 0.00213556 3.56296)
(0.0697066 0.0302677 3.7314)
(0.213439 0.113432 2.73355)
(0.267001 -0.0439663 3.04688)
(0.208618 -0.102933 4.11652)
(-0.159709 -0.0650462 1.64528)
(-0.0761491 0.119992 0.410435)
(-0.125359 0.097937 0.804869)
(-0.128392 -0.0208119 1.81669)
(-0.222714 -0.212038 2.72573)
(-0.0276431 -0.0280328 1.40687)
(0.11738 0.139546 0.806081)
(0.186912 0.0906418 1.14927)
(0.0463001 -0.269396 2.49516)
(-0.090096 -0.413323 4.08023)
(-0.00988617 -0.046701 2.01796)
(0.0998042 -0.154512 1.89256)
(0.0930941 -0.0466444 0.958677)
(0.0123498 -0.0843434 1.67213)
(0.34364 0.0407132 3.20419)
(0.143188 -0.230146 3.85604)
(-0.0121555 0.121186 2.79332)
(0.2054 0.141409 2.31891)
(-0.00821822 -0.102795 3.17701)
(-0.0109962 -0.00652881 3.59853)
(0.0624148 0.0476871 3.79813)
(0.212183 0.116904 2.76037)
(0.273432 -0.0384325 3.04388)
(0.208928 -0.104698 4.13941)
(-0.189277 -0.0273323 1.70701)
(-0.0688185 0.107348 0.422441)
(-0.130203 0.128862 0.802503)
(-0.0940654 -0.0567518 1.79046)
(-0.219433 -0.219199 2.79103)
(-0.0700336 -0.148237 1.52958)
(0.136387 0.167384 0.813892)
(0.177336 0.100702 1.15646)
(0.0462573 -0.285425 2.51658)
(-0.110109 -0.424586 4.0968)
(-0.0297244 -0.0875566 2.12279)
(0.067409 -0.176484 1.85812)
(0.115262 -0.014335 0.938137)
(-0.00433616 -0.0646358 1.65285)
(0.364537 0.0278464 3.07796)
(0.141815 -0.228186 3.82846)
(-0.0291265 0.0775246 2.61827)
(0.168365 0.139925 2.22154)
(0.00968363 -0.108379 3.23694)
(-0.00847821 -0.0129487 3.63487)
(0.0531539 0.0598979 3.87186)
(0.204334 0.128741 2.77985)
(0.283762 -0.0324132 3.04552)
(0.208468 -0.104791 4.16862)
(-0.219645 0.0124266 1.57177)
(-0.0720457 0.104742 0.450341)
(-0.139502 0.148716 0.801264)
(-0.0929938 -0.0506384 1.79462)
(-0.230988 -0.222517 2.87955)
(-0.0900539 -0.189904 1.61609)
(0.126514 0.203172 0.824065)
(0.171449 0.121825 1.16303)
(0.0411613 -0.291643 2.53823)
(-0.123923 -0.432926 4.11504)
(-0.0459182 -0.119109 2.23822)
(-0.00389456 -0.182446 1.67881)
(0.120358 0.0395597 0.929463)
(-0.00342406 -0.0599768 1.63981)
(0.3822 0.0286255 2.93937)
(0.148312 -0.2294 3.80076)
(-0.0443351 0.0289804 2.42446)
(0.127332 0.15074 2.13369)
(0.0315126 -0.119899 3.29501)
(-0.0110351 -0.0185318 3.67581)
(0.0414543 0.0752529 3.95395)
(0.190674 0.147438 2.79632)
(0.2967 -0.0266402 3.0552)
(0.206451 -0.104049 4.20587)
(-0.201177 -0.0118305 1.25178)
(-0.0868936 0.120564 0.469904)
(-0.153141 0.152653 0.790405)
(-0.14149 0.0797406 1.88189)
(-0.257804 -0.23314 2.99146)
(-0.0828853 -0.153253 1.67772)
(0.102931 0.234401 0.826196)
(0.165756 0.148795 1.17895)
(0.0390462 -0.282018 2.54831)
(-0.133587 -0.440001 4.13422)
(-0.048212 -0.146135 2.36313)
(-0.0383868 -0.110406 1.47842)
(0.120455 0.0911404 0.918319)
(0.0112676 -0.0658597 1.63144)
(0.388088 0.0320698 2.80772)
(0.155442 -0.232495 3.77489)
(-0.0568995 -0.0376083 2.2836)
(0.111692 0.152365 2.04079)
(0.0496392 -0.131395 3.34004)
(-0.0155728 -0.0261811 3.72632)
(0.0295442 0.0909747 4.04007)
(0.173339 0.164805 2.81259)
(0.307799 -0.0210833 3.07027)
(0.204334 -0.103875 4.24891)
(-0.158199 -0.0223594 1.0156)
(-0.0949106 0.139554 0.466103)
(-0.157846 0.139826 0.761707)
(-0.162472 0.171475 1.955)
(-0.279903 -0.226815 3.11941)
(-0.0567492 -0.0842155 1.73049)
(0.0851039 0.254658 0.814317)
(0.162808 0.179868 1.20901)
(0.0511409 -0.254019 2.55067)
(-0.139861 -0.445646 4.15544)
(-0.0510846 -0.17808 2.46876)
(-0.0477458 -0.112654 1.37324)
(0.122147 0.12843 0.905362)
(0.0551094 -0.0757012 1.62686)
(0.387572 0.0201449 2.69676)
(0.157134 -0.229795 3.74644)
(-0.100005 -0.0842485 2.16283)
(0.107965 0.126586 1.93353)
(0.0627346 -0.137449 3.37381)
(-0.0149151 -0.0418522 3.78911)
(0.0179615 0.104505 4.12573)
(0.156213 0.172592 2.81953)
(0.307621 -0.0154537 3.08428)
(0.206157 -0.106341 4.29315)
(-0.128341 -0.0182063 0.836075)
(-0.0782783 0.142308 0.448919)
(-0.153593 0.128451 0.712659)
(-0.141918 0.183885 1.98892)
(-0.295794 -0.216112 3.2407)
(-0.020413 -0.0462746 1.78398)
(0.0815493 0.265468 0.796063)
(0.158187 0.219281 1.24642)
(0.0741558 -0.20652 2.56101)
(-0.142332 -0.450328 4.17969)
(-0.0323215 -0.209508 2.54247)
(-0.00957879 -0.13177 1.33653)
(0.133682 0.154756 0.89974)
(0.112242 -0.075471 1.6252)
(0.389065 -0.00592411 2.62791)
(0.153865 -0.226252 3.71737)
(-0.19156 -0.123142 2.10389)
(0.0930087 0.0914844 1.81382)
(0.0799845 -0.138868 3.39872)
(-0.00891907 -0.0688819 3.86618)
(0.00758799 0.112719 4.20509)
(0.148495 0.169239 2.8035)
(0.301129 -0.0104977 3.09256)
(0.216058 -0.112683 4.33113)
(-0.112391 -0.0093152 0.714037)
(-0.0352284 0.114575 0.440601)
(-0.133529 0.120922 0.655643)
(-0.13501 0.188225 1.98255)
(-0.31553 -0.203701 3.3424)
(0.054147 -0.0869588 1.84618)
(0.0976855 0.267059 0.783453)
(0.149718 0.269959 1.27882)
(0.0948493 -0.173987 2.58158)
(-0.139645 -0.451499 4.20314)
(-0.0221674 -0.210716 2.53719)
(0.0623591 -0.167572 1.31471)
(0.160977 0.17929 0.912553)
(0.163447 -0.0646008 1.64698)
(0.393184 -0.03473 2.60964)
(0.148608 -0.22314 3.69259)
(-0.221025 -0.191357 2.0997)
(0.079452 0.0785096 1.70346)
(0.103424 -0.147749 3.40531)
(0.00599619 -0.11429 3.96315)
(0.000982258 0.11627 4.27739)
(0.134747 0.161355 2.75406)
(0.298159 -0.0047567 3.09622)
(0.233138 -0.119427 4.36052)
(-0.100635 -0.00607044 0.648315)
(0.0224762 0.0633133 0.453918)
(-0.0942504 0.0989442 0.612038)
(-0.170018 0.184191 1.90891)
(-0.324231 -0.196955 3.43786)
(0.156676 -0.148284 1.90912)
(0.133877 0.261436 0.787086)
(0.140658 0.3181 1.30668)
(0.112515 -0.160673 2.61204)
(-0.134558 -0.446964 4.22531)
(-0.0188649 -0.25977 2.45826)
(0.131739 -0.188295 1.27182)
(0.198382 0.210197 0.93534)
(0.205951 -0.0413882 1.69242)
(0.402762 -0.0543093 2.62515)
(0.139833 -0.225011 3.67837)
(-0.151142 -0.218897 2.14169)
(0.102385 0.0891395 1.62709)
(0.127663 -0.153622 3.3824)
(0.0266961 -0.171445 4.06644)
(0.00112723 0.113333 4.34132)
(0.119071 0.154076 2.68533)
(0.295509 0.00315045 3.09423)
(0.254884 -0.12481 4.37581)
(-0.0734859 -0.00774707 0.625621)
(0.0646103 0.0086208 0.485907)
(-0.0455343 0.0507543 0.596884)
(-0.187914 0.183811 1.7406)
(-0.324024 -0.205711 3.53352)
(0.236195 -0.121327 1.97188)
(0.174797 0.255761 0.795219)
(0.13119 0.344808 1.33767)
(0.111315 -0.14431 2.64828)
(-0.128144 -0.441505 4.25226)
(-0.0279894 -0.316726 2.12474)
(0.142751 -0.144672 1.22336)
(0.230022 0.243444 0.960508)
(0.238057 -0.00920641 1.77556)
(0.419388 -0.083529 2.68427)
(0.136322 -0.227668 3.68276)
(-0.06834 -0.16492 2.16095)
(0.162622 0.103912 1.59066)
(0.157009 -0.156282 3.35008)
(0.0631448 -0.228991 4.16756)
(0.00860933 0.0975159 4.39961)
(0.125107 0.146147 2.62719)
(0.296387 0.0161806 3.09411)
(0.282096 -0.129218 4.38229)
(-0.024804 -0.00173631 0.595376)
(0.0952518 -0.0510061 0.517142)
(-0.00315078 -0.00294351 0.602523)
(-0.126455 0.178477 1.59024)
(-0.315561 -0.215375 3.64955)
(0.244446 -0.0403618 1.97424)
(0.199447 0.253699 0.798881)
(0.114827 0.341158 1.37499)
(0.0880402 -0.114835 2.68716)
(-0.121276 -0.431645 4.28143)
(-0.0426941 -0.218708 1.80565)
(0.118388 -0.0516842 1.17852)