/*--------------------------------*- C++ -*----------------------------------*\
| =========                 |                                                 |
| \\      /  F ield         | OpenFOAM: The Open Source CFD Toolbox           |
|  \\    /   O peration     | Version:  5.x                                   |
|   \\  /    A nd           | Web:      www.OpenFOAM.org                      |
|    \\/     M anipulation  |                                                 |
\*---------------------------------------------------------------------------*/
FoamFile
{
    version     2.0;
    format      ascii;
    class       volVectorField;
    location    "3";
    object      Us;
}
// * * * * * * * * * * * * * * * * * * * * * * * * * * * * * * * * * * * * * //

dimensions      [0 1 -1 0 0 0 0];

internalField   nonuniform List<vector> 
10571
(
(0.133084 0.0362811 -0.0321143)
(0.0184448 0.033567 0.038107)
(0.0360841 0.237234 0.00460034)
(0.154658 0.299759 0.0776196)
(0.127021 0.241529 0.0609691)
(0.175284 0.164773 0.0192279)
(0.263051 0.461431 0.200693)
(0.167828 0.622904 0.214192)
(0.0239728 0.407848 0.311736)
(0.0391215 0.205568 0.0351355)
(0.0338507 0.171411 -0.0471803)
(0.257561 0.206765 0.151394)
(0.465644 0.173263 0.27101)
(0.234359 0.547204 0.220845)
(-0.283172 0.223697 0.326417)
(-0.0700641 0.0800013 0.0433645)
(0.201943 0.140048 0.0457826)
(0.350865 0.163248 0.180213)
(-0.0107064 0.227209 0.231575)
(-0.237898 0.159395 0.0995801)
(-0.0480909 0.0104381 -0.144222)
(0.26302 0.162956 0.12884)
(-0.0904093 0.186121 0.193077)
(-0.142596 0.0887591 0.043729)
(0.106747 0.0394501 -0.277056)
(-0.00661124 0.0733186 -0.116079)
(0.120713 0.188874 -0.191258)
(0.12456 0.171003 -0.00295699)
(0.11323 0.194248 -0.0952954)
(0.152088 0.187392 -0.12551)
(0.245667 0.354698 0.37123)
(0.048004 0.392529 0.454671)
(0.0283069 0.228995 0.379055)
(0.0214585 0.109845 -0.359187)
(0.0340654 0.106683 -0.176064)
(0.150663 0.196356 0.122555)
(0.321416 0.364945 0.509127)
(0.0859785 0.481794 0.447473)
(0.0165947 0.122252 0.302777)
(0.0113486 0.110757 -0.227603)
(-0.0306729 0.0482617 0.0647296)
(-0.00735774 0.318727 0.356549)
(0.151753 0.323006 0.177363)
(0.0877269 0.0461323 0.0382931)
(-0.00594754 -0.00566639 -0.367098)
(-0.108396 0.110869 -0.0464192)
(0.0132416 0.127003 -0.108801)
(0.038224 -0.00718781 -0.188955)
(-0.00801346 -0.00617309 -0.661031)
(-0.0153979 0.0686942 -0.333173)
(0.062673 0.0651382 -0.423081)
(-0.0476314 -0.0282154 -0.24986)
(0.0688311 0.0538739 -0.558581)
(-0.0338557 0.0774682 -0.375272)
(0.119032 0.184956 0.338847)
(0.042325 0.258055 0.401966)
(0.0162763 0.062178 0.0941406)
(-0.00822285 0.0983742 -0.426698)
(0.000636706 0.00705674 -0.613449)
(0.00132005 0.052933 -0.193236)
(0.195934 0.213558 0.418065)
(0.167178 0.359941 0.414559)
(0.156011 0.215469 0.252817)
(-0.0112531 0.108122 -0.314448)
(0.00721081 -7.46782e-05 -0.325748)
(0.0306649 0.142241 0.160313)
(0.237034 0.425272 0.3628)
(0.227118 0.215554 0.164749)
(-0.031925 0.072036 -0.32217)
(-0.0642522 -0.0093808 -0.086963)
(0.0360484 0.0817446 -0.0574116)
(0.0470895 0.0101174 -0.132338)
(0.014109 -0.00195151 -0.599335)
(-0.0333898 0.033333 -0.501617)
(-0.0607784 -0.0194107 -0.371726)
(-0.041053 -0.077957 -0.340945)
(0.0694498 -0.00178623 -0.369383)
(-0.0759347 0.0454554 -0.302199)
(-0.0642828 -0.0125895 0.183808)
(-0.010551 0.0458232 0.182723)
(0.0600464 0.0687017 -0.0541478)
(0.00283624 0.0800818 -0.326995)
(0.00641791 0.0153467 -0.565112)
(-0.0188283 0.0147933 -0.0758359)
(-0.0273595 -0.00739908 0.182708)
(0.022398 0.0723456 0.26527)
(0.104274 0.139831 -0.0482567)
(0.0287114 0.112691 -0.26337)
(0.0179273 0.00991054 -0.279024)
(-0.00866823 -0.0146453 -0.00878246)
(0.037678 0.0670105 0.0560214)
(-0.0292688 -0.0817319 0.0022678)
(-0.0467565 0.075084 -0.238236)
(-0.0161866 -0.014618 -0.228271)
(0.0643202 0.0208642 0.0193902)
(0.0273971 0.0242657 -0.107801)
(0.0679669 -0.0271369 -0.59753)
(-0.0251663 0.0105226 -0.519152)
(-0.0553544 -0.0339199 -0.36931)
(0.0465676 -0.0288635 -0.460885)
(0.118042 -0.0860777 -0.242269)
(-0.101522 0.0145871 -0.177958)
(-0.105003 0.031475 -0.0525947)
(0.0216411 0.046866 -0.187557)
(0.118146 0.071025 -0.181472)
(0.0455168 0.0713652 -0.197545)
(0.0121922 0.0262807 -0.476435)
(-0.0445397 0.0128661 0.0260607)
(-0.0662272 0.0664433 -0.0442754)
(0.0187687 0.11416 -0.133788)
(0.130795 0.133735 -0.0725665)
(0.0601506 0.114236 -0.215777)
(0.0113491 0.0274862 -0.193903)
(-0.0323508 0.0283459 0.0421873)
(0.0369452 0.0929292 0.0759283)
(-0.187938 -0.200001 -0.0472172)
(-0.00927447 0.0492155 -0.0734343)
(0.0190682 0.0216511 -0.231232)
(0.0789743 0.0155068 0.0664454)
(0.0259967 0.0218723 -0.0627823)
(0.0972144 -0.0454144 -0.532486)
(0.00110802 -0.00876814 -0.495025)
(0.0181665 -0.0463868 -0.452128)
(0.122284 -0.080961 -0.490293)
(0.201152 -0.0584858 -0.495615)
(-0.157671 0.0110365 -0.0349549)
(-0.0836901 0.0400366 -0.128423)
(0.0727391 0.0414966 -0.271742)
(0.137253 0.0399027 -0.231026)
(0.150182 0.0614553 -0.0999685)
(-0.00570022 0.00191083 -0.00182143)
(0.00564649 0.0475252 -0.407652)
(-0.120151 0.0191829 0.0559351)
(-0.0732213 0.106431 -0.0207599)
(0.065574 0.122238 -0.0898613)
(0.145479 0.133631 0.0353885)
(-0.0248231 -0.0233189 -0.138539)
(-0.00691684 -0.00282628 -0.00296022)
(0.0308725 0.0182288 -0.171548)
(-0.0459843 0.058068 0.0756742)
(0.0531162 0.13905 0.0820429)
(0.141296 0.193525 0.139852)
(0.0635049 -0.0595473 -0.00473152)
(0.0190991 0.048861 -0.15951)
(0.0859712 0.0360763 0.0942753)
(0.0620043 0.100979 0.017523)
(0 0 0)
(0.00254446 -0.0321712 -0.447445)
(0.025634 -0.0935157 -0.401063)
(0.137503 -0.0733588 -0.413089)
(0 0 0)
(-0.190385 0.013968 -0.0246505)
(0.0112315 -0.0106289 -0.238499)
(0.15149 -0.00276975 -0.377785)
(0.16513 0.0100096 -0.476537)
(0 0 0)
(0 0 0)
(0.0143115 0.0470908 -0.320708)
(-0.203825 0.114429 0.113137)
(-0.0207918 0.08391 0.0789117)
(0.133349 0.0577606 -0.103933)
(0.187228 0.00135161 0.000389484)
(0 0 0)
(0 0 0)
(0.0487884 -0.00143795 -0.173976)
(-0.0421774 0.111158 0.0934313)
(0.08518 0.0970732 0.0704333)
(0.213587 0.135225 0.0928974)
(0.110348 -0.0824967 0.126174)
(0 0 0)
(0.0296418 0.0635331 -0.0951776)
(0.0997368 0.0345179 0.121212)
(0.0555429 0.0600735 0.0860135)
(0 0 0)
(0.0086053 -0.0900443 -0.262331)
(0.0548708 -0.0424264 -0.57026)
(0 0 0)
(0 0 0)
(-0.0846871 -0.00701016 -0.163291)
(0.0582172 -0.0341358 -0.256432)
(0.128529 -0.012928 -0.354856)
(0 0 0)
(0 0 0)
(0 0 0)
(-0.0182435 0.0541687 -0.172668)
(-0.1406 0.0624328 0.181616)
(0.0292115 0.0720423 0.0846655)
(0.147737 0.045074 -0.0454994)
(0.165191 -0.0728878 0.104984)
(0.165431 -0.0987014 0.0405549)
(0 0 0)
(0.0620241 -0.0281868 -0.0611108)
(-0.00175457 0.157667 0.0741808)
(0.120256 0.0598166 0.0478177)
(0.158316 -0.0466604 0.126277)
(0.168231 -0.118077 0.114466)
(0 0 0)
(0.0391296 0.12374 -0.0273071)
(0.120236 0.0696351 0.0970084)
(0.0789932 -0.0653201 0.368391)
(0 0 0)
(-0.0232516 -0.00316839 -0.815375)
(0.083746 0.0171431 -0.834455)
(0 0 0)
(0 0 0)
(-0.0644987 -0.0639458 -0.0625879)
(0.0912023 -0.0323424 -0.217385)
(0 0 0)
(0.20577 -0.259736 0.252043)
(0 0 0)
(0 0 0)
(-0.0739437 0.0155698 -0.094814)
(-0.0805724 0.0312511 0.110077)
(0.0707625 0.0696911 0.0821994)
(0.144158 0.0508365 0.00145851)
(0.139778 -0.110372 0.121349)
(0 0 0)
(0 0 0)
(-0.0842951 0.0972554 0.0836449)
(0.0541156 0.145138 0.0619801)
(0.108245 0.0131904 0.105925)
(0.106634 -0.0795119 0.186262)
(0.15595 -0.124626 0.149529)
(0.0755219 0.122865 -0.0383827)
(0.144007 0.0339717 0.0638661)
(0.0403999 -0.0564099 0.46826)
(0 0 0)
(0.0597067 -0.0508745 -0.733001)
(-6.97362e-15 -2.24728e-15 8.71586e-14)
(0 0 0)
(0 0 0)
(-0.0446973 -0.0686121 -0.288501)
(0.10837 -0.0488252 -0.388548)
(0 0 0)
(0 0 0)
(0 0 0)
(-0.00499766 0.024061 -0.0685127)
(-0.134568 0.0330439 0.194511)
(0.0820096 0.0906854 0.150142)
(0.0867079 -0.106613 -0.0541722)
(0.144398 -0.0656556 0.0825595)
(0.17616 0.0109616 -0.00156463)
(-0.10619 0.116007 0.156663)
(0.0177531 0.0442657 0.05357)
(0.0566176 -0.0797626 0.230037)
(0.0874536 -0.107494 0.283697)
(0.0912947 -0.156662 0.2421)
(-0.0151695 0.0455924 -0.11131)
(0.0756984 0.0614677 0.430231)
(-0.000899623 -0.0924672 0.453958)
(0 0 0)
(0 0 0)
(0 0 0)
(0 0 0)
(0 0 0)
(0.0537084 -0.0402896 -0.624973)
(0.0996678 0.0200618 -0.691548)
(0 0 0)
(-0.0448544 -0.153716 -0.111736)
(0 0 0)
(0.0785689 -0.0794531 -0.0850504)
(-0.0126451 -0.0233381 -0.326725)
(0 0 0)
(0.0432118 -0.155625 0.163795)
(0.093856 -0.0764333 0.0243139)
(0.0222463 -0.0608241 0.0132017)
(-0.012379 -0.00707305 -0.189586)
(0.0144256 -0.0307289 -0.0478119)
(0.0212031 -0.0899058 0.302545)
(0.109711 0.0197209 -0.0403503)
(0.0935068 -0.167134 0.365817)
(-0.0999249 0.0462634 0.100759)
(0.0158292 -0.0202909 0.536869)
(0.0853063 -0.0295725 0.528614)
(0 0 0)
(0 0 0)
(0 0 0)
(0 0 0)
(0 0 0)
(0.0338304 -0.0118078 -0.622925)
(0.0901505 6.34537e-05 -0.642373)
(0 0 0)
(0 0 0)
(0 0 0)
(0.029053 -0.062413 -0.390444)
(1.74099e-15 1.61714e-15 4.76418e-14)
(0.0353552 -0.0162128 -0.380766)
(0.0609753 -0.103939 0.197744)
(0.0750192 -0.127705 0.279946)
(0 0 0)
(0.00385249 -0.0199557 -0.203025)
(0.0361498 -0.0758549 -0.0873479)
(0.0525818 -0.101716 0.279854)
(0.102724 -0.135174 0.344521)
(0.0668452 -0.156854 0.331979)
(0.0630863 0.0332466 -0.120422)
(0.0375714 0.0300554 0.615073)
(0.084801 -0.0350178 0.50825)
(0 0 0)
(0 0 0)
(0 0 0)
(0 0 0)
(0 0 0)
(0.0461565 -0.0202059 -0.573312)
(0.10904 0.00879521 -0.619592)
(0 0 0)
(0 0 0)
(0 0 0)
(-3.96047e-15 3.19886e-15 4.23544e-14)
(0.064012 -0.017717 -0.367174)
(-0.0500096 -0.204907 0.327894)
(0.0618885 -0.170079 0.370128)
(0.00227228 -0.102465 0.219177)
(1.17903e-14 2.6346e-14 -4.05908e-14)
(0.016682 -0.0197249 -0.226996)
(-0.00861243 -0.0882783 -0.0772071)
(0.0671048 -0.0856796 0.334262)
(0.0714082 -0.00996386 -0.0798067)
(0 0 0)
(0 0 0)
(0.0521469 0.0298213 0.662036)
(0.191542 -0.150856 0.505096)
(0 0 0)
(0 0 0)
(0 0 0)
(0 0 0)
(0 0 0)
(0.0597934 -0.00154165 -0.573062)
(0 0 0)
(0 0 0)
(0 0 0)
(0 0 0)
(0.0347934 -0.0414823 -0.368303)
(0 0 0)
(0 0 0)
(0.0312944 -0.215004 0.388223)
(0.00227228 -0.102465 0.219177)
(0 0 0)
(-0.00818686 -0.0108431 -0.128913)
(0.0392413 -0.0289651 -0.155192)
(0.0686748 -0.103123 0.311879)
(0.0695084 -0.00250565 -0.0161241)
(0.114571 0.0170735 0.127838)
(0 0 0)
(0.0310383 -0.0983693 0.247603)
(0 0 0)
(0 0 0)
(0 0 0)
(0 0 0)
(0 0 0)
(0 0 0)
(0.0668537 -0.00412458 -0.578392)
(0 0 0)
(0 0 0)
(0 0 0)
(0 0 0)
(0 0 0)
(0 0 0)
(0 0 0)
(-0.00978967 -0.112911 0.151389)
(0.120898 -0.123049 0.22972)
(0 0 0)
(0 0 0)
(-0.00389023 0.0519806 -0.192864)
(0.0505823 -0.0770293 0.344438)
(0.0861027 -0.12583 0.0774643)
(0 0 0)
(-0.00667705 0.0941692 -0.151335)
(0.0580338 -0.056016 0.487701)
(0.0142493 -0.0730191 0.272962)
(0 0 0)
(0 0 0)
(0 0 0)
(0 0 0)
(0 0 0)
(0 0 0)
(0 0 0)
(0 0 0)
(0 0 0)
(0 0 0)
(0 0 0)
(0 0 0)
(0 0 0)
(0 0 0)
(0.0492069 -0.134437 0.161007)
(0 0 0)
(0 0 0)
(0 0 0)
(0.0410065 -0.12615 0.459788)
(0 0 0)
(0 0 0)
(-0.206892 -0.151355 0.256068)
(0.263709 0.0154073 0.33323)
(0.222729 -0.0407301 0.561362)
(0 0 0)
(0 0 0)
(0 0 0)
(0 0 0)
(0 0 0)
(0 0 0)
(0 0 0)
(0 0 0)
(0 0 0)
(0 0 0)
(0 0 0)
(0 0 0)
(0 0 0)
(0.0315969 -0.293822 0.657058)
(0 0 0)
(0 0 0)
(0 0 0)
(0 0 0)
(0.0373656 -0.0968902 0.504336)
(0 0 0)
(0 0 0)
(0 0 0)
(-6.30075e-15 6.09664e-15 -9.38166e-14)
(0.110733 -0.16617 0.823924)
(0 0 0)
(0 0 0)
(0 0 0)
(0 0 0)
(0 0 0)
(0 0 0)
(0 0 0)
(0 0 0)
(0 0 0)
(0 0 0)
(0 0 0)
(0 0 0)
(0 0 0)
(0 0 0)
(0 0 0)
(0 0 0)
(0 0 0)
(0 0 0)
(0.0636502 -0.10226 0.385512)
(0 0 0)
(0 0 0)
(-0.191545 -0.085231 0.664328)
(0 0 0)
(0.0971699 -0.0406609 0.964669)
(0 0 0)
(0 0 0)
(0 0 0)
(0 0 0)
(0 0 0)
(0 0 0)
(0 0 0)
(0 0 0)
(0 0 0)
(0 0 0)
(0 0 0)
(0 0 0)
(0 0 0)
(0 0 0)
(0 0 0)
(0 0 0)
(0 0 0)
(0 0 0)
(0.0456946 0.0218842 0.17745)
(0 0 0)
(0 0 0)
(0 0 0)
(0.0510674 -0.0785153 0.295416)
(-1.66011e-14 1.26474e-14 -1.13346e-13)
(0 0 0)
(0 0 0)
(0 0 0)
(0 0 0)
(0 0 0)
(0 0 0)
(0 0 0)
(0 0 0)
(0 0 0)
(0 0 0)
(0 0 0)
(0 0 0)
(0 0 0)
(0 0 0)
(0 0 0)
(0 0 0)
(0 0 0)
(0 0 0)
(0 0 0)
(0 0 0)
(0 0 0)
(0 0 0)
(0.0344007 -0.0265225 1.04847)
(0.205841 -0.144761 0.944975)
(0 0 0)
(0 0 0)
(0 0 0)
(0 0 0)
(0 0 0)
(0 0 0)
(0 0 0)
(0 0 0)
(0 0 0)
(0 0 0)
(0 0 0)
(0 0 0)
(0 0 0)
(0 0 0)
(0 0 0)
(0 0 0)
(0 0 0)
(0 0 0)
(0 0 0)
(0 0 0)
(0 0 0)
(0 0 0)
(0.058014 -0.0111698 1.21326)
(0 0 0)
(0 0 0)
(0 0 0)
(0 0 0)
(0 0 0)
(0 0 0)
(0 0 0)
(0 0 0)
(0 0 0)
(0 0 0)
(0 0 0)
(0 0 0)
(0 0 0)
(0 0 0)
(0 0 0)
(0 0 0)
(0 0 0)
(0 0 0)
(0 0 0)
(0 0 0)
(0 0 0)
(0 0 0)
(0 0 0)
(0 0 0)
(0 0 0)
(0 0 0)
(0 0 0)
(0 0 0)
(0 0 0)
(0 0 0)
(0 0 0)
(0 0 0)
(0 0 0)
(0 0 0)
(0 0 0)
(0 0 0)
(0 0 0)
(0 0 0)
(0 0 0)
(0 0 0)
(0 0 0)
(0 0 0)
(0 0 0)
(0 0 0)
(0 0 0)
(0 0 0)
(0 0 0)
(0 0 0)
(0 0 0)
(0 0 0)
(0 0 0)
(0 0 0)
(0 0 0)
(0 0 0)
(0 0 0)
(0 0 0)
(0 0 0)
(0 0 0)
(0 0 0)
(0 0 0)
(0 0 0)
(0 0 0)
(0 0 0)
(0 0 0)
(0 0 0)
(0 0 0)
(0 0 0)
(0 0 0)
(0 0 0)
(0 0 0)
(0 0 0)
(0 0 0)
(0 0 0)
(0 0 0)
(0 0 0)
(0 0 0)
(0 0 0)
(0 0 0)
(0 0 0)
(0 0 0)
(0 0 0)
(0 0 0)
(0 0 0)
(0 0 0)
(0 0 0)
(0 0 0)
(0 0 0)
(0 0 0)
(0 0 0)
(0 0 0)
(0 0 0)
(0 0 0)
(0 0 0)
(0 0 0)
(0 0 0)
(0 0 0)
(0 0 0)
(0 0 0)
(0 0 0)
(0 0 0)
(0 0 0)
(0 0 0)
(0 0 0)
(0 0 0)
(0 0 0)
(0 0 0)
(0 0 0)
(0 0 0)
(0 0 0)
(0 0 0)
(0 0 0)
(0 0 0)
(0 0 0)
(0 0 0)
(0 0 0)
(0 0 0)
(0 0 0)
(0 0 0)
(0 0 0)
(0 0 0)
(0 0 0)
(0 0 0)
(0 0 0)
(0 0 0)
(0 0 0)
(0 0 0)
(0 0 0)
(0 0 0)
(0 0 0)
(0 0 0)
(0 0 0)
(0 0 0)
(0 0 0)
(0 0 0)
(0 0 0)
(0 0 0)
(0 0 0)
(0 0 0)
(0 0 0)
(0 0 0)
(0 0 0)
(0 0 0)
(0 0 0)
(0 0 0)
(0 0 0)
(0 0 0)
(0 0 0)
(0 0 0)
(0 0 0)
(0 0 0)
(0 0 0)
(0 0 0)
(0 0 0)
(0 0 0)
(0 0 0)
(0 0 0)
(0 0 0)
(0 0 0)
(0 0 0)
(0 0 0)
(0 0 0)
(0 0 0)
(0 0 0)
(0 0 0)
(0 0 0)
(0 0 0)
(0 0 0)
(0 0 0)
(0 0 0)
(0 0 0)
(0 0 0)
(0 0 0)
(0 0 0)
(0 0 0)
(0 0 0)
(0 0 0)
(0 0 0)
(0 0 0)
(0 0 0)
(0 0 0)
(0 0 0)
(0 0 0)
(0 0 0)
(0 0 0)
(0 0 0)
(0 0 0)
(0 0 0)
(0 0 0)
(0 0 0)
(0 0 0)
(0 0 0)
(0 0 0)
(0 0 0)
(0 0 0)
(0 0 0)
(0 0 0)
(0 0 0)
(0 0 0)
(0 0 0)
(0 0 0)
(0 0 0)
(0 0 0)
(0 0 0)
(0 0 0)
(0 0 0)
(0 0 0)
(0 0 0)
(0 0 0)
(0 0 0)
(0 0 0)
(0 0 0)
(0 0 0)
(0 0 0)
(0 0 0)
(0 0 0)
(0 0 0)
(0 0 0)
(0 0 0)
(0 0 0)
(0 0 0)
(0 0 0)
(0 0 0)
(0 0 0)
(0 0 0)
(0 0 0)
(0 0 0)
(0 0 0)
(0 0 0)
(0 0 0)
(0 0 0)
(0 0 0)
(0 0 0)
(0 0 0)
(0 0 0)
(0 0 0)
(0 0 0)
(0 0 0)
(0 0 0)
(0 0 0)
(0 0 0)
(0 0 0)
(0 0 0)
(0 0 0)
(0 0 0)
(0 0 0)
(0 0 0)
(0 0 0)
(0 0 0)
(0 0 0)
(0 0 0)
(0 0 0)
(0 0 0)
(0 0 0)
(0 0 0)
(0 0 0)
(0 0 0)
(0 0 0)
(0 0 0)
(0 0 0)
(0 0 0)
(0 0 0)
(0 0 0)
(0 0 0)
(0 0 0)
(0 0 0)
(0 0 0)
(0 0 0)
(0 0 0)
(0 0 0)
(0 0 0)
(0 0 0)
(0 0 0)
(0 0 0)
(0 0 0)
(0 0 0)
(0 0 0)
(0 0 0)
(0 0 0)
(0 0 0)
(0 0 0)
(0 0 0)
(0 0 0)
(0 0 0)
(0 0 0)
(0 0 0)
(0 0 0)
(0 0 0)
(0 0 0)
(0 0 0)
(0 0 0)
(0 0 0)
(0 0 0)
(0 0 0)
(0 0 0)
(0 0 0)
(0 0 0)
(0 0 0)
(0 0 0)
(0 0 0)
(0 0 0)
(0 0 0)
(0 0 0)
(0 0 0)
(0 0 0)
(0 0 0)
(0 0 0)
(0 0 0)
(0 0 0)
(0 0 0)
(0 0 0)
(0 0 0)
(0 0 0)
(0 0 0)
(0 0 0)
(0 0 0)
(0 0 0)
(0 0 0)
(0 0 0)
(0 0 0)
(0 0 0)
(0 0 0)
(0 0 0)
(0 0 0)
(0 0 0)
(0 0 0)
(0 0 0)
(0 0 0)
(0 0 0)
(0 0 0)
(0 0 0)
(0 0 0)
(0 0 0)
(0 0 0)
(0 0 0)
(0 0 0)
(0 0 0)
(0 0 0)
(0 0 0)
(0 0 0)
(0 0 0)
(0 0 0)
(0 0 0)
(0 0 0)
(0 0 0)
(0 0 0)
(0 0 0)
(0 0 0)
(0 0 0)
(0 0 0)
(0 0 0)
(0 0 0)
(0 0 0)
(0 0 0)
(0 0 0)
(0 0 0)
(0 0 0)
(0 0 0)
(0 0 0)
(0 0 0)
(0 0 0)
(0 0 0)
(0 0 0)
(0 0 0)
(0 0 0)
(0 0 0)
(0 0 0)
(0 0 0)
(0 0 0)
(0 0 0)
(0 0 0)
(0 0 0)
(0 0 0)
(0 0 0)
(0 0 0)
(0 0 0)
(0 0 0)
(0 0 0)
(0 0 0)
(0 0 0)
(0 0 0)
(0 0 0)
(0 0 0)
(0 0 0)
(0 0 0)
(0 0 0)
(0 0 0)
(0 0 0)
(0 0 0)
(0 0 0)
(0 0 0)
(0 0 0)
(0 0 0)
(0 0 0)
(0 0 0)
(0 0 0)
(0 0 0)
(0 0 0)
(0 0 0)
(0 0 0)
(0 0 0)
(0 0 0)
(0 0 0)
(0 0 0)
(0 0 0)
(0 0 0)
(0 0 0)
(0 0 0)
(0 0 0)
(0 0 0)
(0 0 0)
(0 0 0)
(0 0 0)
(0 0 0)
(0 0 0)
(0 0 0)
(0 0 0)
(0 0 0)
(0 0 0)
(0 0 0)
(0 0 0)
(0 0 0)
(0 0 0)
(0 0 0)
(0 0 0)
(0 0 0)
(0 0 0)
(0 0 0)
(0 0 0)
(0 0 0)
(0 0 0)
(0 0 0)
(0 0 0)
(0 0 0)
(0 0 0)
(0 0 0)
(0 0 0)
(0 0 0)
(0 0 0)
(0 0 0)
(0 0 0)
(0 0 0)
(0 0 0)
(0 0 0)
(0 0 0)
(0 0 0)
(0 0 0)
(0 0 0)
(0 0 0)
(0 0 0)
(0 0 0)
(0 0 0)
(0 0 0)
(0 0 0)
(0 0 0)
(0 0 0)
(0 0 0)
(0 0 0)
(0 0 0)
(0 0 0)
(0 0 0)
(0 0 0)
(0 0 0)
(0 0 0)
(0 0 0)
(0 0 0)
(0 0 0)
(0 0 0)
(0 0 0)
(0 0 0)
(0 0 0)
(0 0 0)
(0 0 0)
(0 0 0)
(0 0 0)
(0 0 0)
(0 0 0)
(0 0 0)
(0 0 0)
(0 0 0)
(0 0 0)
(0 0 0)
(0 0 0)
(0 0 0)
(0 0 0)
(0 0 0)
(0 0 0)
(0 0 0)
(0 0 0)
(0 0 0)
(0 0 0)
(0 0 0)
(0 0 0)
(0 0 0)
(0 0 0)
(0 0 0)
(0 0 0)
(0 0 0)
(0 0 0)
(0 0 0)
(0 0 0)
(0 0 0)
(0 0 0)
(0 0 0)
(0 0 0)
(0 0 0)
(0 0 0)
(0 0 0)
(0 0 0)
(0 0 0)
(0 0 0)
(0 0 0)
(0 0 0)
(0 0 0)
(0 0 0)
(0 0 0)
(0 0 0)
(0 0 0)
(0 0 0)
(0 0 0)
(0 0 0)
(0 0 0)
(0 0 0)
(0 0 0)
(0 0 0)
(0 0 0)
(0 0 0)
(0 0 0)
(0 0 0)
(0 0 0)
(0 0 0)
(0 0 0)
(0 0 0)
(0 0 0)
(0 0 0)
(0 0 0)
(0 0 0)
(0 0 0)
(0 0 0)
(0 0 0)
(0 0 0)
(0 0 0)
(0 0 0)
(0 0 0)
(0 0 0)
(0 0 0)
(0 0 0)
(0 0 0)
(0 0 0)
(0 0 0)
(0 0 0)
(0 0 0)
(0 0 0)
(0 0 0)
(0 0 0)
(0 0 0)
(0 0 0)
(0 0 0)
(0 0 0)
(0 0 0)
(0 0 0)
(0 0 0)
(0 0 0)
(0 0 0)
(0 0 0)
(0 0 0)
(0 0 0)
(0 0 0)
(0 0 0)
(0 0 0)
(0 0 0)
(0 0 0)
(0 0 0)
(0 0 0)
(0 0 0)
(0 0 0)
(0 0 0)
(0 0 0)
(0 0 0)
(0 0 0)
(0 0 0)
(0 0 0)
(0 0 0)
(0 0 0)
(0 0 0)
(0 0 0)
(0 0 0)
(0 0 0)
(0 0 0)
(0 0 0)
(0 0 0)
(0 0 0)
(0 0 0)
(0 0 0)
(0 0 0)
(0 0 0)
(0 0 0)
(0 0 0)
(0 0 0)
(0 0 0)
(0 0 0)
(0 0 0)
(0 0 0)
(0 0 0)
(0 0 0)
(0 0 0)
(0 0 0)
(0 0 0)
(0 0 0)
(0 0 0)
(0 0 0)
(0 0 0)
(0 0 0)
(0 0 0)
(0 0 0)
(0 0 0)
(0 0 0)
(0 0 0)
(0 0 0)
(0 0 0)
(0 0 0)
(0 0 0)
(0 0 0)
(0 0 0)
(0 0 0)
(0 0 0)
(0 0 0)
(0 0 0)
(0 0 0)
(0 0 0)
(0 0 0)
(0 0 0)
(0 0 0)
(0 0 0)
(0 0 0)
(0 0 0)
(0 0 0)
(0 0 0)
(0 0 0)
(0 0 0)
(0 0 0)
(0 0 0)
(0 0 0)
(0 0 0)
(0 0 0)
(0 0 0)
(0 0 0)
(0 0 0)
(0 0 0)
(0 0 0)
(0 0 0)
(0 0 0)
(0 0 0)
(0 0 0)
(0 0 0)
(0 0 0)
(0 0 0)
(0 0 0)
(0 0 0)
(0 0 0)
(0 0 0)
(0 0 0)
(0 0 0)
(0 0 0)
(0 0 0)
(0 0 0)
(0 0 0)
(0 0 0)
(0 0 0)
(0 0 0)
(0 0 0)
(0 0 0)
(0 0 0)
(0 0 0)
(0 0 0)
(0 0 0)
(0 0 0)
(0 0 0)
(0 0 0)
(0 0 0)
(0 0 0)
(0 0 0)
(0 0 0)
(0 0 0)
(0 0 0)
(0 0 0)
(0 0 0)
(0 0 0)
(0 0 0)
(0 0 0)
(0 0 0)
(0 0 0)
(0 0 0)
(0 0 0)
(0 0 0)
(0 0 0)
(0 0 0)
(0 0 0)
(0 0 0)
(0 0 0)
(0 0 0)
(0 0 0)
(0 0 0)
(0 0 0)
(0 0 0)
(0 0 0)
(0 0 0)
(0 0 0)
(0 0 0)
(0 0 0)
(0 0 0)
(0 0 0)
(0 0 0)
(0 0 0)
(0 0 0)
(0 0 0)
(0 0 0)
(0 0 0)
(0 0 0)
(0 0 0)
(0 0 0)
(0 0 0)
(0 0 0)
(0 0 0)
(0 0 0)
(0 0 0)
(0 0 0)
(0 0 0)
(0 0 0)
(0 0 0)
(0 0 0)
(0 0 0)
(0 0 0)
(0 0 0)
(0 0 0)
(0 0 0)
(0 0 0)
(0 0 0)
(0 0 0)
(0 0 0)
(0 0 0)
(0 0 0)
(0 0 0)
(0 0 0)
(0 0 0)
(0 0 0)
(0 0 0)
(0 0 0)
(0 0 0)
(0 0 0)
(0 0 0)
(0 0 0)
(0 0 0)
(0 0 0)
(0 0 0)
(0 0 0)
(0 0 0)
(0 0 0)
(0 0 0)
(0 0 0)
(0 0 0)
(0 0 0)
(0 0 0)
(0 0 0)
(0 0 0)
(0 0 0)
(0 0 0)
(0 0 0)
(0 0 0)
(0 0 0)
(0 0 0)
(0 0 0)
(0 0 0)
(0 0 0)
(0 0 0)
(0 0 0)
(0 0 0)
(0 0 0)
(0 0 0)
(0 0 0)
(0 0 0)
(0 0 0)
(0 0 0)
(0 0 0)
(0 0 0)
(0 0 0)
(0 0 0)
(0 0 0)
(0 0 0)
(0 0 0)
(0 0 0)
(0 0 0)
(0 0 0)
(0 0 0)
(0 0 0)
(0 0 0)
(0 0 0)
(0 0 0)
(0 0 0)
(0 0 0)
(0 0 0)
(0 0 0)
(0 0 0)
(0 0 0)
(0 0 0)
(0 0 0)
(0 0 0)
(0 0 0)
(0 0 0)
(0 0 0)
(0 0 0)
(0 0 0)
(0 0 0)
(0 0 0)
(0 0 0)
(0 0 0)
(0 0 0)
(0 0 0)
(0 0 0)
(0 0 0)
(0 0 0)
(0 0 0)
(0 0 0)
(0 0 0)
(0 0 0)
(0 0 0)
(0 0 0)
(0 0 0)
(0 0 0)
(0 0 0)
(0 0 0)
(0 0 0)
(0 0 0)
(0 0 0)
(0 0 0)
(0 0 0)
(0 0 0)
(0 0 0)
(0 0 0)
(0 0 0)
(0 0 0)
(0 0 0)
(0 0 0)
(0 0 0)
(0 0 0)
(0 0 0)
(0 0 0)
(0 0 0)
(0 0 0)
(0 0 0)
(0 0 0)
(0 0 0)
(0 0 0)
(0 0 0)
(0 0 0)
(0 0 0)
(0 0 0)
(0 0 0)
(0 0 0)
(0 0 0)
(0 0 0)
(0 0 0)
(0 0 0)
(0 0 0)
(0 0 0)
(0 0 0)
(0 0 0)
(0 0 0)
(0 0 0)
(0 0 0)
(0 0 0)
(0 0 0)
(0 0 0)
(0 0 0)
(0 0 0)
(0 0 0)
(0 0 0)
(0 0 0)
(0 0 0)
(0 0 0)
(0 0 0)
(0 0 0)
(0 0 0)
(0 0 0)
(0 0 0)
(0 0 0)
(0 0 0)
(0 0 0)
(0 0 0)
(0 0 0)
(0 0 0)
(0 0 0)
(0 0 0)
(0 0 0)
(0 0 0)
(0 0 0)
(0 0 0)
(0 0 0)
(0 0 0)
(0 0 0)
(0 0 0)
(0 0 0)
(0 0 0)
(0 0 0)
(0 0 0)
(0 0 0)
(0 0 0)
(0 0 0)
(0 0 0)
(0 0 0)
(0 0 0)
(0 0 0)
(0 0 0)
(0 0 0)
(0 0 0)
(0 0 0)
(0 0 0)
(0 0 0)
(0 0 0)
(0 0 0)
(0 0 0)
(0 0 0)
(0 0 0)
(0 0 0)
(0 0 0)
(0 0 0)
(0 0 0)
(0 0 0)
(0 0 0)
(0 0 0)
(0 0 0)
(0 0 0)
(0 0 0)
(0 0 0)
(0 0 0)
(0 0 0)
(0 0 0)
(0 0 0)
(0 0 0)
(0 0 0)
(0 0 0)
(0 0 0)
(0 0 0)
(0 0 0)
(0 0 0)
(0 0 0)
(0 0 0)
(0 0 0)
(0 0 0)
(0 0 0)
(0 0 0)
(0 0 0)
(0 0 0)
(0 0 0)
(0 0 0)
(0 0 0)
(0 0 0)
(0 0 0)
(0 0 0)
(0 0 0)
(0 0 0)
(0 0 0)
(0 0 0)
(0 0 0)
(0 0 0)
(0 0 0)
(0 0 0)
(0 0 0)
(0 0 0)
(0 0 0)
(0 0 0)
(0 0 0)
(0 0 0)
(0 0 0)
(0 0 0)
(0 0 0)
(0 0 0)
(0 0 0)
(0 0 0)
(0 0 0)
(0 0 0)
(0 0 0)
(0 0 0)
(0 0 0)
(0 0 0)
(0 0 0)
(0 0 0)
(0 0 0)
(0 0 0)
(0 0 0)
(0 0 0)
(0 0 0)
(0 0 0)
(0 0 0)
(0 0 0)
(0 0 0)
(0 0 0)
(0 0 0)
(0 0 0)
(0 0 0)
(0 0 0)
(0 0 0)
(0 0 0)
(0 0 0)
(0 0 0)
(0 0 0)
(0 0 0)
(0 0 0)
(0 0 0)
(0 0 0)
(0 0 0)
(0 0 0)
(0 0 0)
(0 0 0)
(0 0 0)
(0 0 0)
(0 0 0)
(0 0 0)
(0 0 0)
(0 0 0)
(0 0 0)
(0 0 0)
(0 0 0)
(0 0 0)
(0 0 0)
(0 0 0)
(0 0 0)
(0 0 0)
(0 0 0)
(0 0 0)
(0 0 0)
(0 0 0)
(0 0 0)
(0 0 0)
(0 0 0)
(0 0 0)
(0 0 0)
(0 0 0)
(0 0 0)
(0 0 0)
(0 0 0)
(0 0 0)
(0 0 0)
(0 0 0)
(0 0 0)
(0 0 0)
(0 0 0)
(0 0 0)
(0 0 0)
(0 0 0)
(0 0 0)
(0 0 0)
(0 0 0)
(0 0 0)
(0 0 0)
(0 0 0)
(0 0 0)
(0 0 0)
(0 0 0)
(0 0 0)
(0 0 0)
(0 0 0)
(0 0 0)
(0 0 0)
(0 0 0)
(0 0 0)
(0 0 0)
(0 0 0)
(0 0 0)
(0 0 0)
(0 0 0)
(0 0 0)
(0 0 0)
(0 0 0)
(0 0 0)
(0 0 0)
(0 0 0)
(0 0 0)
(0 0 0)
(0 0 0)
(0 0 0)
(0 0 0)
(0 0 0)
(0 0 0)
(0 0 0)
(0 0 0)
(0 0 0)
(0 0 0)
(0 0 0)
(0 0 0)
(0 0 0)
(0 0 0)
(0 0 0)
(0 0 0)
(0 0 0)
(0 0 0)
(0 0 0)
(0 0 0)
(0 0 0)
(0 0 0)
(0 0 0)
(0 0 0)
(0 0 0)
(0 0 0)
(0 0 0)
(0 0 0)
(0 0 0)
(0 0 0)
(0 0 0)
(0 0 0)
(0 0 0)
(0 0 0)
(0 0 0)
(0 0 0)
(0 0 0)
(0 0 0)
(0 0 0)
(0 0 0)
(0 0 0)
(0 0 0)
(0 0 0)
(0 0 0)
(0 0 0)
(0 0 0)
(0 0 0)
(0 0 0)
(0 0 0)
(0 0 0)
(0 0 0)
(0 0 0)
(0 0 0)
(0 0 0)
(0 0 0)
(0 0 0)
(0 0 0)
(0 0 0)
(0 0 0)
(0 0 0)
(0 0 0)
(0 0 0)
(0 0 0)
(0 0 0)
(0 0 0)
(0 0 0)
(0 0 0)
(0 0 0)
(0 0 0)
(0 0 0)
(0 0 0)
(0 0 0)
(0 0 0)
(0 0 0)
(0 0 0)
(0 0 0)
(0 0 0)
(0 0 0)
(0 0 0)
(0 0 0)
(0 0 0)
(0 0 0)
(0 0 0)
(0 0 0)
(0 0 0)
(0 0 0)
(0 0 0)
(0 0 0)
(0 0 0)
(0 0 0)
(0 0 0)
(0 0 0)
(0 0 0)
(0 0 0)
(0 0 0)
(0 0 0)
(0 0 0)
(0 0 0)
(0 0 0)
(0 0 0)
(0 0 0)
(0 0 0)
(0 0 0)
(0 0 0)
(0 0 0)
(0 0 0)
(0 0 0)
(0 0 0)
(0 0 0)
(0 0 0)
(0 0 0)
(0 0 0)
(0 0 0)
(0 0 0)
(0 0 0)
(0 0 0)
(0 0 0)
(0 0 0)
(0 0 0)
(0 0 0)
(0 0 0)
(0 0 0)
(0 0 0)
(0 0 0)
(0 0 0)
(0 0 0)
(0 0 0)
(0 0 0)
(0 0 0)
(0 0 0)
(0 0 0)
(0 0 0)
(0 0 0)
(0 0 0)
(0 0 0)
(0 0 0)
(0 0 0)
(0 0 0)
(0 0 0)
(0 0 0)
(0 0 0)
(0 0 0)
(0 0 0)
(0 0 0)
(0 0 0)
(0 0 0)
(0 0 0)
(0 0 0)
(0 0 0)
(0 0 0)
(0 0 0)
(0 0 0)
(0 0 0)
(0 0 0)
(0 0 0)
(0 0 0)
(0 0 0)
(0 0 0)
(0 0 0)
(0 0 0)
(0 0 0)
(0 0 0)
(0 0 0)
(0 0 0)
(0 0 0)
(0 0 0)
(0 0 0)
(0 0 0)
(0 0 0)
(0 0 0)
(0 0 0)
(0 0 0)
(0 0 0)
(0 0 0)
(0 0 0)
(0 0 0)
(0 0 0)
(0 0 0)
(0 0 0)
(0 0 0)
(0 0 0)
(0 0 0)
(0 0 0)
(0 0 0)
(0 0 0)
(0 0 0)
(0 0 0)
(0 0 0)
(0 0 0)
(0 0 0)
(0 0 0)
(0 0 0)
(0 0 0)
(0 0 0)
(0 0 0)
(0 0 0)
(0 0 0)
(0 0 0)
(0 0 0)
(0 0 0)
(0 0 0)
(0 0 0)
(0 0 0)
(0 0 0)
(0 0 0)
(0 0 0)
(0 0 0)
(0 0 0)
(0 0 0)
(0 0 0)
(0 0 0)
(0 0 0)
(0 0 0)
(0 0 0)
(0 0 0)
(0 0 0)
(0 0 0)
(0 0 0)
(0 0 0)
(0 0 0)
(0 0 0)
(0 0 0)
(0 0 0)
(0 0 0)
(0 0 0)
(0 0 0)
(0 0 0)
(0 0 0)
(0 0 0)
(-0.0600117 0.0735732 -0.0160495)
(0.0852428 0.0101124 -0.0291711)
(-0.0441141 0.145841 -0.040485)
(0.0740608 0.132306 -0.0441105)
(0.0810911 0.0375828 -0.016213)
(0.166532 0.119051 -6.80252e-05)
(0.136304 0.125484 0.0112166)
(0.0646904 0.0889714 0.0119419)
(0.031604 0.034817 -0.0258604)
(0.0085843 0.0373539 -0.0138983)
(-0.0661621 0.151957 -0.00814386)
(0.10975 0.0850459 -0.0156791)
(0.0725324 0.244453 0.0119508)
(-0.0404747 0.261012 -0.020737)
(0.0806054 0.275121 -0.0157538)
(0.0214208 0.413113 0.0300806)
(0.102571 0.459389 0.044469)
(0.164177 0.305011 0.0232082)
(0.181664 0.306738 0.0532744)
(0.162936 0.457668 0.0607977)
(0.159002 0.44884 0.0882971)
(0.140686 0.195678 0.0433947)
(0.0894082 0.130221 -0.00515548)
(0.121486 0.336231 0.109574)
(0.107524 0.190975 0.0512616)
(0.0470676 0.123977 0.0105394)
(0.0837097 0.0899687 -0.0222743)
(0.0336189 0.103625 -0.033741)
(0.136782 0.168887 -0.0209351)
(0.190756 0.165467 0.00168316)
(0.293632 0.262973 0.0232413)
(0.259054 0.23401 0.00674326)
(0.380087 0.328755 0.0573733)
(0.22116 0.466438 0.0475687)
(0.135497 0.606571 0.0798649)
(0.448515 0.378804 0.0570894)
(0.263668 0.416144 0.0713325)
(0.181635 0.599838 0.0934668)
(0.173212 0.625532 0.10731)
(0.204888 0.318593 0.0583858)
(-0.0527734 0.409019 0.101484)
(0.0518368 0.360161 0.154359)
(0.0232384 0.208582 0.12247)
(-0.0877378 0.39614 0.116396)
(-0.102245 0.20305 0.140965)
(0.013134 0.148996 0.0540632)
(-0.0301083 0.115939 0.106664)
(-0.0126028 0.0561993 0.030871)
(0.0484522 0.130243 -0.0262402)
(0.141989 0.2034 -0.00458042)
(0.101516 0.0479011 0.0437028)
(0.283593 0.266053 0.025481)
(0.43332 0.324776 0.0566605)
(0.201281 0.0152894 0.0776447)
(0.345356 -0.00570404 0.130762)
(0.441335 0.187122 0.0327356)
(0.219361 0.175978 0.0501395)
(0.438545 0.0504723 0.167798)
(0.196647 0.194151 0.0660047)
(0.169337 0.338483 0.0646794)
(0.0242612 0.485994 0.0669941)
(0.20133 0.341037 0.0616797)
(0.0216842 0.603937 0.0600941)
(-0.0858303 0.419894 0.0683597)
(-0.201932 0.0744332 0.188026)
(-0.313668 0.207558 0.136546)
(-0.255951 0.0948642 0.0905434)
(-0.0984398 0.0612633 0.0565891)
(-0.0402583 0.0444534 -0.0498795)
(-0.110802 0.0649432 0.00758351)
(0.0957559 0.0456272 -0.021842)
(0.209194 0.100603 0.0145429)
(0.326792 0.118122 0.097226)
(0.209687 0.13619 0.0116683)
(0.298363 0.199581 0.0819696)
(0.44248 0.133745 0.116561)
(0.290009 0.15449 0.0811942)
(0.418753 0.253539 0.133867)
(0.143847 0.15825 0.0695074)
(0.218298 0.143352 0.0664971)
(-0.274103 0.356903 0.135304)
(0.0487346 0.0601747 0.0700163)
(-0.292815 0.141144 0.0846578)
(-0.34948 0.166208 0.0821894)
(-0.221844 0.121052 -0.00345972)
(-0.245453 0.1463 0.0273215)
(-0.166741 0.126246 -0.020487)
(-0.0984698 0.0454131 -0.0414085)
(0.218197 0.146902 0.0376957)
(0.271098 0.139099 0.0842639)
(0.187875 0.0884246 0.0711906)
(0.105499 0.0479433 0.0424362)
(0.0385894 0.0886292 0.0493327)
(-0.106334 0.0528299 0.0359316)
(0.0553814 0.0374099 0.0435512)
(-0.127289 0.0668134 0.0218997)
(-0.0320438 0.0635573 -0.0141301)
(0.0132099 0.0317008 -0.0831019)
(0.0719349 0.0141059 -0.0814188)
(0.0119919 0.100771 -0.082915)
(0.0850674 0.11244 -0.0924374)
(0.0893915 0.0129182 -0.191897)
(0.0714831 0.060308 -0.17848)
(0.128818 0.0999893 -0.201394)
(0.166851 0.153963 -0.0025908)
(0.177078 0.163048 0.0712899)
(0.129824 0.0435294 -0.146596)
(0.17088 0.154812 -0.0871022)
(0.147956 0.149843 0.0121943)
(0.1181 0.116747 -0.0200252)
(0.119198 0.108519 -0.1114)
(0.00744569 0.0331064 -0.0371733)
(0.00734398 0.0546179 -0.109474)
(0.00941792 0.148066 0.0720829)
(0.0911524 0.101297 0.0204199)
(0.151126 0.206866 0.125468)
(-0.00529695 0.0646573 -0.0199415)
(0.0553991 0.144952 -0.00507806)
(0.0764224 0.125441 -0.0363955)
(0.151596 0.247507 0.143557)
(0.101689 0.16707 -0.0559471)
(0.098681 0.355905 0.232742)
(0.0935859 0.256167 0.0705232)
(0.124765 0.255549 0.00385074)
(0.0818915 0.156642 -0.147216)
(0.127505 0.327224 0.252146)
(0.0635577 0.239392 0.0563685)
(0.07481 0.180454 -0.0201659)
(0.0440255 0.149391 -0.186208)
(0.0563041 0.0921158 -0.0521654)
(0.00914842 0.140295 -0.0533459)
(0.0820221 0.172219 -0.0438322)
(0.0439267 0.117083 -0.155805)
(0.0112016 0.142555 -0.133673)
(0.0780572 0.187061 -0.139138)
(-0.00813934 0.177585 0.133893)
(0.0129509 0.113957 0.0435912)
(0.0479654 0.187892 -0.0481295)
(0.02765 0.194195 0.155214)
(0.0338768 0.119213 -0.0619224)
(0.118461 0.212288 0.0111258)
(0.129469 0.176565 0.0351967)
(0.0307432 0.155065 -0.113347)
(0.118703 0.212037 -0.0497388)
(0.121646 0.182656 -0.0323957)
(-0.0176585 0.0865801 -0.124387)
(-0.0606511 0.00831845 -0.032232)
(-0.0161408 0.118357 0.00895843)
(-0.0181323 0.0973772 -0.391743)
(-0.0264985 0.0130968 -0.151865)
(0.116625 0.147465 -0.0398242)
(0.0946452 0.124424 -0.0907349)
(0.254872 0.126475 0.12788)
(0.186591 0.141477 -0.00723759)
(0.255976 0.181453 0.0582445)
(0.11265 0.108885 0.0484047)
(0.146764 0.129935 0.0954282)
(0.0762209 0.0724726 -0.0630035)
(0.126371 0.139055 0.0473008)
(-0.136366 0.0628387 -0.0912887)
(-0.187937 0.14204 0.0591864)
(-0.114366 0.103046 -0.0494712)
(-0.0565313 0.140686 0.144686)
(-0.0290285 -0.025041 -0.211243)
(0.0794781 -0.0061745 -0.119021)
(0.0520742 -0.0312478 -0.220062)
(-0.00701069 -0.0266731 -0.25475)
(0.197313 0.13008 0.0478177)
(0.00872485 0.0872105 -0.0216127)
(0.268293 0.19182 0.199036)
(0.0674112 0.107155 0.158898)
(0.0269362 0.161562 0.0723997)
(0.0278167 0.213254 0.246319)
(-0.176139 0.168946 0.255513)
(-0.205283 0.116898 0.0946726)
(-0.0441458 0.118571 0.199407)
(-0.106959 0.168963 0.0880936)
(-0.00641591 0.08517 -0.0931344)
(-0.168195 0.147 0.137969)
(0.0379552 -0.0129292 -0.188409)
(0.0173033 0.0303149 -0.206153)
(0.0336572 0.0164936 -0.323052)
(0.0970348 0.0233495 -0.302372)
(0.0911687 0.0540645 -0.295212)
(0.136203 0.0851782 -0.297051)
(0.0599848 0.0172445 -0.431571)
(0.0881137 0.0415296 -0.40056)
(0.109042 0.0544088 -0.400804)
(0.122735 0.115376 -0.175225)
(0.0847166 0.104633 -0.0787261)
(0.0463333 0.0170615 -0.547185)
(0.0162803 0.00452945 -0.510895)
(0.0406264 0.00544236 -0.568384)
(0.0878225 0.0927259 -0.28124)
(0.0635363 0.0338782 -0.65597)
(0.00438489 0.0764452 -0.225668)
(-0.0156039 0.0973172 -0.332206)
(0.0542602 0.13642 -0.127907)
(0.0799494 0.150553 -0.122656)
(0.156067 0.266341 0.0947362)
(-0.00703992 0.074685 -0.22748)
(0.0490172 0.110294 -0.252956)
(0.0445415 0.153704 -0.232134)
(0.103461 0.220883 0.0317777)
(0.0702698 0.101831 -0.47058)
(0.131824 0.240295 0.272396)
(0.0755583 0.143922 -0.110828)
(0.0646092 0.0556665 -0.61064)
(0.0609073 0.0598387 -0.609488)
(0.0200652 0.0402237 0.0547499)
(0.0535181 0.0888594 -0.516685)
(0.0454212 0.104331 -0.58393)
(0.0567689 0.110786 -0.561946)
(0.0381916 0.135394 -0.270865)
(0.0130584 0.118632 -0.212514)
(0.0658877 0.165485 -0.22654)
(0.0157937 0.135671 -0.359937)
(0.0115655 0.0815266 -0.331329)
(0.0182211 0.125854 -0.315837)
(0.0480838 0.149558 -0.0884274)
(-0.0125256 0.113758 -0.419504)
(0.00507767 0.100267 -0.451525)
(-0.0136116 0.11822 -0.323938)
(-0.00628217 0.111744 -0.426455)
(0.10477 0.161108 -0.112883)
(0.106438 0.12969 -0.128385)
(0.0263863 0.0584715 -0.424677)
(0.0364172 0.055705 -0.420089)
(0.0218201 0.0361587 -0.523534)
(-0.0141599 0.0871863 -0.489065)
(-0.0321195 0.110753 -0.372236)
(-0.0297214 0.112025 -0.34421)
(-0.019504 0.0791073 -0.458757)
(-0.0533996 0.115475 -0.407742)
(0.0691993 0.0851321 -0.231294)
(0.0154905 0.0279734 -0.553006)