/*--------------------------------*- C++ -*----------------------------------*\
| =========                 |                                                 |
| \\      /  F ield         | OpenFOAM: The Open Source CFD Toolbox           |
|  \\    /   O peration     | Version:  5.x                                   |
|   \\  /    A nd           | Web:      www.OpenFOAM.org                      |
|    \\/     M anipulation  |                                                 |
\*---------------------------------------------------------------------------*/
FoamFile
{
    version     2.0;
    format      ascii;
    class       volScalarField;
    location    "2";
    object      p;
}
// * * * * * * * * * * * * * * * * * * * * * * * * * * * * * * * * * * * * * //

dimensions      [0 2 -2 0 0 0 0];

internalField   nonuniform List<scalar> 
10571
(
333.302
230.593
222.951
304.334
328.321
230.951
227.747
251.918
309.399
340.679
282.037
265.131
261.397
283.776
309.76
336.699
289.648
300.989
301.941
309.522
322.201
304.303
305.747
307.863
225.866
218.168
201.83
201.977
247.085
214.196
199.904
205.697
184.431
175.222
233.573
234.566
215.844
228.775
195.519
238.023
275.625
270.863
280.908
284.943
262.609
299.24
301.389
303.313
158.101
76.1579
162.866
193.91
174.794
150.809
179.381
177.977
124.11
134.698
143.977
165.331
144.297
135.956
68.6592
97.546
159.493
75.5368
80.6765
94.98
104.259
181.726
199.276
186.766
64.5887
59.8644
57.409
103.093
95.5343
56.6024
101.948
108.075
71.1602
103.746
43.3447
41.0249
49.0563
72.2435
53.1993
81.7827
40.4317
38.6832
41.0254
43.1651
55.5349
39.6175
39.3131
40.4756
46.8179
49.6435
40.0785
40.3329
42.8219
37.8823
35.1019
41.1573
41.2905
41.1324
40.645
40.6092
38.2873
40.7479
44.893
45.7742
40.4463
40.4568
40.559
41.8052
40.1219
40.4577
41.328
42.6968
42.6158
46.7826
37.2632
39.1106
39.5088
39.1479
39.691
39.5157
38.7502
40.1509
39.8795
40.1417
40.0918
40.0662
39.1374
38.1283
39.979
39.7983
40.2302
40.4263
40.2551
39.4024
40.0063
40.3767
40.4517
41.4273
39.9744
43.694
39.2242
38.989
39.3218
38.701
41.3649
40.5196
40.1587
39.8825
39.8106
39.9472
40.0617
39.9753
40.215
40.1169
39.819
39.7639
40.1513
40.103
40.0853
40.1264
39.8756
39.7042
40.3345
40.299
40.6921
38.6113
37.3818
37.5326
38.768
39.0966
38.9626
40.1964
40.0013
39.8545
39.7904
39.8018
39.7542
39.7343
39.8508
39.7797
39.9577
39.6404
39.626
40.0221
39.9906
39.8334
40.034
40.0523
39.5755
40.1958
40.0268
40.3464
38.6647
38.584
38.4903
38.7122
38.9034
38.9555
39.6088
39.6306
39.7108
39.7173
39.8001
39.6277
39.6719
39.8021
39.7899
39.8228
39.6536
39.739
39.9383
39.9179
39.7031
39.9028
40.0214
40.0999
39.8759
40.0638
38.7733
38.502
38.5486
38.7619
38.8879
38.9507
39.5696
39.5368
39.6511
39.5786
39.6354
39.6167
39.7622
39.766
39.757
39.6912
39.8856
39.8567
39.6248
39.813
39.7589
40.0523
39.8886
39.8649
38.9503
38.6668
38.7514
38.9099
39.0196
39.02
39.6044
39.5874
39.6027
39.5972
39.7135
39.6269
39.7795
39.758
39.6891
39.6665
39.9143
39.8273
39.591
39.7059
39.7816
40.013
39.8937
39.7441
39.159
38.9139
38.9039
39.0772
39.2184
39.235
39.6286
39.6584
39.6102
39.6456
39.8385
39.719
39.7837
39.7711
39.6385
39.7011
40.029
39.8336
39.5822
39.6173
39.6986
40.0037
39.9667
39.6616
39.3539
39.2109
39.01
39.2
39.4149
39.5028
39.7035
39.7
39.6468
39.6654
39.8914
39.7473
39.7933
39.7716
39.614
39.7054
40.0926
39.8897
39.6817
39.5675
39.6491
40.0158
40.0074
39.7057
39.5156
39.4929
39.1112
39.3337
39.578
39.7298
39.7325
39.6763
39.6861
39.6866
39.9622
39.8986
39.8055
39.7422
39.6245
39.7044
40.042
39.8733
39.7538
39.5937
39.6413
39.9619
39.9504
39.8026
39.6764
39.8078
39.3992
39.5052
39.7085
39.887
39.7664
39.6423
39.7011
39.7127
39.9775
39.9533
39.7385
39.6732
39.638
39.7053
39.8658
39.8007
39.7596
39.7425
39.6948
39.8806
39.8952
39.9137
39.8091
39.9068
39.6941
39.6834
39.7913
39.882
39.726
39.6115
39.6911
39.7285
39.8199
39.7712
39.6664
39.5855
39.6283
39.7046
39.6981
39.7224
39.704
39.7749
39.712
39.801
39.8142
39.8117
39.8627
39.8234
39.7446
39.7598
39.8269
39.7854
39.6383
39.6123
39.7011
39.7384
39.7753
39.7038
39.628
39.5402
39.6029
39.7152
39.6835
39.6922
39.6669
39.6705
39.703
39.7513
39.7484
39.7318
39.8643
39.748
39.6949
39.7888
39.8494
39.7344
39.5734
39.6998
39.7483
39.765
39.8469
39.8025
39.6452
39.5898
39.6355
39.7497
39.7282
39.7202
39.6711
39.6411
39.6936
39.7424
39.7193
39.702
39.8708
39.7202
39.7197
39.8355
39.8919
39.7307
39.5981
39.8338
39.7499
39.821
39.8591
39.8411
39.7073
39.72
39.712
39.7895
39.7717
39.7485
39.7033
39.6887
39.7223
39.7614
39.7253
39.724
39.9184
39.7426
39.7696
39.9051
39.9547
39.7237
39.6815
39.9411
39.7868
39.9073
39.8404
39.7936
39.7938
39.8559
39.8025
39.8386
39.7721
39.7529
39.74
39.7382
39.7825
39.7779
39.7553
39.764
39.9777
39.7912
39.835
39.9843
40.0028
39.7178
39.8247
40.0396
39.8636
39.9596
39.8099
39.7471
39.8266
39.923
39.8571
39.8868
39.7386
39.7477
39.7852
39.7846
39.8459
39.7606
39.8084
39.8179
40.0203
39.8667
39.895
40.0364
40.0221
39.7506
39.885
40.0442
39.9094
39.9667
39.8205
39.7225
39.7931
39.9121
39.8748
39.8956
39.7158
39.7294
39.8375
39.8482
39.9035
39.7185
39.8873
39.8878
39.9816
39.924
39.8919
39.9647
39.9848
39.8568
39.9298
39.9429
39.894
39.953
39.8728
39.7745
39.7258
39.9008
39.877
39.8889
39.7662
39.7165
39.9041
39.9334
39.9583
39.7007
39.9571
39.9577
39.8872
39.8805
39.8222
39.8032
39.9568
39.8867
39.94
39.8815
39.8747
39.9409
39.9504
39.8321
39.722
39.8936
39.8733
39.8787
39.8048
39.8068
39.9426
39.9974
39.9803
39.788
39.9901
40.0084
39.8237
39.8029
39.7791
39.6972
39.9339
39.8281
39.9068
39.86
39.8544
39.9252
39.9139
39.8345
39.7864
39.8785
39.8498
39.856
39.7303
39.8726
39.9483
40.02
39.9757
39.8916
39.9815
40.0197
39.8405
39.8266
39.8852
39.842
39.9146
39.8311
39.8716
39.8469
39.8205
39.8906
39.8922
39.8301
39.786
39.8483
39.8018
39.8187
39.777
39.8657
39.9171
39.9691
39.9449
39.9485
39.9423
39.9666
39.8582
39.8403
39.8133
39.871
39.8814
39.9263
39.8207
39.8091
39.7734
39.839
39.8865
39.8613
39.7759
39.8093
39.746
39.7734
39.9451
39.843
39.8508
39.8906
39.8894
39.9347
39.8757
39.8834
39.842
39.8055
39.7019
39.8162
39.8227
40.0044
39.748
39.7341
39.7146
39.7731
39.8424
39.8152
39.7428
39.7526
39.6986
39.7221
39.899
39.778
39.762
39.7997
39.8146
39.8286
39.7744
39.7848
39.7866
39.7835
39.6904
39.7612
39.7654
39.9284
39.67
39.6485
39.6588
39.6987
39.815
39.7885
39.6865
39.6817
39.6496
39.6705
39.7877
39.6587
39.657
39.6977
39.7315
39.6626
39.6421
39.6758
39.7159
39.6907
39.6647
39.6886
39.7025
39.697
39.5999
39.5607
39.6082
39.6304
39.711
39.7004
39.6137
39.6028
39.5946
39.6153
39.6676
39.502
39.5436
39.5927
39.6445
39.4772
39.5181
39.5737
39.6456
39.5562
39.6116
39.6129
39.6421
39.4515
39.5195
39.5156
39.5525
39.5665
39.5822
39.5612
39.5145
39.5266
39.5515
39.5599
39.5397
39.3346
39.4213
39.4965
39.5649
39.3261
39.4069
39.478
39.559
39.4216
39.5262
39.5405
39.5749
39.2182
39.4276
39.4798
39.469
39.4967
39.4353
39.4146
39.4032
39.4407
39.4925
39.5085
39.411
39.1914
39.2867
39.4162
39.5014
39.2193
39.3058
39.3908
39.4632
39.3054
39.4109
39.4534
39.5036
39.021
39.3022
39.4107
39.3955
39.4346
39.2937
39.2632
39.296
39.3285
39.3788
39.4347
39.3038
39.1021
39.1433
39.3395
39.4359
39.1684
39.2166
39.3064
39.367
39.2277
39.2872
39.3665
39.4362
38.983
39.1509
39.3407
39.3628
39.3814
39.2443
39.1522
39.2135
39.2175
39.2414
39.3361
39.2402
39.0553
39.0104
39.2545
39.354
39.1486
39.1551
39.2404
39.2895
39.2491
39.1683
39.2911
39.389
39.1832
39.0389
39.2684
39.2971
39.3311
39.3139
39.2394
39.1633
39.1315
39.1202
39.2454
39.228
39.0329
38.936
39.1559
39.2707
39.1396
39.1293
39.1857
39.2119
39.3795
39.0747
39.2006
39.321
39.6098
39.1103
39.1874
39.1614
39.2511
39.4083
39.3675
39.1293
39.0829
39.0429
39.1624
39.2376
39.0465
38.9858
39.0653
39.1978
39.1162
39.1165
39.1416
39.1813
39.5071
39.0555
39.1509
39.2556
39.7496
39.2408
39.0765
39.0185
39.1373
39.4325
39.4017
39.0941
39.0566
38.9804
39.086
39.2376
39.059
39.1073
39.0225
39.136
39.077
39.1073
39.1215
39.1692
39.6444
39.1297
39.142
39.213
39.6922
39.2304
39.0122
38.9095
39.0402
39.3916
39.353
39.0405
39.0212
38.9576
39.0268
39.2087
39.0231
39.1815
39.0322
39.0998
39.0555
39.1278
39.1196
39.1447
39.5408
39.1722
39.1499
39.1539
39.3605
39.1609
38.9744
38.884
38.9879
39.2808
39.2383
39.0017
38.9762
38.9754
38.9823
39.1512
38.9641
39.106
39.036
39.0692
39.0532
39.1085
39.0979
39.0927
39.294
39.0282
39.1333
39.1085
39.1557
39.0948
38.9829
39.0053
38.9136
39.1224
39.1074
38.9629
38.9223
39.0396
38.9154
39.074
38.9098
38.943
39.0134
39.021
39.0346
39.0248
39.0313
39.0154
39.0612
38.8207
39.0758
39.0775
38.9796
38.9766
38.9919
39.0643
38.8137
38.9388
38.9492
38.9231
38.8814
39.0738
38.8903
38.9822
38.8527
38.7759
38.9927
38.975
38.9967
38.9245
38.9582
38.864
38.7993
38.6464
38.9199
38.8662
38.7843
38.8127
38.914
38.9503
38.7589
38.7381
38.749
38.8588
38.8226
39.0574
38.896
38.8873
38.8116
38.6475
38.9459
38.94
38.9577
38.833
38.8919
38.5461
38.5055
38.4708
38.4084
38.5204
38.5477
38.5367
38.6492
38.7214
38.6733
38.5261
38.5117
38.7933
38.756
38.9769
38.8607
38.8122
38.8328
38.6377
38.943
38.9445
38.9487
38.7963
38.8846
38.3092
38.2597
38.2592
37.9216
38.0474
38.3418
38.2429
38.5516
38.3685
38.5992
38.4047
38.2997
38.7849
38.7594
38.9166
38.8432
38.7983
38.9261
38.7308
38.9185
39.0125
39.0034
38.8523
38.9566
38.4576
38.1626
38.1655
37.9351
38.2107
38.1987
38.2775
38.7823
38.1882
38.6201
38.4776
38.2448
38.8782
38.8787
38.955
38.9163
38.8696
39.0772
38.8641
38.9722
39.1124
39.139
39.0228
39.1192
39.2414
38.3537
38.4206
39.0119
38.8531
38.2568
38.4459
39.1196
38.4395
38.8555
38.7172
38.4717
39.0453
39.0714
39.078
39.0897
39.0178
39.2441
38.982
39.1258
39.2776
39.2948
39.247
39.3119
40.1702
38.7853
38.7065
39.6186
39.3621
38.4861
38.5125
39.2714
38.9707
39.2659
39.0506
38.8573
39.2045
39.2458
39.1985
39.3118
39.2142
39.3869
39.0622
39.2417
39.4359
39.4243
39.4382
39.4483
39.4114
39.2412
38.7436
39.129
39.9707
39.1357
38.7783
39.322
39.4091
39.6412
39.3912
39.2806
39.348
39.3702
39.2544
39.4919
39.388
39.4825
39.1331
39.2826
39.5036
39.5111
39.5466
39.5178
38.8028
39.8279
38.914
38.5908
40.1177
39.7005
39.2261
39.3665
39.5167
39.835
39.6091
39.5167
39.4512
39.4339
39.2182
39.5314
39.5
39.528
39.1783
39.2523
39.4751
39.5574
39.5876
39.5075
38.2988
39.523
39.2727
38.7311
39.7985
39.7498
39.5098
39.4574
39.417
39.8159
39.679
39.6052
39.5176
39.4317
39.0924
39.4591
39.5589
39.5452
39.1823
39.126
39.327
39.583
39.592
39.4299
39.4562
39.7458
40.0152
39.4217
39.6513
39.7604
39.6426
39.5053
39.2723
39.6673
39.6919
39.6463
39.5576
39.4113
39.0114
39.3279
39.5929
39.5607
39.2516
39.042
39.1543
39.5981
39.5961
39.4102
39.7788
39.9794
40.1267
39.6487
39.5676
39.7701
39.6469
39.5201
39.1664
39.4555
39.6854
39.6583
39.5862
39.4356
39.0938
39.2507
39.6083
39.5892
39.3998
39.2121
39.2042
39.604
39.6086
39.5759
39.7132
39.8966
39.9041
39.6433
39.4975
39.7367
39.6028
39.5421
39.1197
39.2864
39.6633
39.6417
39.6013
39.501
39.255
39.2704
39.6086
39.6082
39.5357
39.3882
39.3779
39.598
39.609
39.607
39.6025
39.7718
39.7373
39.5689
39.4069
39.6811
39.558
39.5801
39.184
39.2064
39.6359
39.6206
39.607
39.581
39.4089
39.3921
39.5991
39.6136
39.6617
39.5845
39.716
39.5888
39.617
39.6626
39.5522
39.6835
39.6453
39.5258
39.3686
39.6297
39.5245
39.5864
39.2751
39.2442
39.6127
39.6017
39.5979
39.6156
39.5941
39.5788
39.5914
39.5894
39.6762
39.7891
40.1906
39.5783
39.6123
39.6908
39.5451
39.6338
39.5986
39.5312
39.4483
39.5962
39.5075
39.5515
39.2906
39.3449
39.5988
39.5898
39.5677
39.5821
39.5094
39.5629
39.5875
39.5557
39.5774
39.6359
39.7823
39.571
39.5718
39.6093
39.5608
39.6175
39.5809
39.5413
39.6278
39.5815
39.5086
39.5176
39.235
39.3928
39.5952
39.5834
39.5364
39.4618
39.2932
39.3567
39.5854
39.526
39.47
39.404
39.3842
39.5648
39.506
39.479
39.5667
39.6314
39.5998
39.5255
39.745
39.5939
39.5267
39.489
39.1609
39.3469
39.605
39.5881
39.5135
39.3542
39.0629
39.0983
39.5848
39.5059
39.3818
39.2164
39.0905
39.5599
39.4401
39.3483
39.5515
39.6694
39.6418
39.48
39.5482
39.6296
39.5655
39.4012
38.9775
39.1629
39.6343
39.6117
39.5055
39.2804
38.8042
38.7531
39.5918
39.4996
39.308
39.0515
38.8254
39.5476
39.393
39.2285
39.5507
39.73
39.6698
39.4524
39.3232
39.6984
39.6145
39.2751
38.7078
38.6585
39.6838
39.6617
39.5171
39.1737
38.5084
38.1213
39.625
39.5216
39.2521
38.8955
38.5075
39.5519
39.3628
39.1255
39.5692
39.8121
39.7037
39.4521
39.167
39.7981
39.6712
39.1751
38.3613
37.4885
39.7496
39.7358
39.544
39.0303
38.062
36.6235
39.6857
39.5756
39.2063
38.6676
37.916
39.591
39.3655
39.039
39.5939
39.9241
39.7373
39.428
38.9324
39.9213
39.7751
39.0842
37.7921
35.3803
39.8256
39.8126
39.5829
38.879
37.3239
33.745
39.7669
39.6646
39.1877
38.3633
36.6517
39.6606
39.3878
38.9623
39.624
39.9468
39.753
39.4033
38.7195
39.951
39.8238
39.0052
37.1574
29.8155
39.8937
39.84
39.5969
38.6868
36.6716
30.5346
-12.889
39.8583
39.7936
39.1532
38.0471
34.0723
39.7677
39.4139
38.9124
39.5982
39.8587
39.6614
39.3564
38.6992
39.8533
39.5946
38.9151
36.9529
26.054
-0.621733
39.9279
39.7853
39.5183
38.5293
36.379
29.8901
2.56175
39.9863
39.9474
39.1193
37.7581
31.0673
39.9301
39.4426
38.9066
39.4981
39.7788
39.565
39.2894
38.8556
39.7308
39.276
38.8463
37.6435
30.279
9.69996
39.8297
39.7042
39.3136
38.3239
37.0149
30.4731
10.7699
40.1505
39.8751
38.9922
38.0028
33.2641
12.8414
40.0194
39.3686
38.9795
39.3893
39.5524
39.3779
39.1956
39.031
39.4977
38.9444
38.6254
38.2154
32.4366
12.6768
39.7411
39.5936
39.0311
37.8438
37.7697
32.5884
12.5188
40.1731
39.3676
38.6484
38.1458
36.4382
39.3013
39.2735
38.9961
39.2357
39.2134
39.0873
39.0348
39.1708
39.1238
38.5782
38.6676
38.6414
36.8227
39.4068
39.2013
38.5983
37.9747
38.2363
36.4199
1.60827
39.6437
38.9069
38.4751
38.2647
39.2398
38.8153
39.6457
38.9068
39.0458
38.9037
38.7852
38.8339
39.1081
38.7026
38.1904
38.6119
38.7976
39.2799
38.9676
38.7165
38.0111
37.9685
38.5455
39.7681
39.0726
38.3615
37.9132
38.2732
39.4046
38.9876
39.0828
38.4644
38.827
38.7088
38.524
38.6267
38.9387
38.4324
37.91
38.3063
38.6704
39.4329
38.6843
38.4158
37.6286
37.5024
38.4129
39.5804
38.7017
38.0821
37.0953
37.8074
38.9193
38.5006
37.9398
37.5721
38.6612
38.6027
38.3806
38.4573
38.7939
38.4183
37.8725
38.2538
38.6255
39.2761
38.6904
38.4614
37.8185
37.8459
38.4012
39.3005
38.6435
38.1768
37.4826
37.7954
38.6098
38.3965
37.8806
37.6852
38.594
38.6524
38.2837
38.3375
38.7506
38.6001
38.1639
38.3798
38.6865
39.2415
38.8804
38.7007
38.2218
38.2144
38.4888
39.1935
38.8341
38.5012
37.8423
37.9062
38.4996
38.6084
38.2153
37.7678
38.5444
38.7593
38.331
38.3148
38.8181
38.8116
38.4414
38.5763
38.9276
39.3715
39.1506
38.9896
38.5995
38.6267
38.8065
39.3543
39.1724
38.8586
38.2811
38.128
38.6777
38.9736
38.5983
37.9281
38.5681
38.7666
38.4399
38.4
39.0182
38.9154
38.6492
38.8922
39.2609
39.6941
39.401
39.2665
38.929
39.0306
39.2642
39.7484
39.533
39.2248
38.5588
38.5273
39.204
39.4151
38.9873
38.2268
38.6794
38.7446
38.5314
38.579
39.4121
38.9417
38.7872
38.86
39.3152
40.1264
39.6412
39.4257
39.1465
39.0387
39.5167
40.182
39.8885
39.5071
39.057
39.1282
40.0803
39.992
39.4741
38.8034
38.9128
38.8562
38.6848
38.8675
39.8439
39.0989
38.9016
39.0172
39.5221
40.3748
39.9698
39.5728
39.2094
39.1474
39.6314
40.4309
40.0892
39.6777
39.3324
39.6783
40.8844
40.2865
39.9187
39.4004
253.399
340.08
284.939
346.044
341.665
345.318
344.56
349.619
233.501
233.726
238.89
233.05
233.305
241.348
310.967
239.987
294.957
335.283
339.711
350.329
344.955
350.954
361.178
353.316
379.15
368.718
248.697
321.612
307.839
244.843
239.878
273.255
255.27
242.218
257.493
255.575
278.598
300.899
339.109
285.028
302.208
343.376
359.86
323.005
340.004
360.256
350.093
343.989
334.121
317.98
300.005
279.302
269.426
294.781
295.817
282.998
294.29
306.906
302.613
292.086
307.666
302.42
312
326.937
339.557
325.594
338.595
341.989
338.624
339.63
299.794
311.556
324.721
314.566
324.913
315.518
311.937
316.089
319.629
314.474
319.132
317.848
319.874
322.31
331.077
314.61
315.438
330.511
311.309
309.324
312.179
308.856
311.077
310.688
308.241
310.003
235.403
221.078
315.303
244.305
295.62
256.272
212.74
238.159
335.26
337.34
292.368
292.727
304.026
334.161
291.263
229.966
227.437
231.043
229.378
227.738
228.369
225.387
226.059
221.401
334.18
317.528
332.27
286.046
286.566
272.559
270.774
337.778
268.155
230.451
262.762
246.729
228.186
239.961
231.563
336.989
332.69
280.773
304.126
302.575
278.319
285.846
260.192
265.064
283.047
334.571
331.302
316.08
316.062
306.17
287.679
288.11
294.294
293.746
300.765
288.92
284.592
293.794
297.871
313.674
308.13
308.424
306.388
303.12
307.18
307.295
306.479
302.112
302.072
305.363
304.288
303.723
303.831
303.73
306.911
305.074
304.913
306.183
304.098
306.646
193.554
121.403
204.546
192.019
194.458
174.637
154.853
172.377
224.227
240.763
190.424
195.055
196.131
243.421
208.786
223.691
186.751
209.099
222.794
215.273
140.724
171.397
200.705
207.606
232.471
217.663
206.098
214.741
194.757
193.894
182.262
190.218
168.545
216.639
215.359
213.471
180.392
181.793
182.988
211.384
217.004
146.502
134.697
148.154
240.8
264.153
194.288
202.238
222.064
233.176
247.92
141.94
152.683
169.636
275.739
236.974
265.938
283.483
286.098
236.341
223.411
247.513
242.503
279.113
299.03
297.379
216.573
209.767
255.173
253.865
187.465
295.238
262.265
299.656
300.059
270.358
274.867
281.635
303.951
300.839
279.757
278.254
286.077
280.259
86.2605
74.0071
142.775
96.6322
141.578
105.617
73.8104
100.195
170.888
144.028
104.201
105.554
90.6491
169.319
120.519
93.1095
64.8947
91.555
94.826
177.124
62.5739
60.3454
57.5253
97.7577
166.953
181.716
168.298
137.911
137.316
161.136
144.511
152.063
132.993
123.431
138.331
139.794
78.2729
87.0942
82.6288
118.232
121.077
125.189
111.734
110.035
148.615
158.397
86.8653
79.1684
87.5262
105.706
102.043
87.3921
89.0684
84.506
165.594
87.359
152.694
164.955
157.601
71.1507
67.9871
67.8657
56.504
94.4473
151.216
143.139
45.859
54.6402
47.7846
58.1006
70.2867
170.7
59.5464
193.729
216.715
59.4348
56.3968
66.8879
190.072
225.128
55.7579
51.4476
67.1018
49.3687
67.5527
60.317
70.3844
65.4932
67.4474
53.5964
58.2915
51.1112
64.3733
65.3976
51.0465
50.7905
54.4268
78.7637
56.5151
54.9308
47.9816
55.7731
51.6213
52.7823
54.717
53.2883
49.5075
41.4831
99.8534
117.641
106.64
58.8148
63.9428
55.8573
55.0498
102.675
63.5628
52.8936
46.4943
44.5119
41.069
39.9096
39.8082
99.7138
95.5767
60.6844
72.8819
71.7195
41.2689
41.783
39.5329
39.4686
39.6274
80.1258
74.1488
68.4397
66.372
55.5866
41.2504
39.6299
40.3756
40.2106
39.4676
39.6194
39.6717
39.7115
39.9599
46.5219
40.6446
42.4372
44.3289
43.0226
42.9521
42.746
43.9766
39.7651
40.0227
38.8846
39.3567
40.0974
40.4249
40.4712
39.8964
39.791
41.2405
42.1784
41.1846
43.2043
52.8845
48.6368
48.2754
52.1304
46.8783
46.3476
48.1672
44.5906
46.738
48.3707
45.188
43.768
43.6601
45.8021
41.4021
44.6097
44.0465
48.6985
46.1789
41.1211
46.6783
45.5517
44.3213
42.3431
43.9577
40.0966
40.7201
39.7693
40.1478
39.5688
39.7952
42.1329
39.7887
39.6612
40.9916
41.0704
39.9151
40.4533
40.5466
45.1013
44.7136
39.6406
39.5765
39.0645
40.5982
40.616
40.1668
40.2124
40.3231
45.1928
40.4229
39.3347
39.2229
39.3416
40.4999
40.2137
40.4007
40.3994
40.3491
40.2539
40.258
40.2114
40.2179
40.6832
42.1591
42.2573
39.8627
39.8103
41.2355
41.5271
40.1641
40.3891
40.3124
40.5969
40.6912
40.4181
40.3851
40.5104
41.7551
41.306
40.789
40.9451
40.9163
41.9636
46.6203
46.4584
43.406
45.7526
42.3747
41.6673
44.7402
41.4778
41.4084
41.0397
40.9229
40.2888
39.9509
39.9816
39.4351
42.6453
38.9007
44.6286
44.1475
40.2253
48.2507
44.7317
42.7794
37.3322
39.64
39.7161
39.8577
39.3853
39.4581
39.6668
39.7329
39.9262
39.7394
38.7854
40.1712
40.1675
38.4076
39.982
39.9666
39.9828
40.1863
40.3876
39.8389
39.6185
39.9249
39.6376
39.7996
39.8655
39.8153
39.8123
39.8171
39.8298
39.8511
40.0916
40.2407
40.0431
40.0286
40.1768
40.3083
39.8631
39.9707
39.8939
39.5317
39.8514
39.5532
39.8804
39.7897
39.9198
39.7461
39.953
39.7026
39.9868
40.2174
40.1712
40.2072
40.2097
40.1551
40.2087
40.1673
40.2092
40.1215
39.6693
40.7633
40.9507
39.7808
39.8358
40.4947
40.4888
39.8091
40.2822
40.2893
40.2857
40.4276
40.3703
40.2542
40.4152
40.4343
40.6833
40.3731
40.2922
40.5998
41.0168
46.7258
41.0918
41.0902
43.673
40.999
39.5041
39.3993
39.4112
39.6222
39.449
38.9251
39.0043
39.0424
39.273
39.1032
37.8124
38.2529
44.2714
38.4874
38.1033
35.8116
39.8233
36.8066
38.1259
39.4332
39.6138
39.6638
39.2211
39.3991
39.5114
39.578
39.7545
39.8368
39.7334
39.7861
39.8256
39.8321
39.7869
39.8221
38.7945
39.8398
39.7867
38.9916
39.7383
39.6542
39.8554
39.9015
39.9113
39.8257
39.7149
39.8467
39.7749
39.8336
39.8126
39.8354
39.7784
39.8201
39.785
39.819
39.9524
40.077
39.8519
39.8561
39.973
39.8819
39.8552
39.8042
39.709
39.6761
39.784
39.6537
39.8516
39.7477
39.8939
39.697
39.8113
39.6564
39.7815
40.0949
40.0189
40.1008
40.1564
40.0798
40.0814
40.0404
40.1004
40.0394
40.0208
40.3537
40.276
40.1508
40.0643
40.2698
40.2472
39.7285
40.002
39.8666
39.8236
39.6062
39.7177
40.2486
40.1936
40.2024
40.3487
40.2701
40.1343
40.272
40.1993
40.4872
40.172
40.087
40.3761
40.4988
36.8557
38.3189
38.5358
37.2384
38.4225
38.6025
38.3579
38.5582
38.6196
38.8167
38.6187
38.5807
38.695
38.9601
38.8793
38.5767
38.7113
36.952
38.1592
38.001
38.4763
37.8736
38.7541
38.365
39.2886
39.3842
39.4997
39.0015
39.205
39.282
39.4153
39.6778
39.8028
39.5487
39.7824
39.8169
39.8207
39.8079
39.8246
38.9893
39.6618
39.5907
38.9738
39.6071
39.5608
39.8377
39.7895
39.7766
39.7649
39.8101
39.7472
39.7495
39.8232
39.7773
39.8221
39.7973
39.8387
39.778
39.8442
39.7601
39.8868
39.6753
39.6591
39.8242
39.6551
39.6921
39.5807
39.6368
39.657
39.6667
39.6914
39.8018
39.438
39.654
39.6647
39.8576
39.6128
39.8403
39.9553
39.909
39.9875
40.0521
40.0112
39.9754
39.9387
40.0141
39.9925
40.0071
40.1745
40.2035
39.9519
39.9419
40.0707
40.1196
39.937
40.0356
40.1191
39.6639
39.7013
39.7818
40.1366
40.0961
40.0787
40.1882
40.1383
40.0399
40.1269
39.9511
40.2393
39.9252
39.8456
40.1199
40.1979
38.783
38.5744
38.6618
38.6907
38.6377
38.6658
38.6147
38.6343
38.6427
38.656
38.7032
38.6817
38.6691
38.8087
38.7836
38.7379
38.7854
38.5374
38.6255
38.6652
38.4938
38.4571
38.4957
38.7202
39.1839
39.2144
39.3533
38.8668
39.1876
39.1581
39.3389
39.4419
39.3763
39.0212
39.579
39.5441
39.1238
39.5769
39.5466
39.8137
39.7032
39.7226
39.6511
39.779
39.6562
39.7287
39.8481
39.778
39.8881
39.8304
39.8602
39.8627
39.9137
39.5949
39.7853
39.618
39.591
39.7828
39.7188
39.7484
40.0637
39.6754
39.8353
39.7361
40.2314
39.9566
39.7782
39.887
39.885
40.0263
39.8828
39.9476
39.8762
39.8674
39.9009
39.9943
39.9812
39.9079
39.864
39.9753
39.9791
39.8867
39.9825
40.0107
39.8613
39.8473
39.9039
39.9284
39.8104
40.0678
40.0488
40.025
40.0898
40.0724
40.0209
40.0657
39.7642
40.0489
39.8805
39.7255
40.0135
39.954
38.5972
38.6448
38.6959
38.6449
38.6507
38.7609
38.7038
38.6998
38.753
38.7044
38.8595
38.842
38.7862
38.8314
38.925
38.8705
38.9647
38.4365
38.5471
38.6775
38.5795
38.5126
38.6678
38.6888
39.2156
39.1372
39.348
38.9331
39.2714
39.1668
39.3634
39.4148
39.45
39.2396
39.5912
39.5675
39.3154
39.6136
39.5891
39.6107
39.8322
39.5702
39.5604
39.4221
39.6114
39.8209
39.6624
39.6456
39.8771
39.9505
39.7404
39.6631
39.4512
39.7701
39.8713
39.8951
39.8316
39.9691
39.976
39.8846
39.8119
39.9774
39.978
39.8116
39.8292
39.8699
39.7569
39.7788
39.7616
39.8159
39.7947
40.0373
40.0233
40.0067
40.0382
40.0324
39.9949
40.018
39.7114
39.9842
39.8911
39.7101
39.9548
39.798
38.7209
38.8309
38.841
38.7776
38.7944
38.9418
38.8706
38.9145
38.9407
38.9102
39.046
39.0429
39.0452
39.0476
39.1779
39.0406
39.125
38.6174
38.7535
38.7532
38.7758
38.7231
38.8022
38.8084
39.3395
39.2301
39.3989
39.1197
39.4099
39.2869
39.4429
39.49
39.5219
39.367
39.6433
39.6203
39.4467
39.6876
39.6671
39.5918
39.598
39.6259
39.6198
39.6575
39.7014
39.9353
39.7807
39.7722
39.9764
39.6503
39.7842
39.6863
39.7341
39.7837
39.9351
39.9769
39.8103
40.0036
39.9873
39.9682
39.8289
40.0416
40.0056
39.7393
39.7017
39.7596
39.6545
39.6949
39.636
39.7074
39.7407
40.0087
40.0046
39.9858
40.0024
39.9917
39.9816
39.995
39.7041
39.9381
39.92
39.7139
39.9482
39.6901
38.9629
39.1146
39.0525
38.9823
39.0392
39.1648
39.0993
39.1504
39.1754
39.1803
39.2606
39.2819
39.3068
39.2991
39.4094
39.2486
39.3915
38.82
38.8886
38.8995
39.0654
38.9223
39.0289
39.0254
39.4747
39.3463
39.4836
39.317
39.534
39.4046
39.5267
39.5469
39.5784
39.5574
39.7395
39.7219
39.6654
39.788
39.7691
39.6346
39.6631
39.6543
39.6427
39.665
39.8323
39.9899
39.8706
39.8699
39.9895
39.7491
39.7775
39.7053
39.7511
39.7609
40.0091
40.0295
39.8621
40.07
40.0261
40.0745
39.9014
40.0782
40.0428
39.6561
39.5779
39.6692
39.5824
39.6269
39.5426
39.6395
39.6663
40.0224
40.0255
39.9811
39.9998
40.0249
40.0107
40.0309
39.7636
39.9858
40.0046
39.8199
40.0157
39.6722
39.2489
39.3446
39.2728
39.2009
39.254
39.3711
39.2676
39.3461
39.3742
39.4085
39.4373
39.4541
39.4937
39.4981
39.5739
39.524
39.6464
39.0266
39.1835
39.1135
39.3391
39.0988
39.3389
39.1831
39.5903
39.4516
39.573
39.5011
39.6393
39.5011
39.6193
39.6157
39.6477
39.7535
39.8305
39.8163
39.829
39.8627
39.854
39.656
39.6727
39.6742
39.6702
39.682
39.8887
40.005
39.9209
39.9096
40.0185
39.75
39.7376
39.7057
39.7444
39.7124
40.044
40.044
39.9334
40.0754
40.0434
40.0822
39.9455
40.0637
40.0205
39.6085
39.5602
39.6262
39.5702
39.5939
39.6119
39.6181
39.6412
40.0297
40.0219
40.0283
40.042
39.9951
40.0024
40.0126
39.8489
40.0172
39.9764
39.8507
39.9811
39.7264
39.4365
39.5796
39.4651
39.3226
39.4335
39.5617
39.405
39.5252
39.5271
39.5738
39.5933
39.6026
39.6508
39.641
39.6994
39.7654
39.8798
39.1865
39.5107
39.3412
39.668
39.3693
39.6976
39.592
39.6858
39.5496
39.6587
39.6481
39.7289
39.5997
39.6953
39.6765
39.7031
39.8974
39.8833
39.8774
39.9555
39.8995
39.8989
39.6863
39.6907
39.6977
39.6991
39.6995
39.9366
40.0012
40.0047
39.9305
39.9516
39.7415
39.6844
39.7042
39.735
39.6611
40.0204
39.9695
39.944
40.0399
39.9848
39.9688
39.9111
39.9807
39.9296
39.5893
39.6997
39.6215
39.6725
39.6093
39.8023
39.6573
39.669
39.986
39.9379
39.9643
39.9699
39.9225
39.9279
39.9282
39.8971
39.9435
39.9301
39.981
39.9144
39.8965
39.7541
39.8886
39.6638
39.5211
39.623
39.7586
39.6451
39.7153
39.6851
39.7202
39.751
39.7565
39.7755
39.7496
39.7907
39.9591
39.9686
39.5935
39.8361
39.7993
39.8829
39.7576
39.8931
39.8553
39.7648
39.6478
39.7262
39.7565
39.7911
39.6862
39.7512
39.7268
39.7485
39.9893
39.9065
39.9045
39.9733
39.9016
39.8865
39.7115
39.7072
39.7229
39.7224
39.7162
39.8842
39.8894
39.8949
39.827
39.8266
39.7252
39.6614
39.703
39.7143
39.6639
39.8991
39.8182
39.8536
39.8809
39.8598
39.7667
39.7814
39.7617
39.7796
39.6397
39.8164
39.6975
39.7829
39.6699
39.7983
39.7136
39.7057
39.8815
39.822
39.8893
39.8874
39.8388
39.8486
39.848
40.0052
39.8826
39.8536
39.9547
39.8462
39.8525
39.9363
39.915
39.8323
39.7446
39.7891
39.8776
39.7998
39.838
39.8107
39.813
39.8456
39.843
39.8373
39.8204
39.8389
39.9298
39.8761
39.8322
39.8882
39.8379
39.8669
39.8434
39.8469
39.8163
39.8083
39.7156
39.7712
39.8138
39.819
39.7385
39.7892
39.7647
39.7807
39.9209
39.8775
39.8501
39.8615
39.8433
39.8051
39.7306
39.7238
39.7339
39.7361
39.7314
39.7718
39.7764
39.7765
39.7411
39.7522
39.706
39.6664
39.7092
39.7028
39.6699
39.7573
39.7348
39.721
39.6483
39.7026
39.6727
39.6789
39.5843
39.6538
39.6891
39.7899
39.7159
39.7222
39.6959
39.7518
39.71
39.705
39.7658
39.7272
39.8092
39.8099
39.7715
39.7762
39.7784
39.8833
39.8098
39.7776
39.8201
39.7773
39.7689
39.8573
39.797
39.8941
39.8148
39.8609
39.8873
39.8028
39.8608
39.8571
39.851
39.8664
39.8597
39.8591
39.8507
39.86
39.8223
39.7943
39.8185
39.8048
39.7874
39.7854
39.7697
39.7732
39.7342
39.8263
39.7591
39.8093
39.8367
39.839
39.7806
39.8274
39.7963
39.8136
39.8195
39.8246
39.7851
39.8273
39.8444
39.8239
39.7382
39.7397
39.7482
39.7467
39.7507
39.7487
39.7583
39.8076
39.7921
39.7905
39.7103
39.6772
39.7307
39.7201
39.6972
39.7404
39.7637
39.6722
39.6168
39.6432
39.705
39.6962
39.6855
39.6879
39.7002
39.7057
39.6999
39.642
39.7058
39.6746
39.6951
39.7011
39.7151
39.731
39.7524
39.755
39.741
39.738
39.7405
39.7682
39.7505
39.7277
39.7318
39.7322
39.7089
39.7494
39.7197
39.8723
39.7826
39.8509
39.8626
39.773
39.8442
39.8569
39.8661
39.8639
39.8545
39.8763
39.87
39.8835
39.7991
39.7988
39.7157
39.7453
39.6492
39.7228
39.6773
39.7278
39.5787
39.8565
39.7982
39.8416
39.8663
39.8772
39.8173
39.8594
39.8331
39.8586
39.8363
39.8644
39.8613
39.8257
39.8635
39.857
39.7648
39.7552
39.7915
39.796
39.7778
39.8402
39.8248
39.8635
39.8616
39.8379
39.7393
39.7186
39.7708
39.7646
39.7572
39.7965
39.8201
39.7338
39.7692
39.7586
39.7534
39.7636
39.8399
39.8285
39.7055
39.6719
39.6971
39.6593
39.6995
39.6815
39.7002
39.7018
39.7649
39.7993
39.7339
39.7348
39.7484
39.7341
39.7349
39.7154
39.7234
39.7175
39.7104
39.7224
39.7077
39.7171
39.7346
39.8631
39.7812
39.8481
39.8725
39.8018
39.8609
39.8605
39.8935
39.891
39.8805
39.9206
39.9042
39.9345
39.7858
39.784
39.6654
39.7356
39.5915
39.7291
39.6741
39.7563
39.6615
39.903
39.8433
39.8798
39.9249
39.9317
39.9038
39.9084
39.8908
39.9264
39.8057
39.8397
39.8384
39.7817
39.8135
39.8122
39.8371
39.805
39.8658
39.8727
39.8384
39.8598
39.8445
39.8502
39.8482
39.8392
39.7878
39.7996
39.8086
39.8182
39.8363
39.8214
39.8137
39.7898
39.8858
39.8787
39.7744
39.809
39.8946
39.9065
39.7045
39.6988
39.7072
39.7147
39.7134
39.7204
39.7242
39.7461
39.8256
39.8409
39.7386
39.7395
39.7725
39.745
39.7469
39.7203
39.73
39.7354
39.7308
39.7419
39.7431
39.7577
39.7843
39.885
39.8276
39.8787
39.9067
39.8488
39.8992
39.9117
39.9575
39.9479
39.9434
39.992
39.9685
40.0001
39.7878
39.7921
39.6983
39.7744
39.7221
39.7648
39.7338
39.7891
39.7554
39.9593
39.9591
39.9315
39.9793
39.9915
39.9956
39.9596
39.9586
39.9884
39.7621
39.7876
39.7829
39.7475
39.7631
39.7545
39.8985
39.8757
39.9368
39.9214
39.9132
39.8355
39.8213
39.825
39.8165
39.8054
39.8595
39.8643
39.8634
39.9019
39.8847
39.8034
39.7893
39.8124
39.8646
39.8816
39.76
39.7682
39.7945
39.7902
39.7411
39.745
39.7486
39.7577
39.7763
39.7727
39.7786
39.8158
39.8364
39.7921
39.753
39.7571
39.7735
39.7595
39.7678
39.7516
39.7613
39.7775
39.7734
39.7834
39.7888
39.8156
39.848
39.924
39.868
39.9157
39.9336
39.8828
39.921
39.9665