/*--------------------------------*- C++ -*----------------------------------*\
| =========                 |                                                 |
| \\      /  F ield         | OpenFOAM: The Open Source CFD Toolbox           |
|  \\    /   O peration     | Version:  5.x                                   |
|   \\  /    A nd           | Web:      www.OpenFOAM.org                      |
|    \\/     M anipulation  |                                                 |
\*---------------------------------------------------------------------------*/
FoamFile
{
    version     2.0;
    format      ascii;
    class       volVectorField;
    location    "2";
    object      U;
}
// * * * * * * * * * * * * * * * * * * * * * * * * * * * * * * * * * * * * * //

dimensions      [0 1 -1 0 0 0 0];

internalField   nonuniform List<vector> 
10571
(
(-0.444449 0.0972523 1.09873)
(-0.276162 0.275995 1.35159)
(-1.85178 1.93137 3.40955)
(-1.71201 1.31881 3.09789)
(-0.264159 0.244548 1.58414)
(0.410122 -2.05323 2.6785)
(-0.760959 -2.13219 3.20595)
(-1.26832 -0.285855 2.94979)
(-1.19047 0.0785669 2.86295)
(-0.274625 -0.163226 1.57235)
(0.318593 -0.343959 0.681489)
(2.13826 -2.82289 3.36887)
(-1.05825 -2.42614 2.57896)
(-1.61414 -2.97652 4.0019)
(-1.39947 -0.332842 2.26543)
(-0.215142 0.182532 1.8757)
(-0.49085 -0.863721 1.80105)
(-0.434352 -1.38167 2.29143)
(-0.307198 -0.893602 1.87874)
(-0.695562 0.0586342 2.58583)
(-0.543305 0.592176 1.51683)
(-0.544158 0.130425 1.83197)
(-0.251704 0.223801 2.02808)
(-0.341782 0.641564 1.69754)
(-0.116439 0.0266139 0.728666)
(0.472065 -0.300028 2.17795)
(1.52108 -0.368293 4.21436)
(-0.663491 0.445998 2.2329)
(-0.00158746 0.0646956 1.71775)
(0.294228 -0.104524 1.59282)
(0.0284074 -2.44424 4.84728)
(0.166611 -1.72603 4.40748)
(0.122945 -0.340195 1.44705)
(-0.111963 -0.381255 1.40914)
(-0.0856167 -0.314572 0.417741)
(0.369797 -1.02105 1.32325)
(0.00750906 -0.834781 1.56569)
(0.218222 -0.971261 2.00305)
(0.0813491 -0.540318 1.07668)
(-0.1266 -0.401786 1.39457)
(0.0882283 -0.499385 0.999562)
(-0.102798 -0.419581 1.07981)
(0.0898488 -0.44812 1.215)
(0.103273 -1.04106 1.49641)
(0.227344 -0.361287 1.19944)
(-0.2456 -0.71932 1.53813)
(-0.156279 -0.583691 1.66134)
(0.0132629 -0.32154 2.96374)
(-0.122932 -0.173701 0.929448)
(-0.475511 -1.13656 3.66847)
(-0.949233 -2.36759 3.88537)
(0.198297 -2.37278 3.49777)
(0.0573742 -0.43884 1.05713)
(-0.589713 -0.904116 1.5987)
(0.313873 0.275029 6.45413)
(1.24507 0.464027 3.98373)
(0.833862 0.991454 2.64288)
(0.10772 2.32757 2.81136)
(-0.0548414 -0.114641 0.759566)
(-0.306932 -0.104496 1.2351)
(0.170339 0.46641 1.61196)
(0.62778 0.432089 1.8381)
(0.446378 0.153305 2.40082)
(-0.572624 0.108705 1.64023)
(0.0308346 -0.0509031 1.06741)
(0.0856634 -0.0416678 0.766558)
(0.00581229 -0.0972087 0.908156)
(0.0344076 -0.546862 1.27279)
(-0.0719325 -0.1175 1.14014)
(-0.154939 -0.367013 1.45717)
(0.129672 -0.634481 1.77925)
(0.105084 -0.292572 1.51121)
(0.223698 -0.0989444 1.3391)
(-0.0580755 0.196711 5.20554)
(-2.90137 -3.96571 6.22116)
(0.218101 -1.32901 2.04456)
(-0.231341 -0.642652 1.18933)
(-1.14183 -0.0929435 2.06938)
(-0.141824 0.0911235 1.58614)
(0.368194 -0.0140142 1.55614)
(0.344157 0.304633 1.62758)
(-0.170652 0.0495521 0.745422)
(0.0205765 0.0176909 0.285317)
(-0.296749 0.0263422 1.10989)
(-0.145884 0.282796 0.770673)
(0.0316522 0.584094 1.69249)
(-0.209121 2.6135 4.57652)
(-1.05533 1.82073 1.96023)
(-0.00604604 0.0321946 1.00075)
(-0.0468215 0.372076 2.17247)
(-0.184339 1.14041 2.22845)
(-0.546747 1.82316 2.45704)
(-0.334367 0.747212 0.757721)
(0.0242854 -0.0294769 1.41521)
(-0.0476822 0.100559 2.08235)
(-0.0997506 0.0042335 1.84476)
(0.330342 -0.0654921 2.91627)
(-0.431082 0.919083 6.2273)
(-0.791973 -0.692463 4.0153)
(-0.137681 0.373471 1.74582)
(0.00261633 0.0895876 0.953446)
(0.0939171 0.814678 1.71815)
(0.0141445 0.0557764 4.56098)
(-0.0429456 -0.129866 2.69448)
(0.110714 -0.174822 1.31735)
(-0.0061266 -0.129855 0.986845)
(-0.00245594 0.237453 -0.269981)
(-0.022693 0.536765 1.16902)
(-0.0774375 -0.506769 1.76639)
(-0.0698359 0.0441878 0.568608)
(0.0550975 0.538162 1.11043)
(0.0785252 0.134479 0.644466)
(0.0359868 0.00886682 0.444502)
(-0.045639 -0.27022 1.1432)
(-0.289848 0.759622 1.47143)
(-0.186573 1.66661 2.29472)
(0.137843 0.570196 1.28842)
(-0.334323 -0.103227 0.679686)
(-0.613066 0.359483 1.38483)
(-0.678639 0.592455 1.27302)
(0.359425 0.200054 1.8151)
(-0.449939 0.967401 5.7364)
(0.527846 0.833132 3.40617)
(-0.0209574 1.12554 1.72591)
(0.0514322 0.42644 0.768537)
(0.0624267 1.60876 2.18096)
(0.245959 0.0497634 3.29293)
(0.153951 0.0915295 2.36422)
(-0.0457467 0.264198 1.4997)
(0.191669 -0.0799048 0.834975)
(-0.012919 0.00978887 -0.00618384)
(-0.0217048 0.056584 0.700279)
(-0.0458513 0.573476 1.39681)
(0.171444 -0.207301 0.924363)
(0.622769 -0.0866487 0.996315)
(-0.119134 0.217061 2.2642)
(0.0566 0.172718 0.925145)
(-0.00411281 -0.000311842 -0.00174707)
(-0.0439645 0.00222213 0.699868)
(0.0161641 -0.29368 0.786322)
(-0.0658514 0.0751678 1.26552)
(-0.0110995 1.26992 2.41969)
(0.17717 0.136904 1.48401)
(-0.459682 -0.000250923 0.953213)
(-0.73593 0.310149 1.80923)
(-0.797703 0.785438 2.36205)
(0.242723 0.0601652 0.391464)
(-0.0721024 0.624956 2.12242)
(1.07511 1.74954 3.67197)
(0.415509 1.22132 1.89447)
(0.0456553 0.280033 0.59897)
(-0.177662 1.87862 2.81529)
(-0.0692838 -0.0351469 2.80227)
(0.417675 0.0113143 2.08436)
(0.215769 0.0162968 1.08007)
(-0.029765 -0.19702 0.728822)
(-0.121733 -0.140951 -0.000793562)
(0.00260802 0.0435225 0.967055)
(0.0412412 0.350529 1.50365)
(0.0466385 0.259158 1.09337)
(0.337968 0.173968 0.351629)
(0.000336532 0.225301 1.49624)
(-0.377995 0.151539 0.47039)
(-0.418975 -0.172362 0.0596772)
(-0.0439247 -0.165452 0.696443)
(0.0493869 -0.284749 0.852436)
(-0.0161828 0.0400857 1.01101)
(0.0129967 0.615519 1.97885)
(0.265041 0.1626 1.60031)
(-0.568948 -0.0738058 -0.00606289)
(-0.497447 0.0275988 1.19769)
(-0.763127 0.219275 1.89166)
(-0.736527 0.664199 2.69778)
(0.0817581 0.0126267 0.202076)
(-0.532897 0.303735 2.36154)
(0.734385 1.13733 3.23025)
(0.384393 0.949901 2.12414)
(-0.0233716 0.0409876 0.628304)
(-0.292118 1.16671 2.86382)
(-0.148284 -0.0658849 2.91996)
(0.427434 -0.00161537 2.21537)
(0.278724 -0.107896 1.23116)
(0.176851 -0.164296 0.731303)
(-0.10832 -0.206419 -0.0265367)
(0.0391904 0.0975647 1.08066)
(-0.0405384 0.69024 2.14861)
(0.0723124 0.271399 1.19453)
(0.216632 0.139899 0.690855)
(0.0392743 0.0939215 1.41738)
(-0.000684559 0.168503 0.613804)
(-0.0188284 -0.100001 -0.134005)
(-0.00312616 -0.219337 0.733409)
(0.105653 -0.330697 0.86161)
(0.00977685 -0.194432 1.02584)
(0.019003 0.435165 1.75203)
(0.327958 0.0416003 1.55548)
(0.309071 0.0366013 0.420028)
(-0.472976 -0.0635618 1.38976)
(-0.718727 0.211996 2.04509)
(-0.680215 0.579655 2.73662)
(-0.0304139 0.0787488 -0.168367)
(0.0236188 0.0784935 1.4512)
(0.43806 0.797528 2.49866)
(0.232891 0.599582 1.8959)
(-0.134568 -0.184243 0.757387)
(-0.390817 0.884246 2.87325)
(-0.158218 0.0183342 2.98931)
(0.303811 0.00925078 2.42248)
(0.21773 -0.23124 1.43473)
(0.0502045 -0.228032 0.762237)
(-0.0235083 -0.072582 0.0290093)
(0.0653832 0.0580244 1.0392)
(-0.212462 0.908308 2.58218)
(0.105568 0.0874562 1.23746)
(0.230399 0.0264896 0.768806)
(0.070781 -0.0545378 1.28776)
(0.195026 0.0959529 0.842653)
(0.405362 -0.469656 -0.0599644)
(0.0427581 -0.0774094 0.877284)
(0.182256 -0.373149 0.839635)
(0.10424 -0.339242 0.914672)
(-0.00107921 0.273481 1.57174)
(0.200947 -0.0785479 1.65073)
(-0.446143 -0.123402 1.40905)
(-0.630006 0.161334 2.132)
(-0.636984 0.488308 2.64593)
(-0.161374 0.00456281 -0.307693)
(0.260018 -0.24567 1.23029)
(0.252887 0.540189 2.14671)
(0.0888073 0.409998 1.6856)
(-0.318339 -0.395659 1.02488)
(-0.421686 0.603951 2.86119)
(-0.132569 0.0533143 2.9549)
(0.228115 0.0141616 2.49476)
(0.177748 -0.326753 1.43688)
(-0.124976 -0.216141 0.845922)
(0.0302215 -0.0432692 1.05029)
(-0.324571 0.854176 2.70729)
(0.105811 -0.0405678 1.25919)
(0.299825 -0.00614658 0.868997)
(0.209714 -0.0607814 1.14427)
(0.0685056 -0.0913462 1.01563)
(0.0704673 0.142448 1.10582)
(0.241724 -0.350563 0.815762)
(0.17622 -0.368521 0.875184)
(0.0634173 0.115725 1.38429)
(0.184691 -0.0589022 1.81381)
(-0.388059 -0.138811 1.38062)
(-0.478887 0.0907587 2.14898)
(-0.558178 0.42288 2.54536)
(-0.124923 -0.0164085 -0.336191)
(0.466052 -0.461419 1.07394)
(0.211156 0.333999 1.76125)
(-0.017116 0.284836 1.57512)
(-0.397851 -0.483385 1.22839)
(-0.366366 0.388623 2.84493)
(-0.0832567 0.0630685 2.9016)
(0.194357 -0.0052064 2.51906)
(0.213676 -0.351607 1.50519)
(-0.107673 -0.248094 0.889753)
(-0.0280616 -0.110815 1.16895)
(-0.345692 0.714446 2.70903)
(0.135426 -0.0974073 1.21386)
(0.366223 -0.0744874 0.922378)
(0.318482 -0.0518016 1.09871)
(0.202717 -0.184272 1.0838)
(0.0829307 0.321465 1.34178)
(0.255659 -0.325429 0.787295)
(0.222189 -0.408713 0.84581)
(0.125341 0.0184642 1.24746)
(0.139343 -0.0270194 1.82104)
(-0.268954 -0.160563 1.35303)
(-0.344108 -0.00180067 2.0693)
(-0.462062 0.357415 2.43585)
(0.00813641 -0.0224616 -0.218873)
(0.577239 -0.572954 1.01127)
(0.332608 0.0899656 1.58767)
(-0.0501863 0.193316 1.51479)
(-0.37342 -0.460245 1.31775)
(-0.355724 0.189716 2.72265)
(-0.0813224 0.0356994 2.85906)
(0.181258 -0.0526132 2.52284)
(0.253667 -0.30898 1.55458)
(-0.0974564 -0.227168 0.965782)
(-0.0279663 -0.134135 1.32911)
(-0.362172 0.501635 2.57192)
(0.209451 -0.189017 1.17419)
(0.381126 -0.187911 0.984039)
(0.337766 -0.0645124 1.08868)
(0.190502 -0.161308 1.13146)
(0.121898 0.309586 1.45781)
(0.224306 -0.317687 0.770763)
(0.220667 -0.45392 0.824928)
(0.108938 -0.0117604 1.21876)
(0.0828866 0.0316409 1.86862)
(-0.301593 -0.263191 1.26013)
(-0.14867 -0.0746008 1.92336)
(-0.310371 0.231836 2.36572)
(0.10278 -0.0332168 0.0128461)
(0.589557 -0.604806 0.944825)
(0.387981 -0.0626119 1.63154)
(-0.00352976 0.143782 1.58567)
(-0.329669 -0.400301 1.35147)
(-0.292457 -0.0555632 2.51488)
(-0.0561383 -0.0113927 2.82466)
(0.193501 -0.157424 2.50053)
(0.283629 -0.245036 1.60742)
(-0.0576954 -0.159922 1.09968)
(-0.03138 -0.144476 1.41957)
(-0.3086 0.361075 2.48478)
(0.225211 -0.262401 1.18097)
(0.324303 -0.298349 1.03631)
(0.318207 -0.0995623 1.09892)
(0.165331 -0.122063 1.16533)
(0.137247 0.27176 1.49219)
(0.144369 -0.278822 0.753758)
(0.175044 -0.46131 0.822602)
(0.00198102 -0.163041 1.29836)
(0.0734745 0.104444 1.93955)
(-0.2004 -0.294973 1.01226)
(0.00924525 -0.344227 1.5297)
(-0.165685 0.140953 2.27134)
(0.203283 -0.0335394 0.297335)
(0.490143 -0.561905 0.948942)
(0.225844 -0.127053 1.80826)
(0.0554001 0.0892888 1.72433)
(-0.220274 -0.328339 1.40422)
(-0.351023 -0.22271 2.3143)
(0.0617469 -0.0696917 2.74942)
(0.206889 -0.192019 2.49433)
(0.275362 -0.200299 1.66055)
(0.0118424 -0.0569128 1.29032)
(-0.11763 -0.102951 1.62794)
(-0.282558 0.14619 2.21701)
(0.20349 -0.282677 1.18612)
(0.207359 -0.343285 1.06321)
(0.274902 -0.202747 1.15838)
(0.134159 -0.119422 1.20667)
(0.111237 0.142577 1.60833)
(0.0768632 -0.210669 0.708333)
(0.0657835 -0.421637 0.796188)
(0.082074 -0.453661 1.37648)
(0.010031 0.129724 1.91322)
(-0.103611 -0.141363 0.804084)
(-0.0899358 -0.270233 1.17467)
(-0.0349766 -0.0847514 2.15884)
(0.255584 -0.0277241 0.622102)
(0.272466 -0.447183 1.23454)
(0.234816 -0.301011 1.90697)
(0.104266 0.00681776 1.87665)
(-0.0906255 -0.237552 1.49598)
(-0.376588 -0.360129 2.15429)
(0.199289 -0.118646 2.63687)
(0.216826 -0.179386 2.49962)
(0.217483 -0.170042 1.74437)
(0.0636344 0.0467427 1.48965)
(-0.0799899 -0.0298033 1.99884)
(-0.203088 -0.0134133 1.837)
(0.198251 -0.269771 1.16909)
(0.117622 -0.292537 1.08496)
(0.204735 -0.267506 1.24402)
(0.0803355 -0.136927 1.2991)
(0.0521547 -0.0328369 1.79065)
(0.0850967 -0.161508 0.610945)
(0.00987833 -0.312738 0.690762)
(0.172261 -0.497724 1.38402)
(-0.0308823 -0.00384785 1.80316)
(-0.117827 -0.0775693 0.65078)
(-0.152795 -0.119148 0.924656)
(0.195874 -0.116406 1.43213)
(0.273596 -0.0133627 0.959306)
(0.170406 -0.279038 1.60982)
(0.296587 -0.401069 2.0232)
(0.154219 -0.0255885 2.05275)
(0.00101357 -0.141143 1.61716)
(-0.0546396 -0.308353 1.85502)
(0.260043 -0.113967 2.57608)
(0.223767 -0.129575 2.53211)
(0.14384 -0.0997565 1.87394)
(0.0593196 0.115799 1.64605)
(0.0283179 0.135434 2.22881)
(-0.0595803 -0.0273054 1.6249)
(0.179105 -0.210761 1.12049)
(0.0893697 -0.136509 1.14072)
(0.0730496 -0.225187 1.33483)
(0.0201061 -0.130973 1.40425)
(0.0847668 -0.0315539 1.88095)
(0.128998 -0.119495 0.516031)
(0.0581921 -0.200273 0.614687)
(0.141946 -0.324461 1.24706)
(0.0210032 -0.143393 1.73179)
(-0.111297 -0.0611647 0.519202)
(-0.120139 -0.0379446 0.771295)
(0.102383 0.0508353 1.13673)
(0.242696 0.00499664 1.22492)
(0.223826 -0.170621 1.58493)
(0.328262 -0.329915 2.14864)
(0.193577 -0.0201942 2.22457)
(0.0688283 -0.063682 1.7348)
(0.260069 -0.131989 1.47729)
(0.265363 -0.0936899 2.53448)
(0.174515 -0.0868364 2.55577)
(0.0948999 0.0444521 1.98948)
(0.069017 0.182378 1.78011)
(0.0481938 0.283384 2.21451)
(0.211979 0.0760727 1.52218)
(0.0704695 -0.0843656 1.07104)
(0.0559081 0.0826256 1.22445)
(-0.0681529 -0.0951767 1.42099)
(-0.0431849 -0.137536 1.46775)
(0.204731 0.115745 1.81281)
(0.16023 -0.0852782 0.469667)
(0.0982436 -0.0907143 0.610365)
(0.0736823 -0.0299344 1.1279)
(0.117568 -0.259514 1.71536)
(-0.0621258 -0.0551637 0.424051)
(-0.0815739 0.00231657 0.701604)
(0.0173608 0.0411732 1.05948)
(0.163144 0.0159203 1.37373)
(0.232921 -0.161459 1.3309)
(0.257444 -0.163434 2.26687)
(0.188845 -0.0387007 2.35411)
(0.125231 5.10355e-05 1.80064)
(0.32119 -0.101166 1.29474)
(0.244226 -0.0499452 2.52788)
(0.028415 -0.0444143 2.51216)
(0.0639559 0.234815 1.99267)
(0.10338 0.259783 1.88692)
(0.0538919 0.320707 1.93707)
(0.292862 0.0341093 1.35617)
(-0.076124 0.0210046 1.03677)
(-0.025592 0.261036 1.26573)
(-0.113201 0.0715548 1.49921)
(-0.122626 -0.155359 1.49155)
(0.280264 0.270172 1.77897)
(0.142446 -0.0762158 0.470132)
(0.0711703 0.0296243 0.671306)
(0.057593 0.138944 1.12599)
(0.134473 -0.235773 1.71524)
(-0.0337313 -0.0403019 0.39701)
(-0.0737856 0.0285663 0.69527)
(-0.0248341 0.0579397 1.02425)
(0.07168 0.0134997 1.45653)
(0.164137 -0.172749 1.26987)
(0.0907543 -0.100329 2.31122)
(0.134107 -0.073538 2.38884)
(0.162585 0.0117671 1.82805)
(0.300131 -0.061585 1.28046)
(0.17559 0.0905681 2.54811)
(-0.133238 0.0391886 2.38174)
(0.0875729 0.378921 1.90556)
(0.0824472 0.338652 1.92598)
(0.010012 0.212705 1.66288)
(0.0674462 -0.141134 1.2065)
(-0.173047 0.0677434 1.01975)
(-0.114056 0.341565 1.22163)
(-0.0470956 0.198408 1.55582)
(-0.157306 -0.0564627 1.51654)
(0.275541 0.272543 1.79733)
(0.0180016 -0.0919609 0.496821)
(0.00162074 0.128341 0.757475)
(0.074644 0.255647 1.21385)
(0.122242 -0.0849668 1.72446)
(-0.0715793 -0.0220247 0.406924)
(-0.11655 0.0488806 0.742208)
(-0.0802885 0.0972457 1.08062)
(-0.0266378 -0.0189519 1.60046)
(0.0806779 -0.147841 1.33816)
(-0.063473 -0.14547 2.33196)
(0.0599706 -0.147365 2.37825)
(0.202217 -0.0192731 1.81635)
(0.159365 0.074424 1.39517)
(-0.0406197 0.15551 2.55068)
(-0.0947413 0.0540593 2.22607)
(0.200051 0.392279 1.80422)
(0.0875865 0.406932 1.90543)
(0.0304915 0.119473 1.44291)
(-0.10999 -0.12768 1.22564)
(-0.206832 0.0760357 1.01577)
(-0.143969 0.313608 1.12237)
(0.0483853 0.253322 1.59439)
(-0.122497 0.188158 1.65854)
(0.242096 0.223387 1.86732)
(-0.137841 -0.118589 0.543895)
(-0.0887794 0.136516 0.820246)
(0.0323395 0.32567 1.33781)
(0.0162074 0.0785415 1.817)
(-0.168035 -0.0180174 0.394209)
(-0.180048 0.0429427 0.807742)
(-0.159796 0.13348 1.16883)
(-0.126808 -0.0365377 1.82389)
(-0.0172921 -0.0561667 1.45195)
(-0.139644 -0.105231 2.32689)
(-0.134151 -0.130124 2.28084)
(0.250587 -0.0404273 1.76096)
(-0.0698123 0.171779 1.60815)
(-0.328103 0.10729 2.46767)
(0.0556024 -0.0119816 1.9053)
(0.299434 0.286495 1.72815)
(0.165289 0.428973 1.89295)
(0.0077382 0.216608 1.27659)
(-0.133994 -0.0383461 1.34903)
(-0.167594 0.0711703 1.0169)
(-0.135996 0.159509 0.987505)
(0.0871848 0.25532 1.62412)
(-0.0644147 0.397686 1.87837)
(0.244579 0.235672 2.00756)
(-0.192755 -0.140092 0.603386)
(-0.168549 0.0399712 0.844968)
(-0.0809925 0.328157 1.45305)
(-0.12702 0.184823 1.78773)
(-0.22601 0.0117626 0.350381)
(-0.228119 1.95736e-06 0.857706)
(-0.223976 0.157555 1.2295)
(-0.172845 -0.063668 1.99826)
(-0.0564342 -0.00685689 1.60014)
(-0.164673 -0.0429424 2.33986)
(-0.176825 -0.150428 2.04614)
(0.236547 -0.0471332 1.74531)
(-0.3272 0.10219 1.82953)
(-0.409044 0.0480107 2.28162)
(0.149589 -0.109978 1.57183)
(0.28935 0.159892 1.65116)
(0.227247 0.410232 1.95127)
(0.00622485 0.400428 1.37234)
(-0.175694 0.126098 1.48264)
(-0.00194173 0.0704611 1.00829)
(-0.103589 -0.0203412 0.935732)
(0.0755184 0.239501 1.64183)
(-0.0508543 0.493287 2.06093)
(0.315482 0.351429 2.04248)
(-0.0976821 -0.135409 0.702747)
(-0.195736 -0.0930622 0.852322)
(-0.189626 0.269509 1.51999)
(-0.165154 0.245242 1.7985)
(-0.105326 0.0507018 0.351504)
(-0.211286 -0.0843044 0.815086)
(-0.249388 0.147166 1.24661)
(-0.17477 -0.0665956 2.21051)
(-0.0345422 -0.0445779 1.86141)
(-0.186773 -0.0733544 2.35204)
(-0.09533 -0.19158 1.83816)
(0.103442 -0.0295015 1.73322)
(-0.433645 -0.00483865 1.86752)
(-0.220114 -0.0442435 1.94298)
(0.199141 -0.202909 1.35009)
(0.222189 0.082403 1.57599)
(0.242639 0.399387 2.01263)
(0.038424 0.445393 1.42251)
(-0.195525 0.257985 1.58161)
(0.16425 0.0497384 0.992743)
(-0.0390002 -0.157279 0.945543)
(0.0414502 0.157536 1.67557)
(-0.0357851 0.503128 2.21155)
(0.384142 0.457204 1.9861)
(0.177597 -0.0596652 0.900121)
(-0.121976 -0.187038 0.878989)
(-0.214637 0.175643 1.53721)
(-0.167116 0.227184 1.8178)
(0.187173 0.120186 0.486803)
(-0.0688197 -0.0861633 0.694896)
(-0.230516 0.12368 1.24384)
(-0.117478 -0.0416084 2.45433)
(0.0195633 -0.0982229 2.17141)
(-0.173426 -0.104374 2.35779)
(-0.0724075 -0.163859 1.78889)
(0.0354392 0.000697977 1.68499)
(-0.375205 -0.0319594 1.83934)
(0.0926502 -0.166079 1.58522)
(0.256249 -0.260773 1.26295)
(0.186623 0.0188483 1.54421)
(0.222954 0.395988 2.04653)
(0.064988 0.386712 1.20636)
(0.0914737 0.304951 1.60431)
(0.27055 -0.0463368 0.992779)
(0.0719234 -0.23906 0.989784)
(0.0213526 -0.0098771 1.71213)
(-0.0302933 0.490534 2.34314)
(0.438428 0.511574 1.87232)
(0.342938 -0.0170903 1.011)
(0.0286713 -0.221151 0.936743)
(-0.155636 0.105293 1.53796)
(-0.170978 0.206823 1.8482)
(0.426086 0.150365 0.674742)
(0.129127 -0.0467476 0.679589)
(-0.15494 0.0770926 1.25152)
(-0.0426122 -0.0126503 2.57694)
(0.0308454 -0.119073 2.36631)
(-0.131492 -0.0213207 2.35801)
(0.0754454 0.0311568 1.8681)
(0.105916 0.0354536 1.65636)
(-0.23291 -0.0576999 1.85654)
(0.31797 -0.239782 1.4249)
(0.320046 -0.284122 1.28392)
(0.185946 -0.0337808 1.57873)
(0.210992 0.39796 2.07601)
(0.0813309 0.294871 0.889302)
(0.291759 0.399586 1.3299)
(0.309346 -0.185977 0.982494)
(0.161322 -0.272095 1.05096)
(0.0187743 -0.138388 1.76679)
(-0.0291748 0.483727 2.47034)
(0.290246 0.52824 1.84223)
(0.423182 -0.0459987 1.00548)
(0.172776 -0.20768 1.00501)
(-0.0727551 0.0158711 1.53729)
(-0.169159 0.238369 1.94434)
(0.529426 0.116467 0.781849)
(0.271893 -0.0326134 0.75172)
(-0.0217267 -0.00752458 1.30637)
(0.063611 0.019578 2.55975)
(-0.146164 0.0425514 2.421)
(-0.352123 0.227863 2.1919)
(0.277232 0.11253 1.84073)
(0.24564 0.0539731 1.69525)
(-0.0454133 0.0923325 1.94033)
(0.43567 -0.279916 1.40264)
(0.363523 -0.280149 1.36416)
(0.188042 -0.0761731 1.67628)
(0.210478 0.405575 2.11941)
(0.00438789 -0.0122677 0.874545)
(0.143783 0.077703 1.21515)
(0.295119 -0.242106 0.944712)
(0.189236 -0.246248 1.11488)
(0.0154481 -0.217937 1.84975)
(-0.0276147 0.482127 2.59382)
(0.0737053 0.111429 1.7603)
(0.458521 -0.0597263 0.916325)
(0.233737 -0.156543 1.06135)
(0.0189068 -0.0745773 1.56308)
(-0.160101 0.293579 2.16304)
(0.542197 0.0661452 0.769302)
(0.331108 -0.0309187 0.844755)
(0.0842273 -0.0537072 1.39093)
(0.151945 0.0212087 2.58673)
(-0.218258 0.213942 2.50104)
(-0.234444 0.192616 1.88078)
(0.253716 -0.0366456 1.76682)
(0.282798 0.0369299 1.79065)
(0.162979 0.174942 1.87358)
(0.47307 -0.285407 1.38862)
(0.362067 -0.242223 1.42339)
(0.180446 -0.0950842 1.77539)
(0.216486 0.409846 2.17705)
(-0.02274 -0.0560783 1.18449)
(-0.050025 -0.255973 1.31797)
(0.217467 -0.197719 0.863663)
(0.199423 -0.158827 1.13326)
(0.0112658 -0.257244 1.92646)
(-0.0280478 0.481987 2.71268)
(0.0128023 -0.225129 1.25461)
(0.410136 -0.00258873 0.822592)
(0.235878 -0.0581804 1.12026)
(0.0624848 -0.0846498 1.61815)
(-0.167594 0.326121 2.38741)
(0.453816 0.0505277 0.743566)
(0.321732 -0.0256557 0.945381)
(0.117825 -0.0564992 1.48063)
(0.194451 0.00479479 2.71443)
(-0.189078 0.248383 2.39527)
(0.125076 0.0296748 1.76314)
(0.221505 -0.144325 1.76027)
(0.272852 0.028678 1.91926)
(0.113362 -0.00879259 1.77747)
(0.447208 -0.243914 1.32924)
(0.328605 -0.18787 1.45827)
(0.157165 -0.108357 1.881)
(0.22551 0.412878 2.25028)
(0.0202447 0.0328908 1.29323)
(-0.0272954 -0.215582 1.35812)
(0.170398 -0.126992 0.775788)
(0.220461 -0.058674 1.10241)
(0.0170578 -0.264998 1.97815)
(-0.0268397 0.483882 2.82548)
(0.129187 0.0141296 0.897453)
(0.355151 0.0429288 0.770102)
(0.225848 0.0560628 1.19902)
(0.0607502 -0.0525498 1.68903)
(-0.170024 0.346826 2.58661)
(0.351897 0.0460922 0.729846)
(0.25926 -0.0102247 1.081)
(0.0899413 -0.0312753 1.58903)
(0.221606 0.000806182 2.88588)
(0.0104263 0.0191914 2.29931)
(0.29422 -0.0715753 1.85696)
(0.203198 -0.182747 1.85222)
(0.256943 0.0325969 2.0614)
(-0.0505251 -0.209634 1.59825)
(0.226583 -0.148534 1.14631)
(0.30071 -0.150524 1.46901)
(0.116451 -0.11109 1.96382)
(0.234743 0.419757 2.33908)
(0.0363803 0.0187497 1.00686)
(0.184413 -0.123827 1.17605)
(0.163721 -0.0950896 0.715435)
(0.242103 0.00887384 1.05358)
(0.0222755 -0.24932 2.00589)
(-0.0208338 0.479807 2.92765)
(0.190721 0.143954 0.702667)
(0.309188 0.043293 0.736312)
(0.208635 0.148113 1.29174)
(0.0531026 0.0142554 1.7724)
(-0.16992 0.363122 2.76147)
(0.253798 0.0211739 0.75374)
(0.133479 0.0713899 1.28556)
(0.019403 0.0133672 1.69856)
(0.23054 0.00369853 3.02828)
(0.0762998 -0.0888672 2.36051)
(0.26262 -0.0982009 2.02266)
(0.163099 -0.190797 1.93914)
(0.244395 0.0351274 2.19204)
(-0.163602 -0.104044 1.47862)
(-0.000783921 -0.134616 0.987946)
(0.306092 -0.128866 1.43922)
(0.0876337 -0.0813392 2.01639)
(0.238851 0.425022 2.43044)
(-0.00242942 0.0378938 0.689382)
(0.225951 -0.0684931 0.885252)
(0.16278 -0.0949056 0.662413)
(0.247766 0.0655655 0.994981)
(0.011466 -0.208821 2.01899)
(-0.0131556 0.475298 3.0218)
(0.189536 0.131927 0.550095)
(0.241183 0.00930795 0.731367)
(0.172576 0.210329 1.37248)
(0.0441446 0.0942646 1.87239)
(-0.166725 0.377099 2.91736)
(0.130349 -0.0152758 0.834952)
(-0.00609925 0.125458 1.49181)
(-0.0545567 0.0689429 1.77598)
(0.243586 0.00740941 3.14003)
(0.032943 -0.0178963 2.48799)
(0.10236 -0.138667 2.09588)
(0.125528 -0.18027 1.97179)
(0.230351 0.0348932 2.29679)
(-0.25122 0.0349556 1.52211)
(-0.0701991 -0.182764 0.88624)
(0.307748 -0.0596847 1.33749)
(0.0885261 -0.0682518 2.07593)
(0.244044 0.433682 2.51877)
(0.00859796 0.00975322 0.516416)
(0.216002 -0.0398532 0.652562)
(0.179748 -0.113335 0.603323)
(0.249058 0.114079 0.932964)
(0.0159968 -0.12061 2.00515)
(-0.00560478 0.473609 3.11116)
(0.150826 0.0788078 0.399009)
(0.157662 -0.0449438 0.73718)
(0.124529 0.273796 1.43237)
(0.000893397 0.165269 1.97129)
(-0.172554 0.402985 3.05997)
(0.0199651 -0.0501283 0.930088)
(-0.13324 0.133583 1.65587)
(-0.124687 0.133501 1.84734)
(0.250207 0.00943726 3.24319)
(-0.0788534 0.0740282 2.6066)
(-0.0704324 -0.166398 2.0628)
(0.0992859 -0.17105 1.98162)
(0.217429 0.0270738 2.38959)
(-0.198548 -0.0273933 1.65159)
(-0.0496438 -0.217411 0.851593)
(0.251373 0.00515637 1.19768)
(0.0824647 -0.0890322 2.09605)
(0.251661 0.439851 2.60409)
(0.00798084 -0.00693306 0.347789)
(0.217362 -0.058651 0.490665)
(0.206261 -0.14689 0.537909)
(0.257128 0.136682 0.868337)
(0.0615841 0.00792302 1.95334)
(0.00196174 0.464693 3.20236)
(0.0830662 0.0198323 0.27519)
(0.0886202 -0.106155 0.7444)
(0.0416606 0.314275 1.51216)
(-0.0713425 0.231515 2.05505)
(-0.177098 0.438098 3.18958)
(-0.0982526 -0.09332 1.03141)
(-0.237952 0.136023 1.77896)
(-0.19695 0.191927 1.94992)
(0.256896 0.00711967 3.32808)
(-0.182481 0.126088 2.67664)
(-0.133117 -0.181769 1.96776)
(0.0623837 -0.148249 1.98317)
(0.211617 0.027527 2.46854)
(-0.102655 -0.0350565 1.90216)
(0.0381105 -0.215142 0.863646)
(0.22875 0.00373651 1.0706)
(0.0705644 -0.0988661 2.08129)
(0.252945 0.437044 2.68021)
(-0.00429477 -0.0232447 0.179151)
(0.229312 -0.0763186 0.355409)
(0.223356 -0.180993 0.477056)
(0.250948 0.129074 0.808364)
(0.100773 0.113991 1.91194)
(0.00511665 0.449477 3.30234)
(0.032382 -0.0308461 0.173183)
(0.0398219 -0.159277 0.746389)
(-0.0534216 0.279759 1.59897)
(-0.0689022 0.304953 2.10015)
(-0.173879 0.469308 3.32389)
(-0.177774 -0.13858 1.07723)
(-0.303296 0.114986 1.89018)
(-0.269928 0.240283 2.0892)
(0.262069 0.00916808 3.40001)
(-0.229948 0.14943 2.67412)
(-0.238628 -0.170381 1.86466)
(-0.0240376 -0.11736 1.96171)
(0.196759 0.0297801 2.52929)
(0.00310053 0.192484 2.19035)
(0.2885 -0.196153 0.884321)
(0.306296 -0.045855 0.993848)
(0.0634653 -0.10069 2.01716)
(0.251043 0.427902 2.74647)
(-0.0217638 -0.00513435 0.104969)
(0.209632 -0.00899659 0.269408)
(0.232019 -0.180917 0.442146)
(0.203368 0.0840285 0.761367)
(0.106091 0.180839 1.87613)
(-0.00348923 0.442006 3.40968)
(-0.00293214 -0.0600255 0.119894)
(-0.0134238 -0.19404 0.750635)
(-0.0956381 0.200428 1.67372)
(-0.0389906 0.316367 2.11295)
(-0.16815 0.483317 3.46823)
(-0.223095 -0.173559 1.04481)
(-0.323326 0.0591509 1.9824)
(-0.323973 0.276188 2.2513)
(0.25398 0.00571478 3.46169)
(-0.228171 0.13428 2.58425)
(-0.274005 -0.0826002 1.78723)
(-0.13575 -0.105817 1.90386)
(0.174851 0.0180803 2.55569)
(0.158201 0.25376 2.25161)
(0.582671 -0.191003 0.893509)
(0.450376 -0.106117 0.993475)
(0.125969 -0.0776091 1.95645)
(0.251213 0.415227 2.81046)
(-0.0385607 -0.00736075 0.182242)
(0.128308 0.072982 0.299628)
(0.203781 -0.137577 0.434325)
(0.142125 0.00147467 0.717643)
(0.0966905 0.196327 1.83038)
(-0.0192973 0.445244 3.51034)
(-0.0349099 -0.0784732 0.122193)
(-0.092713 -0.185585 0.763838)
(-0.151464 0.1087 1.7514)
(-0.0182591 0.297045 2.11826)
(-0.164598 0.486796 3.61047)
(-0.24737 -0.173405 0.950879)
(-0.314507 0.0112963 2.05288)
(-0.363056 0.28826 2.40593)
(0.239636 0.00219482 3.51796)
(-0.114369 0.144676 2.45606)
(-0.285548 0.048853 1.80221)
(-0.183456 -0.126952 1.84695)
(0.147441 -0.00841573 2.58493)
(0.733496 0.203805 1.93699)
(0.740451 -0.18977 0.936624)
(0.531819 -0.139112 1.06487)
(0.181879 -0.0528771 1.97854)
(0.249415 0.407553 2.89559)
(-0.0384559 -0.0377232 0.293993)
(0.0104544 0.0500467 0.386675)
(0.117156 -0.0948573 0.42417)
(0.0939338 -0.0556068 0.671434)
(0.0926593 0.149947 1.77532)
(-0.0328269 0.453687 3.604)
(-0.0733768 -0.110784 0.163243)
(-0.221436 -0.147869 0.809053)
(-0.253531 -0.0279518 1.73035)
(0.00644892 0.250736 2.11457)
(-0.164233 0.486144 3.73906)
(-0.262731 -0.121575 0.865814)
(-0.279132 -0.0208789 2.10795)
(-0.36537 0.277585 2.53118)
(0.216175 0.000116736 3.5767)
(-0.0707364 0.125891 2.27695)
(-0.172445 0.193425 1.7697)
(-0.188256 -0.109968 1.7626)
(0.135121 -0.0461058 2.60286)
(0.399708 0.331269 1.55509)
(0.699372 -0.197621 0.985988)
(0.459362 -0.135067 1.17355)
(0.162233 -0.00389759 2.0518)
(0.240184 0.41596 3.00252)
(-0.0329469 -0.132227 0.378873)
(-0.0697068 -0.076665 0.458376)
(0.0260693 -0.113311 0.397923)
(0.054881 -0.0247337 0.636647)
(0.0936114 0.0648105 1.73256)
(-0.0363599 0.452181 3.68799)
(-0.114209 -0.158477 0.215134)
(-0.322401 -0.118127 0.835135)
(-0.285489 -0.113287 1.57073)
(0.0482866 0.179558 2.09652)
(-0.164494 0.483518 3.85626)
(-0.299672 -0.0796097 0.848128)
(-0.267345 -0.00394574 2.13068)
(-0.340773 0.23626 2.62755)
(0.225237 -0.000125816 3.62141)
(0.248121 -0.210401 2.15023)
(0.225246 0.137011 1.86979)
(-0.0245485 -0.0897471 1.71312)
(0.140108 -0.0759475 2.60869)
(0.149968 -0.237817 1.06009)
(0.249494 -0.168558 1.08079)
(0.0325826 -0.0202888 1.3147)
(0.0773069 0.102398 2.06361)
(0.225602 0.439657 3.10403)
(-0.0406244 -0.270604 0.421345)
(-0.104117 -0.230775 0.46378)
(-0.02771 -0.190906 0.373394)
(-0.00979249 0.116762 0.605333)
(0.0726117 0.00426455 1.73031)
(-0.0317682 0.437164 3.76061)
(-0.151272 -0.210495 0.253513)
(-0.346565 -0.105168 0.826545)
(-0.225403 -0.0179815 1.36545)
(0.101562 0.0828527 2.06636)
(-0.161646 0.473574 3.95727)
(-0.364925 -0.0900026 0.881139)
(-0.285102 0.0502057 2.1174)
(-0.28842 0.197275 2.69452)
(0.230265 -0.00221622 3.69728)
(0.338316 -0.384189 2.0034)
(0.648573 0.0247537 2.10427)
(0.221822 -0.109797 1.83852)
(0.156372 -0.0723886 2.64322)
(-0.059112 -0.552518 1.05183)
(-0.262877 -0.0427136 1.09935)
(-0.273236 0.121726 1.14461)
(0.0663556 0.0936574 1.99801)
(0.2011 0.468229 3.18528)
(-0.0401932 -0.359385 0.385691)
(-0.1082 -0.332608 0.437945)
(-0.0543533 -0.291491 0.361975)
(-0.0433926 0.232357 0.572625)
(0.028639 0.00537449 1.72925)
(-0.0211567 0.420498 3.82432)
(-0.176306 -0.25371 0.26739)
(-0.324457 -0.101999 0.803019)
(-0.181836 0.155442 1.23414)
(0.136899 0.0302089 2.0326)
(-0.152941 0.449151 4.05365)
(-0.410797 -0.138376 0.928313)
(-0.29122 0.0892016 2.07809)
(-0.237108 0.164504 2.75435)
(0.218111 -0.0225597 3.78215)
(0.313114 -0.473114 1.86019)
(0.729998 0.0431275 2.34264)
(0.292504 -0.105513 2.00607)
(0.182321 -0.0662022 2.69539)
(-0.27649 -0.568927 1.20234)
(-0.409473 0.0138733 1.01432)
(-0.259507 0.152197 0.877714)
(-0.0385489 -0.121635 1.8308)
(0.197119 0.47912 3.26782)
(-0.0419315 -0.390754 0.271421)
(-0.0874454 -0.421034 0.459451)
(-0.0659851 -0.395764 0.363402)
(-0.0369638 0.262269 0.544204)
(-0.0677921 0.0358218 1.67616)
(-0.00345227 0.413038 3.89022)
(-0.189405 -0.266881 0.260655)
(-0.269736 -0.127389 0.735497)
(-0.197613 0.26406 1.19222)
(0.123825 0.0608581 2.02794)
(-0.146916 0.42023 4.15173)
(-0.409592 -0.175263 0.939216)
(-0.275737 0.106695 2.04871)
(-0.201735 0.141245 2.82628)
(0.20213 -0.0242459 3.91214)
(0.312085 -0.522174 1.89516)
(0.625308 0.0978496 2.52642)
(0.17173 -0.185847 2.15566)
(0.169183 -0.0566963 2.75136)
(-0.375319 -0.536988 1.36149)
(-0.400626 -0.000153959 0.952947)
(-0.12673 0.0683054 0.683465)
(-0.233676 -0.362972 1.6293)
(0.237469 0.465781 3.31867)
(-0.046581 -0.314398 0.17304)