/*--------------------------------*- C++ -*----------------------------------*\
| =========                 |                                                 |
| \\      /  F ield         | OpenFOAM: The Open Source CFD Toolbox           |
|  \\    /   O peration     | Version:  5.x                                   |
|   \\  /    A nd           | Web:      www.OpenFOAM.org                      |
|    \\/     M anipulation  |                                                 |
\*---------------------------------------------------------------------------*/
FoamFile
{
    version     2.0;
    format      ascii;
    class       volVectorField;
    location    "2";
    object      Us;
}
// * * * * * * * * * * * * * * * * * * * * * * * * * * * * * * * * * * * * * //

dimensions      [0 1 -1 0 0 0 0];

internalField   nonuniform List<vector> 
10571
(
(-0.0878691 0.00575265 0.0392405)
(0.179174 -0.161395 -0.00890281)
(0.236852 -0.08915 0.113345)
(-0.153631 0.107482 0.211457)
(-0.145145 -0.00659836 0.0532506)
(0.142732 -0.303159 -0.0781996)
(0.265972 -0.40328 0.00985674)
(0.0450211 -0.557451 0.149414)
(-0.120592 -0.155482 0.227271)
(-0.113935 -0.215221 0.0956702)
(-0.00521906 -0.203327 -0.148203)
(0.113699 -0.36697 -0.0287756)
(0.0443962 -0.481343 0.02696)
(-0.00609033 -0.583921 0.00555698)
(-0.177757 -0.366343 0.0644296)
(-0.0486057 -0.180077 0.0771488)
(-0.0586295 -0.178642 -0.103745)
(-0.0483003 -0.287016 -0.0699082)
(0.015936 -0.275428 -0.100903)
(0.0220242 -0.235384 -0.0776064)
(0.00688441 -0.089139 -0.0248459)
(-0.0669662 -0.106832 -0.132062)
(0.0160688 -0.108431 -0.139336)
(0.0393311 -0.104507 -0.137731)
(0.0132168 -5.94846e-05 0.0922287)
(0.219658 -0.219184 0.195533)
(0.357671 -0.27635 0.299791)
(0.0548214 -0.239274 0.366317)
(0.0352788 -0.280468 0.216645)
(0.12904 -0.245937 0.0410834)
(0.201233 -0.406107 0.205869)
(0.123334 -0.526829 0.257268)
(-0.0107623 -0.392382 0.211096)
(-0.0734718 -0.218523 0.0893478)
(-0.013138 -0.133108 -0.152671)
(0.0147101 -0.280899 -0.0670501)
(0.063353 -0.2735 0.0434556)
(0.103348 -0.325824 0.0999996)
(0.0427191 -0.335589 0.0653973)
(-0.0142657 -0.249229 0.0579024)
(-0.0275512 -0.132604 -0.0697733)
(-0.0063725 -0.159971 -0.0483462)
(0.056322 -0.194203 -0.0247594)
(0.0851412 -0.300653 0.0186093)
(0.0819832 -0.184916 0.0138575)
(-0.0597584 -0.117203 -0.0218216)
(0.0248583 -0.13242 -0.00669049)
(0.0734879 -0.117239 0.027457)
(0.0289916 -0.0467045 0.261659)
(0.107648 -0.264906 0.283311)
(0.173742 -0.572211 0.503165)
(0.17136 -0.471617 0.401776)
(-0.0092407 -0.366768 0.293931)
(0.00754852 -0.364074 0.218138)
(0.168832 -0.309237 0.343639)
(0.2758 -0.400468 0.351184)
(0.142519 -0.318883 0.272095)
(0.0846677 -0.0576893 0.0218835)
(-0.00823038 -0.0547607 -0.111795)
(-0.0593406 -0.119732 -0.0839609)
(0.0649809 -0.110701 0.0295122)
(0.123692 -0.183325 0.0904965)
(0.0941739 -0.227749 0.0732637)
(-0.0398603 -0.121564 0.00570672)
(-0.0327812 -0.0282914 -0.0484206)
(-0.0053618 -0.0385016 -0.121836)
(0.0321045 -0.0692868 -0.11895)
(0.0721193 -0.19762 -0.0475549)
(0.0266044 -0.0926589 -0.0489965)
(-0.0366991 -0.0287793 0.0160167)
(0.0258255 -0.0580305 0.0217249)
(0.0571671 -0.0444007 0.00971836)
(0.140333 -0.0812188 0.519763)
(-0.0400605 0.0135806 0.0464609)
(-0.0406496 -0.497612 0.455565)
(0.0912381 -0.437624 0.333536)
(-0.127949 -0.327725 0.243813)
(-0.153358 -0.126024 -0.00928262)
(0.0467617 -0.158391 0.235907)
(0.161203 -0.188608 0.271942)
(0.115562 -0.0953593 0.0987153)
(0.0318791 0.0131332 -0.170279)
(0.000100182 -0.0100713 -0.0639002)
(-0.130267 -0.0343125 -0.110167)
(-0.0232469 -0.0101498 -0.0721587)
(0.0381743 -0.0584735 0.0601501)
(0.0636245 0.01304 0.0660197)
(-0.0133094 0.058752 -0.22187)
(-0.0356115 0.0140512 -0.0361459)
(-0.0470532 0.0575947 -0.187543)
(-0.00312178 0.0809355 -0.224348)
(0.0199354 0.134584 -0.277875)
(-0.0378224 0.051926 -0.229289)
(-0.0154644 -0.0180878 -0.0023326)
(0.0143876 0.00170896 -0.0235744)
(0.0235497 -0.0171613 -0.0499741)
(0.0952374 -0.0646863 0.222898)
(-0.00665331 0.0869124 0.183393)
(-0.0208693 -0.134676 0.0619174)
(0.105834 -0.0645723 -0.0335594)
(0.0519556 -0.0832267 0.0272864)
(-0.0669446 0.0848936 -0.161918)
(-0.00697341 -0.0554884 0.189603)
(0.0421841 -0.116161 0.174375)
(0.116537 -0.0776099 -0.0449599)
(0.0166234 -0.0315605 -0.0738134)
(0 0 0)
(0 0 0)
(-0.106846 -0.0120487 -0.156001)
(0.0083972 0.0179075 -0.157592)
(0.0950071 0.0449993 -0.194219)
(0.0977599 0.028282 -0.172466)
(0 0 0)
(-0.106232 0.100022 -0.257357)
(-0.00488502 0.110489 -0.260168)
(0.0679037 0.141091 -0.250359)
(0.0602145 0.0832577 -0.159269)
(0 0 0)
(0 0 0)
(0 0 0)
(0.101908 -0.00968157 0.224216)
(-0.0558705 0.0558754 0.340802)
(0.0875125 -0.0254089 0.116649)
(0.159486 0.0792562 -0.0761341)
(0.122699 0.0810107 -0.0315112)
(-0.116001 0.170337 0.0999088)
(0.102016 0.0951783 -0.160226)
(0.0436238 -0.0369397 -0.245325)
(0.0410651 0.0698319 -0.199651)
(0.0264694 0.162418 -0.15668)
(-0.0144337 0.00973203 -0.00710287)
(0.0673199 0.256532 -0.154608)
(0.154962 0.0343524 -0.255518)
(-0.0295084 0.0268175 -0.357317)
(0.0317314 -0.0244535 -0.345207)
(0.054586 0.0224722 -0.326925)
(-0.0589917 -0.0131238 -0.183)
(-0.0073384 -0.00124269 -0.00265619)
(0 0 0)
(0 0 0)
(0.00131717 0.0514795 -0.362058)
(0 0 0)
(-1.51394e-14 1.16181e-14 -1.87426e-14)
(0 0 0)
(0 0 0)
(0 0 0)
(0.118938 0.0153071 0.144382)
(-0.0247601 0.066841 0.130746)
(0.138759 0.10192 0.217694)
(0.180409 0.112318 -0.0726447)
(0.105515 0.110836 -0.00301213)
(0.0705846 0.15753 -0.0935342)
(0.157974 0.179415 -0.13714)
(0.0757689 0.205981 -0.119365)
(0.00646216 0.207103 -0.119083)
(0.0700492 0.202705 -0.155935)
(0.155424 0.116725 -0.241423)
(0 0 0)
(0 0 0)
(0 0 0)
(0 0 0)
(0.0161068 0.27591 -0.274726)
(-0.0362572 0.168229 -0.457901)
(0 0 0)
(0 0 0)
(0 0 0)
(0 0 0)
(0 0 0)
(0 0 0)
(0 0 0)
(0 0 0)
(0 0 0)
(0 0 0)
(0.096917 0.0205195 0.0434358)
(-0.0190686 0.0372468 0.116556)
(0.116118 0.131059 0.0858445)
(0.148483 0.136249 -0.029446)
(0.106737 0.113568 -0.0017514)
(0 0 0)
(0 0 0)
(0.11148 0.223063 -0.0332892)
(0.0337475 0.253872 -0.049677)
(0.0496726 0.167252 -0.150951)
(0 0 0)
(0 0 0)
(0 0 0)
(0 0 0)
(0 0 0)
(0.0391952 0.28382 -0.0699406)
(0 0 0)
(0 0 0)
(0 0 0)
(0 0 0)
(0 0 0)
(0 0 0)
(0 0 0)
(0 0 0)
(0 0 0)
(0 0 0)
(0 0 0)
(0.0559003 0.0402594 -0.0453375)
(0 0 0)
(0.0265856 0.0824213 0.0616862)
(0.103923 0.0940341 0.0545082)
(0.0807759 0.112385 -0.00128254)
(0 0 0)
(0 0 0)
(0.045857 0.280415 0.111741)
(0.0597262 0.235324 0.0159352)
(0.0408181 0.184998 -0.0424302)
(0 0 0)
(0 0 0)
(0 0 0)
(0 0 0)
(0 0 0)
(0 0 0)
(0 0 0)
(0.291094 0.411655 -0.00642376)
(0 0 0)
(0 0 0)
(0 0 0)
(0 0 0)
(0 0 0)
(0 0 0)
(0 0 0)
(0 0 0)
(0.0160888 0.0309993 0.027733)
(0 0 0)
(0 0 0)
(0.137441 0.0982386 0.0603922)
(0.0411086 0.0825765 -0.0254048)
(0 0 0)
(0 0 0)
(0.0982582 0.235374 0.172636)
(0.106095 0.216216 0.114343)
(0.116719 0.249752 0.0757237)
(0 0 0)
(0 0 0)
(0 0 0)
(0 0 0)
(0 0 0)
(0 0 0)
(0 0 0)
(0 0 0)
(0 0 0)
(0 0 0)
(0 0 0)
(0 0 0)
(0 0 0)
(0 0 0)
(0.0205852 0.00684943 -0.04252)
(0 0 0)
(0 0 0)
(0.0281416 0.109465 0.184066)
(0.0081918 0.0838463 0.0273061)
(0 0 0)
(0 0 0)
(0 0 0)
(0.107601 0.217681 0.15135)
(0 0 0)
(0 0 0)
(0 0 0)
(0 0 0)
(0 0 0)
(0 0 0)
(0 0 0)
(0 0 0)
(0 0 0)
(0 0 0)
(0 0 0)
(0 0 0)
(0 0 0)
(0 0 0)
(0 0 0)
(0.0278034 -0.0344564 0.0841662)
(0 0 0)
(0 0 0)
(0.0622745 0.0833725 0.0739033)
(0.0762545 0.107164 0.0923901)
(0 0 0)
(0 0 0)
(0 0 0)
(0.0878026 0.236791 0.144307)
(0 0 0)
(0 0 0)
(0 0 0)
(0 0 0)
(0 0 0)
(0 0 0)
(0 0 0)
(0 0 0)
(0 0 0)
(0 0 0)
(0 0 0)
(0 0 0)
(0 0 0)
(0 0 0)
(0 0 0)
(0.0577325 -0.0157639 0.147212)
(0 0 0)
(0 0 0)
(0.0952955 0.119625 0.252654)
(0 0 0)
(0 0 0)
(0 0 0)
(0 0 0)
(0 0 0)
(0 0 0)
(0 0 0)
(0 0 0)
(0 0 0)
(0 0 0)
(0 0 0)
(0 0 0)
(0 0 0)
(0 0 0)
(0 0 0)
(0 0 0)
(0 0 0)
(0 0 0)
(0 0 0)
(0 0 0)
(0 0 0)
(0 0 0)
(0 0 0)
(0 0 0)
(0 0 0)
(0 0 0)
(0 0 0)
(0 0 0)
(0 0 0)
(0 0 0)
(0 0 0)
(0 0 0)
(0 0 0)
(0 0 0)
(0 0 0)
(0 0 0)
(0 0 0)
(0 0 0)
(0 0 0)
(0 0 0)
(0 0 0)
(0 0 0)
(0 0 0)
(0 0 0)
(0 0 0)
(0 0 0)
(0 0 0)
(0 0 0)
(0 0 0)
(0 0 0)
(0 0 0)
(0 0 0)
(0 0 0)
(0 0 0)
(0 0 0)
(0 0 0)
(0 0 0)
(0 0 0)
(0 0 0)
(0 0 0)
(0 0 0)
(0 0 0)
(0 0 0)
(0 0 0)
(0 0 0)
(0 0 0)
(0 0 0)
(0 0 0)
(0 0 0)
(0 0 0)
(0 0 0)
(0 0 0)
(0 0 0)
(0 0 0)
(0 0 0)
(0 0 0)
(0 0 0)
(0 0 0)
(0 0 0)
(0 0 0)
(0 0 0)
(0 0 0)
(0 0 0)
(0 0 0)
(0 0 0)
(0 0 0)
(0 0 0)
(0 0 0)
(0 0 0)
(0 0 0)
(0 0 0)
(0 0 0)
(0 0 0)
(0 0 0)
(0 0 0)
(0 0 0)
(0 0 0)
(0 0 0)
(0 0 0)
(0 0 0)
(0 0 0)
(0 0 0)
(0 0 0)
(0 0 0)
(0 0 0)
(0 0 0)
(0 0 0)
(0 0 0)
(0 0 0)
(0 0 0)
(0 0 0)
(0 0 0)
(0 0 0)
(0 0 0)
(0 0 0)
(0 0 0)
(0 0 0)
(0 0 0)
(0 0 0)
(0 0 0)
(0 0 0)
(0 0 0)
(0 0 0)
(0 0 0)
(0 0 0)
(0 0 0)
(0 0 0)
(0 0 0)
(0 0 0)
(0 0 0)
(0 0 0)
(0 0 0)
(0 0 0)
(0 0 0)
(0 0 0)
(0 0 0)
(0 0 0)
(0 0 0)
(0 0 0)
(0 0 0)
(0 0 0)
(0 0 0)
(0 0 0)
(0 0 0)
(0 0 0)
(0 0 0)
(0 0 0)
(0 0 0)
(0 0 0)
(0 0 0)
(0 0 0)
(0 0 0)
(0 0 0)
(0 0 0)
(0 0 0)
(0 0 0)
(0 0 0)
(0 0 0)
(0 0 0)
(0 0 0)
(0 0 0)
(0 0 0)
(0 0 0)
(0 0 0)
(0 0 0)
(0 0 0)
(0 0 0)
(0 0 0)
(0 0 0)
(0 0 0)
(0 0 0)
(0 0 0)
(0 0 0)
(0 0 0)
(0 0 0)
(0 0 0)
(0 0 0)
(0 0 0)
(0 0 0)
(0 0 0)
(0 0 0)
(0 0 0)
(0 0 0)
(0 0 0)
(0 0 0)
(0 0 0)
(0 0 0)
(0 0 0)
(0 0 0)
(0 0 0)
(0 0 0)
(0 0 0)
(0 0 0)
(0 0 0)
(0 0 0)
(0 0 0)
(0 0 0)
(0 0 0)
(0 0 0)
(0 0 0)
(0 0 0)
(0 0 0)
(0 0 0)
(0 0 0)
(0 0 0)
(0 0 0)
(0 0 0)
(0 0 0)
(0 0 0)
(0 0 0)
(0 0 0)
(0 0 0)
(0 0 0)
(0 0 0)
(0 0 0)
(0 0 0)
(0 0 0)
(0 0 0)
(0 0 0)
(0 0 0)
(0 0 0)
(0 0 0)
(0 0 0)
(0 0 0)
(0 0 0)
(0 0 0)
(0 0 0)
(0 0 0)
(0 0 0)
(0 0 0)
(0 0 0)
(0 0 0)
(0 0 0)
(0 0 0)
(0 0 0)
(0 0 0)
(0 0 0)
(0 0 0)
(0 0 0)
(0 0 0)
(0 0 0)
(0 0 0)
(0 0 0)
(0 0 0)
(0 0 0)
(0 0 0)
(0 0 0)
(0 0 0)
(0 0 0)
(0 0 0)
(0 0 0)
(0 0 0)
(0 0 0)
(0 0 0)
(0 0 0)
(0 0 0)
(0 0 0)
(0 0 0)
(0 0 0)
(0 0 0)
(0 0 0)
(0 0 0)
(0 0 0)
(0 0 0)
(0 0 0)
(0 0 0)
(0 0 0)
(0 0 0)
(0 0 0)
(0 0 0)
(0 0 0)
(0 0 0)
(0 0 0)
(0 0 0)
(0 0 0)
(0 0 0)
(0 0 0)
(0 0 0)
(0 0 0)
(0 0 0)
(0 0 0)
(0 0 0)
(0 0 0)
(0 0 0)
(0 0 0)
(0 0 0)
(0 0 0)
(0 0 0)
(0 0 0)
(0 0 0)
(0 0 0)
(0 0 0)
(0 0 0)
(0 0 0)
(0 0 0)
(0 0 0)
(0 0 0)
(0 0 0)
(0 0 0)
(0 0 0)
(0 0 0)
(0 0 0)
(0 0 0)
(0 0 0)
(0 0 0)
(0 0 0)
(0 0 0)
(0 0 0)
(0 0 0)
(0 0 0)
(0 0 0)
(0 0 0)
(0 0 0)
(0 0 0)
(0 0 0)
(0 0 0)
(0 0 0)
(0 0 0)
(0 0 0)
(0 0 0)
(0 0 0)
(0 0 0)
(0 0 0)
(0 0 0)
(0 0 0)
(0 0 0)
(0 0 0)
(0 0 0)
(0 0 0)
(0 0 0)
(0 0 0)
(0 0 0)
(0 0 0)
(0 0 0)
(0 0 0)
(0 0 0)
(0 0 0)
(0 0 0)
(0 0 0)
(0 0 0)
(0 0 0)
(0 0 0)
(0 0 0)
(0 0 0)
(0 0 0)
(0 0 0)
(0 0 0)
(0 0 0)
(0 0 0)
(0 0 0)
(0 0 0)
(0 0 0)
(0 0 0)
(0 0 0)
(0 0 0)
(0 0 0)
(0 0 0)
(0 0 0)
(0 0 0)
(0 0 0)
(0 0 0)
(0 0 0)
(0 0 0)
(0 0 0)
(0 0 0)
(0 0 0)
(0 0 0)
(0 0 0)
(0 0 0)
(0 0 0)
(0 0 0)
(0 0 0)
(0 0 0)
(0 0 0)
(0 0 0)
(0 0 0)
(0 0 0)
(0 0 0)
(0 0 0)
(0 0 0)
(0 0 0)
(0 0 0)
(0 0 0)
(0 0 0)
(0 0 0)
(0 0 0)
(0 0 0)
(0 0 0)
(0 0 0)
(0 0 0)
(0 0 0)
(0 0 0)
(0 0 0)
(0 0 0)
(0 0 0)
(0 0 0)
(0 0 0)
(0 0 0)
(0 0 0)
(0 0 0)
(0 0 0)
(0 0 0)
(0 0 0)
(0 0 0)
(0 0 0)
(0 0 0)
(0 0 0)
(0 0 0)
(0 0 0)
(0 0 0)
(0 0 0)
(0 0 0)
(0 0 0)
(0 0 0)
(0 0 0)
(0 0 0)
(0 0 0)
(0 0 0)
(0 0 0)
(0 0 0)
(0 0 0)
(0 0 0)
(0 0 0)
(0 0 0)
(0 0 0)
(0 0 0)
(0 0 0)
(0 0 0)
(0 0 0)
(0 0 0)
(0 0 0)
(0 0 0)
(0 0 0)
(0 0 0)
(0 0 0)
(0 0 0)
(0 0 0)
(0 0 0)
(0 0 0)
(0 0 0)
(0 0 0)
(0 0 0)
(0 0 0)
(0 0 0)
(0 0 0)
(0 0 0)
(0 0 0)
(0 0 0)
(0 0 0)
(0 0 0)
(0 0 0)
(0 0 0)
(0 0 0)
(0 0 0)
(0 0 0)
(0 0 0)
(0 0 0)
(0 0 0)
(0 0 0)
(0 0 0)
(0 0 0)
(0 0 0)
(0 0 0)
(0 0 0)
(0 0 0)
(0 0 0)
(0 0 0)
(0 0 0)
(0 0 0)
(0 0 0)
(0 0 0)
(0 0 0)
(0 0 0)
(0 0 0)
(0 0 0)
(0 0 0)
(0 0 0)
(0 0 0)
(0 0 0)
(0 0 0)
(0 0 0)
(0 0 0)
(0 0 0)
(0 0 0)
(0 0 0)
(0 0 0)
(0 0 0)
(0 0 0)
(0 0 0)
(0 0 0)
(0 0 0)
(0 0 0)
(0 0 0)
(0 0 0)
(0 0 0)
(0 0 0)
(0 0 0)
(0 0 0)
(0 0 0)
(0 0 0)
(0 0 0)
(0 0 0)
(0 0 0)
(0 0 0)
(0 0 0)
(0 0 0)
(0 0 0)
(0 0 0)
(0 0 0)
(0 0 0)
(0 0 0)
(0 0 0)
(0 0 0)
(0 0 0)
(0 0 0)
(0 0 0)
(0 0 0)
(0 0 0)
(0 0 0)
(0 0 0)
(0 0 0)
(0 0 0)
(0 0 0)
(0 0 0)
(0 0 0)
(0 0 0)
(0 0 0)
(0 0 0)
(0 0 0)
(0 0 0)
(0 0 0)
(0 0 0)
(0 0 0)
(0 0 0)
(0 0 0)
(0 0 0)
(0 0 0)
(0 0 0)
(0 0 0)
(0 0 0)
(0 0 0)
(0 0 0)
(0 0 0)
(0 0 0)
(0 0 0)
(0 0 0)
(0 0 0)
(0 0 0)
(0 0 0)
(0 0 0)
(0 0 0)
(0 0 0)
(0 0 0)
(0 0 0)
(0 0 0)
(0 0 0)
(0 0 0)
(0 0 0)
(0 0 0)
(0 0 0)
(0 0 0)
(0 0 0)
(0 0 0)
(0 0 0)
(0 0 0)
(0 0 0)
(0 0 0)
(0 0 0)
(0 0 0)
(0 0 0)
(0 0 0)
(0 0 0)
(0 0 0)
(0 0 0)
(0 0 0)
(0 0 0)
(0 0 0)
(0 0 0)
(0 0 0)
(0 0 0)
(0 0 0)
(0 0 0)
(0 0 0)
(0 0 0)
(0 0 0)
(0 0 0)
(0 0 0)
(0 0 0)
(0 0 0)
(0 0 0)
(0 0 0)
(0 0 0)
(0 0 0)
(0 0 0)
(0 0 0)
(0 0 0)
(0 0 0)
(0 0 0)
(0 0 0)
(0 0 0)
(0 0 0)
(0 0 0)
(0 0 0)
(0 0 0)
(0 0 0)
(0 0 0)
(0 0 0)
(0 0 0)
(0 0 0)
(0 0 0)
(0 0 0)
(0 0 0)
(0 0 0)
(0 0 0)
(0 0 0)
(0 0 0)
(0 0 0)
(0 0 0)
(0 0 0)
(0 0 0)
(0 0 0)
(0 0 0)
(0 0 0)
(0 0 0)
(0 0 0)
(0 0 0)
(0 0 0)
(0 0 0)
(0 0 0)
(0 0 0)
(0 0 0)
(0 0 0)
(0 0 0)
(0 0 0)
(0 0 0)
(0 0 0)
(0 0 0)
(0 0 0)
(0 0 0)
(0 0 0)
(0 0 0)
(0 0 0)
(0 0 0)
(0 0 0)
(0 0 0)
(0 0 0)
(0 0 0)
(0 0 0)
(0 0 0)
(0 0 0)
(0 0 0)
(0 0 0)
(0 0 0)
(0 0 0)
(0 0 0)
(0 0 0)
(0 0 0)
(0 0 0)
(0 0 0)
(0 0 0)
(0 0 0)
(0 0 0)
(0 0 0)
(0 0 0)
(0 0 0)
(0 0 0)
(0 0 0)
(0 0 0)
(0 0 0)
(0 0 0)
(0 0 0)
(0 0 0)
(0 0 0)
(0 0 0)
(0 0 0)
(0 0 0)
(0 0 0)
(0 0 0)
(0 0 0)
(0 0 0)
(0 0 0)
(0 0 0)
(0 0 0)
(0 0 0)
(0 0 0)
(0 0 0)
(0 0 0)
(0 0 0)
(0 0 0)
(0 0 0)
(0 0 0)
(0 0 0)
(0 0 0)
(0 0 0)
(0 0 0)
(0 0 0)
(0 0 0)
(0 0 0)
(0 0 0)
(0 0 0)
(0 0 0)
(0 0 0)
(0 0 0)
(0 0 0)
(0 0 0)
(0 0 0)
(0 0 0)
(0 0 0)
(0 0 0)
(0 0 0)
(0 0 0)
(0 0 0)
(0 0 0)
(0 0 0)
(0 0 0)
(0 0 0)
(0 0 0)
(0 0 0)
(0 0 0)
(0 0 0)
(0 0 0)
(0 0 0)
(0 0 0)
(0 0 0)
(0 0 0)
(0 0 0)
(0 0 0)
(0 0 0)
(0 0 0)
(0 0 0)
(0 0 0)
(0 0 0)
(0 0 0)
(0 0 0)
(0 0 0)
(0 0 0)
(0 0 0)
(0 0 0)
(0 0 0)
(0 0 0)
(0 0 0)
(0 0 0)
(0 0 0)
(0 0 0)
(0 0 0)
(0 0 0)
(0 0 0)
(0 0 0)
(0 0 0)
(0 0 0)
(0 0 0)
(0 0 0)
(0 0 0)
(0 0 0)
(0 0 0)
(0 0 0)
(0 0 0)
(0 0 0)
(0 0 0)
(0 0 0)
(0 0 0)
(0 0 0)
(0 0 0)
(0 0 0)
(0 0 0)
(0 0 0)
(0 0 0)
(0 0 0)
(0 0 0)
(0 0 0)
(0 0 0)
(0 0 0)
(0 0 0)
(0 0 0)
(0 0 0)
(0 0 0)
(0 0 0)
(0 0 0)
(0 0 0)
(0 0 0)
(0 0 0)
(0 0 0)
(0 0 0)
(0 0 0)
(0 0 0)
(0 0 0)
(0 0 0)
(0 0 0)
(0 0 0)
(0 0 0)
(0 0 0)
(0 0 0)
(0 0 0)
(0 0 0)
(0 0 0)
(0 0 0)
(0 0 0)
(0 0 0)
(0 0 0)
(0 0 0)
(0 0 0)
(0 0 0)
(0 0 0)
(0 0 0)
(0 0 0)
(0 0 0)
(0 0 0)
(0 0 0)
(0 0 0)
(0 0 0)
(0 0 0)
(0 0 0)
(0 0 0)
(0 0 0)
(0 0 0)
(0 0 0)
(0 0 0)
(0 0 0)
(0 0 0)
(0 0 0)
(0 0 0)
(0 0 0)
(0 0 0)
(0 0 0)
(0 0 0)
(0 0 0)
(0 0 0)
(0 0 0)
(0 0 0)
(0 0 0)
(0 0 0)
(0 0 0)
(0 0 0)
(0 0 0)
(0 0 0)
(0 0 0)
(0 0 0)
(0 0 0)
(0 0 0)
(0 0 0)
(0 0 0)
(0 0 0)
(0 0 0)
(0 0 0)
(0 0 0)
(0 0 0)
(0 0 0)
(0 0 0)
(0 0 0)
(0 0 0)
(0 0 0)
(0 0 0)
(0 0 0)
(0 0 0)
(0 0 0)
(0 0 0)
(0 0 0)
(0 0 0)
(0 0 0)
(0 0 0)
(0 0 0)
(0 0 0)
(0 0 0)
(0 0 0)
(0 0 0)
(0 0 0)
(0 0 0)
(0 0 0)
(0 0 0)
(0 0 0)
(0 0 0)
(0 0 0)
(0 0 0)
(0 0 0)
(0 0 0)
(0 0 0)
(0 0 0)
(0 0 0)
(0 0 0)
(0 0 0)
(0 0 0)
(0 0 0)
(0 0 0)
(0 0 0)
(0 0 0)
(0 0 0)
(0 0 0)
(0 0 0)
(0 0 0)
(0 0 0)
(0 0 0)
(0 0 0)
(0 0 0)
(0 0 0)
(0 0 0)
(0 0 0)
(0 0 0)
(0 0 0)
(0 0 0)
(0 0 0)
(0 0 0)
(0 0 0)
(0 0 0)
(0 0 0)
(0 0 0)
(0 0 0)
(0 0 0)
(0 0 0)
(0 0 0)
(0 0 0)
(0 0 0)
(0 0 0)
(0 0 0)
(0 0 0)
(0 0 0)
(0 0 0)
(0 0 0)
(0 0 0)
(0 0 0)
(0 0 0)
(0 0 0)
(0 0 0)
(0 0 0)
(0 0 0)
(0 0 0)
(0 0 0)
(0 0 0)
(0 0 0)
(0 0 0)
(0 0 0)
(0 0 0)
(0 0 0)
(0 0 0)
(0 0 0)
(0 0 0)
(0 0 0)
(0 0 0)
(0 0 0)
(0 0 0)
(0 0 0)
(0 0 0)
(0 0 0)
(0 0 0)
(0 0 0)
(0 0 0)
(0 0 0)
(0 0 0)
(0 0 0)
(0 0 0)
(0 0 0)
(0 0 0)
(0 0 0)
(0 0 0)
(0 0 0)
(0 0 0)
(0 0 0)
(0 0 0)
(0 0 0)
(0 0 0)
(0 0 0)
(0 0 0)
(0 0 0)
(0 0 0)
(0 0 0)
(0 0 0)
(0 0 0)
(0 0 0)
(0 0 0)
(0 0 0)
(0 0 0)
(0 0 0)
(0 0 0)
(0 0 0)
(0 0 0)
(0 0 0)
(0 0 0)
(0 0 0)
(0 0 0)
(0 0 0)
(0 0 0)
(0 0 0)
(0 0 0)
(0 0 0)
(0 0 0)
(0 0 0)
(0 0 0)
(0 0 0)
(0 0 0)
(0 0 0)
(0 0 0)
(0 0 0)
(0 0 0)
(0 0 0)
(0 0 0)
(0 0 0)
(0 0 0)
(0 0 0)
(0 0 0)
(0 0 0)
(0 0 0)
(0 0 0)
(0 0 0)
(0 0 0)
(0 0 0)
(0 0 0)
(0 0 0)
(0 0 0)
(0 0 0)
(0 0 0)
(0 0 0)
(0 0 0)
(0 0 0)
(0 0 0)
(0 0 0)
(0 0 0)
(0 0 0)
(0 0 0)
(0 0 0)
(0 0 0)
(0 0 0)
(0 0 0)
(0 0 0)
(0 0 0)
(0 0 0)
(0 0 0)
(0 0 0)
(0 0 0)
(0 0 0)
(0 0 0)
(0 0 0)
(0 0 0)
(0 0 0)
(0 0 0)
(0 0 0)
(0 0 0)
(0 0 0)
(0 0 0)
(0 0 0)
(0 0 0)
(0 0 0)
(0 0 0)
(0 0 0)
(0 0 0)
(0 0 0)
(0 0 0)
(0 0 0)
(0 0 0)
(0 0 0)
(0 0 0)
(0 0 0)
(0 0 0)
(0 0 0)
(0 0 0)
(0 0 0)
(0 0 0)
(0 0 0)
(0 0 0)
(0 0 0)
(0 0 0)
(0 0 0)
(0 0 0)
(0 0 0)
(0 0 0)
(0 0 0)
(0 0 0)
(0 0 0)
(0 0 0)
(0 0 0)
(0 0 0)
(0 0 0)
(0 0 0)
(0 0 0)
(0 0 0)
(0 0 0)
(0 0 0)
(0 0 0)
(0 0 0)
(0 0 0)
(0 0 0)
(0 0 0)
(0 0 0)
(0 0 0)
(0 0 0)
(0 0 0)
(0 0 0)
(0 0 0)
(0 0 0)
(0 0 0)
(0 0 0)
(0 0 0)
(0 0 0)
(0 0 0)
(0 0 0)
(0 0 0)
(0 0 0)
(0 0 0)
(0 0 0)
(0 0 0)
(0 0 0)
(0 0 0)
(0 0 0)
(0 0 0)
(0 0 0)
(0 0 0)
(0 0 0)
(0 0 0)
(0 0 0)
(0 0 0)
(0 0 0)
(0 0 0)
(0 0 0)
(0 0 0)
(0 0 0)
(0 0 0)
(0 0 0)
(0 0 0)
(0 0 0)
(0 0 0)
(0 0 0)
(0 0 0)
(0 0 0)
(0 0 0)
(0 0 0)
(0 0 0)
(0 0 0)
(0 0 0)
(0 0 0)
(0 0 0)
(0 0 0)
(0 0 0)
(0 0 0)
(0 0 0)
(0 0 0)
(0 0 0)
(0 0 0)
(0 0 0)
(0 0 0)
(0 0 0)
(0 0 0)
(0 0 0)
(0 0 0)
(0 0 0)
(0 0 0)
(0 0 0)
(0 0 0)
(0 0 0)
(0 0 0)
(0 0 0)
(0 0 0)
(0 0 0)
(0 0 0)
(0 0 0)
(0 0 0)
(0 0 0)
(0 0 0)
(0 0 0)
(0 0 0)
(0 0 0)
(0 0 0)
(0 0 0)
(0 0 0)
(0 0 0)
(0 0 0)
(0 0 0)
(0 0 0)
(0 0 0)
(0 0 0)
(0 0 0)
(0 0 0)
(0 0 0)
(0 0 0)
(0 0 0)
(0 0 0)
(0 0 0)
(0 0 0)
(0 0 0)
(0 0 0)
(0 0 0)
(0 0 0)
(0 0 0)
(0 0 0)
(0 0 0)
(0 0 0)
(0 0 0)
(0 0 0)
(0 0 0)
(0 0 0)
(0 0 0)
(0 0 0)
(0 0 0)
(0 0 0)
(0 0 0)
(0 0 0)
(0 0 0)
(0 0 0)
(0 0 0)
(0 0 0)
(0 0 0)
(0 0 0)
(0 0 0)
(0 0 0)
(0 0 0)
(0 0 0)
(0 0 0)
(0 0 0)
(0 0 0)
(0 0 0)
(0 0 0)
(0 0 0)
(0 0 0)
(0 0 0)
(0 0 0)
(0 0 0)
(0 0 0)
(0 0 0)
(0 0 0)
(0 0 0)
(0 0 0)
(0 0 0)
(0 0 0)
(0 0 0)
(0 0 0)
(0 0 0)
(0 0 0)
(0 0 0)
(0 0 0)
(0 0 0)
(0 0 0)
(0 0 0)
(0 0 0)
(0 0 0)
(0 0 0)
(0 0 0)
(0 0 0)
(0 0 0)
(0 0 0)
(0 0 0)
(0 0 0)
(0 0 0)
(0 0 0)
(0 0 0)
(0 0 0)
(0 0 0)
(0 0 0)
(0 0 0)
(0 0 0)
(0 0 0)
(0 0 0)
(0 0 0)
(0 0 0)
(0 0 0)
(0 0 0)
(0 0 0)
(0 0 0)
(0 0 0)
(0 0 0)
(0 0 0)
(0 0 0)
(0 0 0)
(0 0 0)
(0 0 0)
(0 0 0)
(0 0 0)
(0 0 0)
(0 0 0)
(0 0 0)
(0 0 0)
(0 0 0)
(0 0 0)
(0 0 0)
(0 0 0)
(0 0 0)
(0 0 0)
(0 0 0)
(0 0 0)
(0 0 0)
(0 0 0)
(0 0 0)
(0 0 0)
(0 0 0)
(0 0 0)
(0 0 0)
(0 0 0)
(0 0 0)
(0 0 0)
(0 0 0)
(0 0 0)
(0 0 0)
(0 0 0)
(0 0 0)
(0 0 0)
(0 0 0)
(0 0 0)
(0 0 0)
(0 0 0)
(0 0 0)
(0 0 0)
(0 0 0)
(0 0 0)
(0 0 0)
(0 0 0)
(0 0 0)
(0 0 0)
(0 0 0)
(0 0 0)
(0 0 0)
(0 0 0)
(0 0 0)
(0 0 0)
(0 0 0)
(0 0 0)
(0 0 0)
(0 0 0)
(0 0 0)
(0 0 0)
(0 0 0)
(0 0 0)
(0 0 0)
(0 0 0)
(0 0 0)
(0 0 0)
(0 0 0)
(0 0 0)
(0 0 0)
(0 0 0)
(0 0 0)
(0 0 0)
(0 0 0)
(0 0 0)
(0 0 0)
(0 0 0)
(0 0 0)
(0 0 0)
(0 0 0)
(0 0 0)
(0 0 0)
(0 0 0)
(0 0 0)
(0 0 0)
(0 0 0)
(0 0 0)
(0 0 0)
(0 0 0)
(0 0 0)
(0 0 0)
(0 0 0)
(0 0 0)
(0 0 0)
(0 0 0)
(0 0 0)
(0 0 0)
(0 0 0)
(0 0 0)
(0 0 0)
(0 0 0)
(0 0 0)
(0 0 0)
(0 0 0)
(0 0 0)
(0 0 0)
(0 0 0)
(0 0 0)
(0 0 0)
(0 0 0)
(0 0 0)
(0 0 0)
(0 0 0)
(0 0 0)
(0 0 0)
(0 0 0)
(0 0 0)
(0 0 0)
(0 0 0)
(0 0 0)
(0 0 0)
(0 0 0)
(0 0 0)
(0 0 0)
(0 0 0)
(0 0 0)
(0 0 0)
(0 0 0)
(0 0 0)
(0 0 0)
(0 0 0)
(0 0 0)
(0 0 0)
(0 0 0)
(0 0 0)
(0 0 0)
(0 0 0)
(0 0 0)
(0 0 0)
(0 0 0)
(0 0 0)
(0 0 0)
(0 0 0)
(0 0 0)
(0 0 0)
(0 0 0)
(0 0 0)
(0 0 0)
(0 0 0)
(0 0 0)
(0 0 0)
(0 0 0)
(0 0 0)
(0 0 0)
(0 0 0)
(0 0 0)
(0 0 0)
(0 0 0)
(0 0 0)
(0 0 0)
(0 0 0)
(0 0 0)
(0 0 0)
(0 0 0)
(0 0 0)
(0 0 0)
(0 0 0)
(0 0 0)
(0 0 0)
(0 0 0)
(0 0 0)
(0 0 0)
(0 0 0)
(0 0 0)
(0 0 0)
(0 0 0)
(0 0 0)
(0 0 0)
(0 0 0)
(0 0 0)
(0 0 0)
(0 0 0)
(0 0 0)
(0 0 0)
(0 0 0)
(0 0 0)
(0 0 0)
(0 0 0)
(0 0 0)
(0 0 0)
(0 0 0)
(0 0 0)
(0 0 0)
(0 0 0)
(0 0 0)
(0 0 0)
(0 0 0)
(0 0 0)
(0 0 0)
(0 0 0)
(0 0 0)
(0 0 0)
(0 0 0)
(0 0 0)
(0 0 0)
(0 0 0)
(0 0 0)
(0 0 0)
(0 0 0)
(0 0 0)
(0 0 0)
(0 0 0)
(0 0 0)
(0 0 0)
(0 0 0)
(0 0 0)
(0 0 0)
(0 0 0)
(0 0 0)
(0 0 0)
(0 0 0)
(0 0 0)
(0 0 0)
(0 0 0)
(0 0 0)
(0 0 0)
(0 0 0)
(0 0 0)
(0 0 0)
(0 0 0)
(0 0 0)
(0 0 0)
(0 0 0)
(0 0 0)
(0 0 0)
(0 0 0)
(0 0 0)
(0 0 0)
(0 0 0)
(0 0 0)
(0 0 0)
(0 0 0)
(0 0 0)
(0 0 0)
(0 0 0)
(0 0 0)
(0 0 0)
(0 0 0)
(0 0 0)
(0 0 0)
(0 0 0)
(0 0 0)
(0 0 0)
(0 0 0)
(0 0 0)
(0 0 0)
(0 0 0)
(0 0 0)
(0 0 0)
(0 0 0)
(0 0 0)
(0 0 0)
(0 0 0)
(0.0641718 -0.0146769 -0.0103032)
(-0.060253 0.0299277 0.0231035)
(0.0435949 0.0266057 0.0249321)
(-0.016116 0.0549824 0.0486047)
(-0.0725058 0.0197023 0.000996272)
(-0.0607062 0.0403819 0.0522988)
(-0.0196525 0.0615509 -0.000800562)
(-0.0305124 0.0316805 -0.0224925)
(0.0497629 -0.0931509 0.00095317)
(0.0705482 -0.0538997 -0.0154332)
(0.139554 -0.0666075 -0.0177659)
(0.0964555 -0.150156 0.00124921)
(0.14178 -0.159152 0.00442016)
(0.115853 -0.0238184 0.0240524)
(0.015718 0.0387837 0.0369413)
(0.0505099 -0.052699 0.0104783)
(-0.00901413 0.00288317 0.0253742)
(-0.0403688 0.0276747 0.0582681)
(-0.0631994 0.109221 0.0420905)
(-0.0130367 -0.070719 0.0479066)
(0.0355311 -0.0432272 0.0472742)
(-0.0486972 0.0767416 0.0156627)
(-0.044921 -0.0100867 -0.00566779)
(-0.0446099 0.0122489 0.0462831)
(-0.0753061 -0.0542516 0.039825)
(-0.0654966 -0.0869976 0.036162)
(0.0847465 -0.289039 -0.0129802)
(0.0342723 -0.20881 -0.0397247)
(0.0815646 -0.284154 -0.053862)
(0.139786 -0.319017 -0.0278378)
(0.199101 -0.285037 -0.0180378)
(0.162716 -0.282503 -0.0386223)
(0.217961 -0.287918 -0.0227698)
(0.172788 -0.190698 0.0123413)
(0.136043 -0.162307 0.039303)
(0.20749 -0.316362 -0.00386171)
(0.172109 -0.427206 0.0133388)
(0.0601958 -0.287222 0.0687715)
(-0.0549895 -0.145993 0.0426099)
(0.0612352 -0.480564 -0.000507524)
(-0.230065 -0.400601 0.0306448)
(-0.0437154 -0.113124 0.0450935)
(-0.0942115 -0.0800274 0.0766652)
(-0.33771 -0.252039 0.0440604)
(-0.223794 -0.106838 0.0419406)
(-0.0892175 -0.10508 0.05617)
(-0.101651 -0.0746342 0.00784915)
(-0.0212824 -0.0558696 -0.0287661)
(0.0227774 -0.1473 -0.0635974)
(0.0736487 -0.150429 -0.0485443)
(0.0447619 -0.0431585 -0.027032)
(0.170709 -0.188431 -0.0265104)
(0.185407 -0.22449 -0.00762643)
(0.096444 -0.115877 -0.015534)
(0.0940294 -0.209377 -0.00172856)
(0.148617 -0.322506 0.005617)
(0.103526 -0.436273 -0.020916)
(0.059715 -0.305922 -0.0122055)
(0.0674269 -0.335394 -0.0336242)
(0.0401891 -0.453785 -0.0290312)
(-0.123375 -0.430021 -0.0127169)
(0.0291516 -0.343605 -0.0225709)
(-0.039611 -0.331111 -0.0191366)
(-0.227733 -0.316642 -0.0208327)
(-0.188809 -0.160131 -0.0168681)
(-0.0957274 -0.25304 -0.0242226)
(-0.104521 -0.132437 -0.0264758)
(-0.0983751 -0.0705629 -0.034612)
(-0.0280975 -0.0294847 -0.0294557)
(-0.0517183 -0.0280981 -0.0230178)
(0.00453232 -0.0246727 -0.00928423)
(0.0010992 -0.086766 -0.0115637)
(-0.00133146 -0.179823 -0.0138283)
(-0.0267695 -0.0550892 -0.0153338)
(-0.0407709 -0.0875014 -0.0223816)
(0.0136404 -0.209929 -0.0274523)
(0.0298231 -0.221582 -0.0196972)
(-0.0158599 -0.108925 -0.0245659)
(0.00949851 -0.117707 -0.0276941)
(0.0298207 -0.224506 -0.0219339)
(0.0148274 -0.214389 -0.0217878)
(0.0293025 -0.113064 -0.0176777)
(0.0497404 -0.11717 -0.0237193)
(-0.0167442 -0.159371 -0.029577)
(-0.0196854 -0.0764679 -0.0374846)
(0.021992 -0.0607007 -0.0280088)
(0.00410492 -0.0198978 -0.0204536)
(-0.0228393 -0.0190112 -0.0122639)
(-0.00673063 -0.0143734 -0.0126613)
(-0.00967376 -0.0239457 -0.00671551)
(0.00399848 -0.0220308 -0.0369917)
(0.00690781 -0.0114317 -0.0801513)
(0.0270265 -0.0250427 -0.0274718)
(0.0455501 -0.0266225 -0.00281418)
(0.0160308 -0.00668476 -0.0492114)
(0.00233454 0.00103243 -0.00227882)
(0.184024 -0.0972248 0.0348816)
(0.210128 -0.118154 0.078606)
(-0.0224199 0.01314 0.0443806)
(0.162127 -0.0348153 0.071688)
(0.0160589 0.0544971 0.124549)
(0.0282218 -0.00328283 0.0942088)
(0.211255 -0.067158 0.122415)
(0.0905559 0.00140819 0.184251)
(-0.122815 0.0515111 0.10987)
(-0.103613 0.0139521 0.0631565)
(-0.0320304 0.000545852 0.064246)
(-0.0650167 0.0231922 0.125282)
(-0.0783439 -0.00480322 0.0598778)
(-0.0972368 -0.0272516 0.00264198)
(-0.0881021 -0.0397028 -0.000114709)
(0.100144 -0.341666 -0.0405263)
(0.103783 -0.247463 -0.00540848)
(0.227297 -0.153739 0.0514213)
(0.171989 -0.290391 -0.0320419)
(0.232511 -0.293896 -0.0161384)
(0.209819 -0.189398 0.107804)
(0.267456 -0.20457 0.127865)
(0.191899 -0.268707 0.0824524)
(0.295617 -0.294212 0.10767)
(-0.151294 -0.123418 0.0138825)
(-0.0470592 0.0272446 0.208243)
(-0.14676 -0.188088 0.132501)
(-0.143086 -0.0839056 0.0920239)
(-0.136946 -0.127679 0.0355946)
(-0.0151457 -0.153251 0.311913)
(-0.119716 -0.227757 0.175206)
(-0.116186 -0.197134 0.0726727)
(-0.094606 -0.171294 0.0677219)
(0.0949578 -0.292574 -0.0934308)
(0.0240463 -0.230669 -0.138714)
(0.055318 -0.272543 -0.148113)
(0.080281 -0.208103 -0.0990398)
(0.0148375 -0.172179 -0.171832)
(0.0321642 -0.213596 -0.184415)
(-0.0794231 -0.209944 0.0966709)
(-0.0249122 -0.182861 0.107452)
(-0.0962379 -0.233395 0.0805755)
(-0.0757086 -0.25613 0.083234)
(-0.031709 -0.186592 0.0809652)
(0.0124581 -0.248073 -0.144715)
(-0.0345112 -0.223881 -0.122632)
(-0.00726036 -0.17833 -0.17441)
(-0.0148993 -0.241087 -0.183528)
(-0.0412002 -0.219024 -0.131725)
(-0.00708742 -0.1706 0.109365)
(-0.00888478 -0.120002 0.0226277)
(-0.010542 -0.232377 0.0809215)
(0.00929378 -0.180542 0.101012)
(0.0337412 -0.192895 0.0440425)
(-0.0483504 -0.156887 -0.105872)
(-0.0498097 -0.156308 -0.105533)
(-0.0554996 -0.249192 -0.0798581)
(-0.0973848 -0.136903 -0.101202)
(-0.101393 -0.161705 -0.102977)
(-0.0252565 -0.159421 -0.115855)
(-0.000524674 -0.216325 -0.106469)
(-0.060143 -0.102187 -0.111556)
(-0.0556146 -0.150876 -0.106557)
(0.00305829 -0.133826 -0.0633957)
(0.0398238 -0.151363 -0.116204)
(0.0380137 -0.0894879 -0.098924)
(0.0522635 -0.258187 -0.063676)
(0.0799804 -0.215257 -0.0313446)
(0.0581313 -0.153061 -0.085783)
(0.0809552 -0.154741 -0.0498238)
(0.0704728 -0.161271 0.00608077)
(-0.0909128 -0.100651 -0.124556)
(-0.0833032 -0.0974435 -0.0988931)
(-0.0206212 -0.0977887 -0.142552)
(-0.00337652 -0.0292059 -0.11823)
(-0.0680194 -0.121621 -0.105354)
(-0.0220795 -0.104092 -0.11388)
(-0.0146812 -0.0335298 -0.0707772)
(0.0316481 -0.110993 -0.143795)
(0.0122381 -0.0215132 -0.137574)
(0.0167683 -0.0883497 -0.100282)
(0.0332659 -0.124926 -0.115924)
(0.0115495 -0.0256081 -0.0402019)
(0.0503697 -0.0950562 -0.0781768)
(0.237892 -0.146057 0.139885)
(0.201684 -0.221912 0.276947)
(0.071076 -0.0131264 0.156994)
(0.232796 -0.118602 0.212902)
(0.151441 -0.0660492 0.297472)
(0.0805327 -0.037535 0.29202)
(0.206998 -0.245423 0.366906)
(0.185544 -0.186892 0.4544)
(0.0129451 -0.030376 0.187657)
(-0.013402 -0.0185317 0.0849402)
(0.0314679 -0.0157294 0.162959)
(0.082873 -0.103276 0.308152)
(0.0591341 -0.0974507 0.155385)
(-0.0621613 -0.0370539 0.00684135)
(-0.090133 -0.129106 0.0536409)
(0.118206 -0.193476 0.0939965)
(0.11316 -0.176832 0.0788621)
(0.287954 -0.250505 0.223579)
(0.184512 -0.247325 0.199008)
(0.296932 -0.343057 0.254361)
(0.192886 -0.250824 0.240647)
(0.241484 -0.344424 0.333334)
(0.169522 -0.301854 0.261989)
(0.220782 -0.40702 0.38646)
(-0.0401046 -0.134248 0.0512202)
(0.0592481 -0.373881 0.415808)
(-0.020704 -0.21409 0.252412)
(0.0420088 -0.36415 0.243321)
(0.0113869 -0.139922 0.11622)
(0.0695201 -0.496996 0.404871)
(0.0909791 -0.126771 0.233873)
(-0.0523927 -0.103411 0.10295)
(0.0625643 0.051708 0.00781757)
(0.0773071 -0.174176 -0.0784099)
(0.0134357 -0.130885 -0.163912)
(0.0282073 -0.17204 -0.17125)
(0.0687873 -0.161462 -0.10469)
(0.00732859 -0.0984298 -0.160765)
(0.0204919 -0.143349 -0.173482)
(-0.0698778 -0.255278 0.064561)
(-0.0443419 -0.166394 0.0448268)
(0.0210238 -0.202153 0.0880586)
(-0.0389257 -0.227536 0.0548303)
(-0.0339186 -0.10603 -0.0148458)
(-0.0153039 -0.186558 -0.157411)
(-0.0342008 -0.171033 -0.10355)
(-0.0103296 -0.0921014 -0.128896)
(-0.0220819 -0.125727 -0.142145)
(-0.0298062 -0.104054 -0.0908411)
(0.00686007 -0.158347 0.0490884)
(0.0294077 -0.221865 0.0325311)
(-0.00931141 -0.215495 0.0373766)
(0.003311 -0.0871819 -0.0041839)
(0.0262908 -0.193938 0.00574207)
(-0.0488651 -0.132825 -0.0639608)
(-0.0387868 -0.0812445 -0.0388683)
(-0.00851026 -0.177676 -0.0689904)
(-0.0447189 -0.0801581 -0.0441837)
(-0.0334811 -0.12601 -0.0421251)
(-0.039034 -0.086411 -0.0485316)
(-0.03651 -0.111897 -0.067623)
(-0.0434732 -0.055449 -0.00928989)
(-0.0513052 -0.0763638 -0.0221018)
(0.10484 -0.269937 0.00732524)
(0.0776538 -0.18386 0.0149007)
(0.110763 -0.190475 0.0289668)
(0.0995859 -0.260173 -0.00443999)
(0.0853419 -0.224806 -0.0146705)
(0.100399 -0.173735 -0.0058623)
(0.110283 -0.161336 -0.00788655)
(0.0640504 -0.153135 -0.00405128)
(-0.0751071 -0.078138 -0.0255058)
(-0.0544588 -0.0407127 0.0165682)
(-0.02869 -0.126481 -0.0313542)
(-0.0218793 -0.0440191 0.0292907)
(-0.0516602 -0.0294278 0.0308339)
(-0.0291111 -0.0609701 0.0284504)
(-0.0302597 -0.0358344 0.101142)
(0.0476134 -0.142636 -0.0138416)
(0.0100962 -0.0394717 0.0684172)
(0.0273342 -0.0695461 0.0423334)
(0.0568809 -0.0471168 0.048718)
(0.0101798 -0.0366752 0.121765)
(0.0841591 -0.0798289 0.0498416)
(0.0872247 -0.345832 0.365504)
(-0.0596255 0.00727867 0.11731)
(-0.0240509 -0.0331621 0.427825)
(0.0997134 -0.474444 0.445233)
(0.132243 -0.403013 0.551054)
(-0.0580315 -0.0482171 0.435819)
(0.00240521 -0.376266 0.341133)
(0.117504 -0.554292 0.526651)
(0.120198 -0.177567 0.385371)
(0.111339 -0.151404 0.295523)
(0.0637612 -0.06545 0.435092)
(0.133495 -0.274912 0.50204)
(0.0991387 -0.194102 0.35235)
(-0.145465 -0.156519 0.0994443)
(-0.204988 -0.182722 0.109916)
(0.0919573 -0.149063 0.0229341)
(0.0273193 -0.0945969 -0.164954)
(0.120252 -0.446358 0.388759)
(0.0856311 -0.318779 0.312035)
(0.10529 -0.434175 0.429528)
(-0.0579159 -0.00302889 0.044786)
(-0.0106021 -0.440718 0.404601)
(0.000427266 -0.308707 0.330542)
(-0.0222865 -0.469214 0.474848)
(-0.00891323 -0.116146 0.127148)
(0.161876 -0.457055 0.346425)
(0.0761313 -0.0783702 0.159803)
(-0.109376 -0.330846 0.281275)
(-0.0296489 -0.0976882 0.105344)
(0.181959 -0.408614 0.315339)
(0.0606292 -0.0607531 0.0821665)
(0.0512826 0.0869084 -0.0706982)
(0.0593004 0.0591959 -0.0942637)
(0.0472712 -0.133517 -0.155948)
(-0.000435644 -0.0644061 -0.157169)
(-0.00823097 -0.104921 -0.179299)
(-0.00754885 -0.0855804 -0.187539)
(-0.00553875 -0.0288895 -0.135668)
(-0.0425135 -0.0576302 -0.16786)
(-0.014369 -0.0695361 -0.033607)
(-0.0275441 0.00246225 -0.146093)
(0.0265989 0.0227951 -0.131698)
(0.00696226 0.0917547 -0.191312)
(0.00746652 0.0575623 -0.280582)
(-0.0381994 -0.0709831 -0.130948)
(-0.0364854 -0.0482857 -0.0837585)
(-0.0113231 -0.025605 -0.0803178)
(-0.0472231 -0.0371476 -0.109707)
(-0.0388862 -0.0224735 -0.0625432)
(-0.0259229 -0.00656681 -0.0941506)
(0.000367998 -0.123743 -0.0150224)