/*--------------------------------*- C++ -*----------------------------------*\
| =========                 |                                                 |
| \\      /  F ield         | OpenFOAM: The Open Source CFD Toolbox           |
|  \\    /   O peration     | Version:  5.x                                   |
|   \\  /    A nd           | Web:      www.OpenFOAM.org                      |
|    \\/     M anipulation  |                                                 |
\*---------------------------------------------------------------------------*/
FoamFile
{
    version     2.0;
    format      ascii;
    class       volScalarField;
    location    "8.05";
    object      p;
}
// * * * * * * * * * * * * * * * * * * * * * * * * * * * * * * * * * * * * * //

dimensions      [0 2 -2 0 0 0 0];

internalField   nonuniform List<scalar> 
10571
(
100.673
137.914
120.109
99.0745
108.547
82.5441
98.0848
116.802
113.531
128.883
103.986
97.3735
122.325
147.472
167.976
198.035
75.108
130.234
148.812
163.832
179.704
52.6613
72.4739
134.578
77.7894
64.8568
73.2902
75.4971
90.6833
64.5176
53.2057
62.2038
90.7562
98.7066
20.3501
43.2342
31.8377
29.2982
56.9978
98.1614
16.2606
16.1228
13.9382
79.6817
99.227
16.9087
16.7761
25.8728
51.9788
25.1827
41.4466
55.1596
57.5392
24.3147
30.3425
39.6156
55.2502
74.7965
17.7641
17.2095
17.6273
16.8667
21.5459
33.0745
16.8299
18.2646
19.9235
18.7344
33.8236
17.3947
17.8737
16.8593
47.1694
23.7489
28.3552
43.9433
46.9454
18.4414
22.2666
26.8429
24.8313
41.7168
16.0131
14.995
14.8711
15.7575
15.5741
19.2979
16.0662
16.5263
18.6426
15.9617
15.3416
16.6634
17.0556
16.2248
39.7648
18.3466
24.6869
37.0184
35.0722
14.2103
17.2039
15.0316
14.2199
16.0615
14.9027
14.2335
13.971
14.3779
14.4562
14.4239
15.2538
15.1354
16.3139
15.0174
14.6983
15.8602
15.5145
15.5581
25.9957
13.3421
17.1045
33.5676
14.3865
13.3376
12.9461
12.7658
13.4755
13.7869
13.698
13.9565
13.6629
13.81
13.864
13.7664
13.8606
13.7091
14.5467
14.2275
13.9661
14.4261
14.2234
14.9557
14.1568
14.1212
13.6117
13.2789
13.3683
13.1567
13.7747
13.1576
13.2223
13.5021
13.6248
13.6757
13.6909
13.7178
13.3779
13.7077
13.694
13.4508
13.8565
13.7078
14.0499
13.7705
13.2843
13.3007
14.3866
13.7015
14.3212
13.6643
13.3756
13.6061
13.1918
13.4633
13.5704
13.6137
12.95
13.2997
13.4359
13.5887
13.5957
13.6516
13.7115
13.4275
13.5401
13.5525
13.4616
13.496
13.6543
13.7698
13.6371
13.3875
13.3152
13.2246
13.7775
13.9869
13.4893
13.3447
13.598
13.3005
13.5171
13.5756
13.5955
13.1235
13.3637
13.4823
13.6227
13.6234
13.6541
13.6023
13.4723
13.4437
13.4555
13.4733
13.5402
13.5844
13.6667
13.5929
13.2622
13.2523
13.3679
13.8675
13.4391
13.2724
13.6256
13.5414
13.6012
13.6034
13.6233
13.3059
13.4315
13.5307
13.6839
13.6693
13.6122
13.4161
13.4323
13.4263
13.4746
13.6456
13.6898
13.5876
13.1748
13.2074
13.5035
13.8405
13.3741
13.2536
13.6849
13.781
13.683
13.662
13.6868
13.5639
13.5161
13.5605
13.7389
13.7337
13.8748
13.507
13.4802
13.4617
13.5184
13.7172
13.8746
13.7093
13.2901
13.3246
13.6406
13.9533
13.479
13.4046
13.7427
13.8883
13.7585
13.7174
13.7615
13.7817
13.6048
13.6172
13.7757
13.7887
14.0608
13.7125
13.5736
13.59
13.5951
13.7918
14.1103
13.8012
13.5629
13.573
13.7768
14.1255
13.8587
13.7658
13.7947
13.927
13.8192
13.7635
13.8169
13.8483
13.6805
13.7293
13.7981
13.8275
14.0576
13.8455
13.6948
13.7083
13.708
13.8549
14.3017
13.9322
13.8024
13.7791
13.8756
14.4434
14.2455
14.0573
13.8439
13.9668
13.8713
13.7948
13.8517
13.8786
13.721
13.8264
13.8174
13.8654
13.9754
13.8761
13.7728
13.7689
13.7961
13.8988
14.0367
13.8438
13.8266
13.8837
13.9347
14.254
14.2611
14.0777
13.9086
13.9993
13.9103
13.8454
13.8879
13.9319
13.7526
13.8882
13.8431
13.9035
13.9074
13.8671
13.7787
13.8214
13.8402
13.9276
13.9028
13.8107
13.8532
13.9199
13.965
14.0175
14.0486
14.012
13.9815
13.9875
13.9442
13.9309
13.9376
13.9159
13.8098
13.9382
13.8756
13.9403
13.8702
13.7796
13.7954
13.8378
13.8582
13.9543
13.9005
14.0664
13.9251
13.9365
13.9863
13.9138
13.9466
14.0026
14.0291
14.0009
13.9885
13.9922
13.976
13.8808
13.901
13.9994
13.912
13.9832
13.8377
13.705
13.7583
13.9041
13.8933
13.9854
13.826
14.2241
13.9353
13.9584
13.9998
13.99
13.9529
14.0181
14.0634
14.0712
14.0468
14.0284
14.0003
13.9858
14.0134
14.012
13.9556
14.0095
13.9567
13.8269
13.9762
13.9921
13.963
14.0112
13.8135
14.1167
13.9583
13.9561
14.0029
14.0363
13.9812
14.0175
14.0785
14.1416
14.0914
14.0484
14.0098
14.1141
14.1021
13.9949
13.9565
14.0016
14.1085
14.0506
14.2033
14.0341
13.9946
14.0021
13.8725
14.0322
13.9692
13.958
13.9982
14.044
14
13.999
14.068
14.1316
14.0869
14.0371
14.0061
14.1104
14.0646
13.9661
13.9436
13.9864
14.0962
14.0829
14.2209
14.0087
13.9957
13.9806
13.9777
14.0287
13.9554
13.958
13.9869
14.042
14.0105
13.9803
14.0431
14.0889
14.05
14.0077
13.9989
14.0849
14.0205
13.9702
13.9636
13.9911
14.0917
14.0426
14.1323
14.0063
14.0202
14.0068
14.0581
14.0222
13.9568
13.9679
13.9872
14.034
14.0146
13.9769
14.0264
14.0521
14.0241
14.0184
13.9956
14.0764
13.9888
13.9907
13.9921
14.0063
14.111
14.0668
14.0805
14.0226
14.0414
14.0122
14.0536
14.0042
13.9749
13.9845
13.9941
14.0132
14.0127
13.9838
14.0223
14.0309
14.01
14.0325
13.992
14.0804
13.9868
14.0045
13.9924
14.0185
14.0989
14.0778
14.0531
14.0194
14.0502
13.9837
14.015
13.9843
13.9976
14.002
14.011
13.9885
14.0017
13.9921
14.0158
14.0006
13.9939
14.0138
13.977
14.0178
13.982
13.9917
13.9752
14.0092
14.0313
14.0328
14.0154
13.9937
14.0218
13.9958
13.9609
13.9454
14.0051
14.0025
14.0312
13.9468
13.9707
13.9865
13.9991
13.9686
13.9711
13.9776
13.954
13.9696
13.966
13.9565
13.9471
13.9823
13.9707
13.9734
13.9715
13.9475
13.9611
13.9767
13.917
13.8935
13.9768
13.965
13.9835
13.8924
13.9207
13.9534
13.9681
13.9342
13.946
13.9366
13.9281
13.9212
13.9292
13.9126
13.915
13.9445
13.9187
13.9185
13.9343
13.9028
13.9232
13.942
13.8922
13.8372
13.9359
13.9516
13.9468
13.8371
13.8638
13.9311
13.9346
13.8879
13.9162
13.9057
13.9014
13.8654
13.8906
13.8638
13.8858
13.9121
13.8648
13.8642
13.9121
13.8678
13.8845
13.9126
13.8878
13.7856
13.877
13.9291
13.9255
13.8312
13.8323
13.9014
13.9041
13.8334
13.885
13.8814
13.8844
13.7993
13.8511
13.8239
13.8698
13.9051
13.8128
13.8116
13.8974
13.8472
13.8483
13.8953
13.9015
13.7737
13.8295
13.895
13.9093
13.8785
13.8566
13.8462
13.8822
13.8171
13.8634
13.8602
13.8886
13.762
13.812
13.8352
13.8761
13.916
13.7767
13.7707
13.8926
13.8649
13.8483
13.8911
13.9291
13.8695
13.8403
13.8661
13.9035
13.9821
13.9309
13.8583
13.8773
13.8329
13.8521
13.8425
13.9095
13.7702
13.8028
13.8658
13.9004
13.9154
13.7715
13.7551
13.8856
13.9068
13.8884
13.9048
13.9479
13.9507
13.9163
13.872
13.9178
14.028
14.0267
13.9231
13.9285
13.869
13.8457
13.8656
13.922
13.7898
13.8095
13.9005
13.9283
13.917
13.804
13.7715
13.8757
13.9358
13.9239
13.9258
13.9646
13.9707
13.9694
13.9131
13.9437
14.03
14.0782
13.9847
13.9656
13.9229
13.8698
13.9264
13.962
13.8441
13.8314
13.9423
13.9575
13.9017
13.8922
13.8324
13.8785
13.9561
13.9426
13.9476
13.9939
13.9831
14.0064
13.9501
13.9554
14.0211
14.036
14.0035
13.9992
14.097
13.9853
13.9661
13.9867
13.9774
13.9115
13.9766
13.9666
13.9416
14.0151
13.9431
13.9296
13.9737
13.9649
13.9714
14.0356
14.008
14.0111
13.9511
13.9687
14.0249
14.0198
14.0158
14.0509
14.1327
14.0851
14.0165
13.9888
14.1062
13.9874
13.9956
13.9905
14.0065
14.0987
14.0595
13.9998
13.995
13.996
13.9951
14.0705
14.033
14.0097
13.9589
13.9961
14.0414
14.0289
14.0395
14.0439
14.1198
14.0424
14.0141
14.0025
14.127
14.0465
14.0187
13.9966
14.0723
14.1124
14.1019
14.047
14.025
14.0256
14.0067
14.0841
14.0506
14.0003
13.948
13.9974
14.0595
14.0332
14.0306
14.0409
14.0679
13.9939
14.0234
14.0392
14.0726
14.0623
14.0386
14.0037
14.0594
14.1064
14.0864
14.0615
14.0486
14.0272
14.0208
14.0844
14.0611
14.0177
13.9145
13.9916
14.0754
14.0379
13.9771
14.052
14.044
14.0174
14.0507
14.0701
14.0377
14.0346
14.0526
14.0258
14.0426
14.1012
14.08
14.0601
14.0595
14.0298
14.0538
14.083
14.0732
14.0455
14.0035
14.0505
14.0897
14.0569
14.0073
14.0667
14.0676
14.0539
14.0678
14.0881
14.0536
14.032
14.0598
14.0454
14.0756
14.1014
14.0811
14.0617
14.0628
14.0489
14.0592
14.0825
14.0834
14.0678
14.0567
14.0511
14.1019
14.0786
14.0545
14.0968
14.0905
14.0787
14.1004
14.1194
14.0725
14.0567
14.0613
14.0432
14.0867
14.1011
14.0844
14.07
14.0721
14.0589
14.0646
14.0816
14.0849
14.0745
14.0643
14.0648
14.1074
14.0896
14.0746
14.0941
14.0938
14.0835
14.0938
14.1184
14.0712
14.0374
14.0316
14.0129
14.0308
14.0916
14.0735
14.0532
14.0688
14.0544
14.0569
14.076
14.0726
14.0659
14.0593
14.0681
14.0996
14.0884
14.0778
14.0621
14.0869
14.0704
14.0598
14.0574
14.0545
14.0072
14.0003
13.9656
13.9706
14.0713
14.0475
14.0258
14.0595
14.0396
14.0383
14.0648
14.0544
14.0526
14.0487
14.0596
14.0813
14.0776
14.0717
14.0234
14.0751
14.0472
14.0246
14.0078
14.0454
13.9883
13.9959
13.9607
13.9448
14.0421
14.0149
14.0078
14.0465
14.0351
14.0295
14.0494
14.037
14.0431
14.0386
14.0473
14.0624
14.0636
14.0612
13.988
14.0547
14.0149
13.9884
13.9967
14.0363
13.9809
13.9963
13.9917
13.9706
14.0101
13.9813
14.0046
14.0367
14.0368
14.0262
14.0349
14.0234
14.0347
14.0376
14.0403
14.0478
14.0473
14.0491
13.957
14.0267
13.9753
13.9527
13.9977
14.003
13.9713
13.9941
14.0239
14.0103
13.9817
13.9546
14.016
14.0214
14.0347
14.025
14.0208
14.0125
14.0203
14.0344
14.036
14.0355
14.0298
14.0381
13.9331
13.9947
13.9299
13.9256
13.9935
13.9574
13.9481
13.9873
14.0377
14.025
13.9639
13.9448
14.0313
14.0016
14.0306
14.0209
14.0078
14.0007
14.0121
14.0268
14.0296
14.0228
14.0129
14.026
13.9299
13.9599
13.8975
13.9211
13.9865
13.9246
13.9191
13.9738
14.0185
14.0246
13.9564
13.9467
14.0232
13.9934
14.0196
14.0121
13.9944
13.9843
14.0119
14.0152
14.0205
14.0087
14.0038
14.0135
13.9438
13.9359
13.8929
13.9249
13.9821
13.9173
13.8904
13.9599
13.9969
14.0158
13.9539
13.9512
13.9961
13.9876
14.0072
14.003
13.9801
13.9657
14.0086
14.0013
14.0082
13.9933
13.9997
14.0018
13.9598
13.9414
13.9096
13.936
13.9842
13.9286
13.875
13.9526
13.9861
14.0058
13.9518
13.9524
13.9548
13.9774
13.9945
13.9928
13.972
13.9641
14
13.9773
13.9915
13.9791
13.9985
13.9855
13.9785
13.9599
13.9413
13.9615
13.9921
13.9429
13.8779
13.9559
13.9818
14.0009
13.9543
13.9546
13.9328
13.9672
13.9822
13.9799
13.967
13.9622
13.9837
13.9516
13.9712
13.9667
13.9885
13.9678
14.0011
13.9904
13.9819
13.9899
13.9981
13.9653
13.8928
13.9673
13.9769
13.997
13.9657
13.9629
13.935
13.9658
13.9844
13.9736
13.9661
13.952
13.9618
13.955
13.9629
13.9623
13.9761
13.9755
14.0184
14.027
14.0246
14.012
13.9967
14.0057
13.9281
13.9824
13.9718
13.9979
13.9915
13.9845
13.9516
13.9743
13.9908
13.9776
13.9771
13.9507
13.9607
13.9786
13.9777
13.9693
13.9718
13.987
14.0251
14.0601
14.0477
14.0241
13.9872
14.0388
13.9738
13.9931
13.9573
13.994
14.0184
14.0087
13.9626
13.9854
13.9963
13.9869
13.9964
13.9692
13.9828
14.0017
14.003
13.9856
13.9898
14.0106
14.0245
14.0666
14.048
14.0274
13.9725
14.0569
14.0061
13.9969
13.9327
13.9829
14.0354
14.0235
13.9669
13.993
13.9947
13.991
14.012
14.0026
14.0058
14.0186
14.0192
14.0198
14.0235
14.0342
14.0217
14.065
14.0451
14.0227
13.9657
14.0702
14.0302
13.999
13.9102
13.9695
14.053
14.0384
13.9724
13.9968
13.9798
13.9817
14.0246
14.0074
14.0165
14.0119
14.0164
14.0357
14.0382
14.0356
14.0212
14.0647
14.0446
14.0189
13.9788
14.0752
14.0456
13.992
13.9005
13.9595
14.0748
14.0541
13.9774
13.9937
13.959
13.9651
14.0336
13.9982
14.0241
14.0018
14.0079
14.031
14.0397
14.039
14.0228
14.0684
14.0466
14.0196
14.0018
14.0789
14.0507
13.9815
13.9079
13.9532
14.1041
14.0808
13.9928
13.9818
13.9275
13.9475
14.0374
13.9857
14.0144
13.9832
13.991
14.0226
14.0359
14.0371
14.0233
14.0719
14.0473
14.019
14.0205
14.0842
14.041
13.9717
13.9052
13.9553
14.1378
14.1228
14.0161
13.96
13.8883
13.9266
14.0525
13.9749
13.9992
13.9578
13.9641
14.0176
14.0322
14.022
14.0213
14.0725
14.0453
14.0143
14.0155
14.09
14.0197
13.9672
13.9133
13.9719
14.1548
14.1357
14.0145
13.9329
13.8497
13.8894
14.0838
13.9821
13.9832
13.9272
13.9217
14.0278
14.0278
14.0003
14.0183
14.0806
14.0441
14.0058
13.9937
14.0942
14.0104
13.9547
13.884
13.9407
14.1437
14.1129
14.0054
13.9016
13.7956
13.8298
14.1049
14.0131
13.9805
13.899
13.8638
14.0517
14.0298
13.9843
14.018
14.0843
14.0431
13.996
13.9616
14.0908
14.013
13.9309
13.7809
13.8163
14.1055
14.074
13.9894
13.8768
13.7294
13.6677
14.1065
14.0606
13.9916
13.8693
13.7725
14.1045
14.0479
13.9813
14.0255
14.0793
14.0523
13.9928
13.9272
14.0458
14.0103
13.8797
13.6038
13.5482
14.0403
14.0015
13.9785
13.8765
13.6169
13.2463
14.1146
14.1508
14.0319
13.847
13.6057
14.1833
14.1024
14.0039
14.0454
14.0755
14.0728
14.0022
13.8945
14.0147
14.0161
13.8298
13.3158
12.7955
13.9493
13.9136
14.0017
13.8675
13.4249
12.2611
14.1482
14.285
14.1093
13.8153
13.2617
14.3205
14.2071
14.0565
14.0746
14.0943
14.096
14.0189
13.8648
14.0084
14.0238
13.779
13.0707
11.0013
13.9482
13.9187
14.0576
13.876
13.321
10.7498
-9.00724
14.2923
14.4923
14.2489
13.831
12.4739
14.5617
14.3729
14.1728
14.1176
14.1568
14.1329
14.047
13.8501
14.0979
14.0609
13.7995
12.976
9.34653
0.503959
14.1261
14.1073
14.1665
14.0163
13.4113
10.796
1.17066
14.4675
14.6279
14.3992
13.9355
11.3825
14.816
14.5469
14.3351
14.165
14.246
14.1962
14.0906
13.866
14.2385
14.1373
13.9176
13.2337
10.2842
2.48871
14.3139
14.2642
14.2134
14.2139
13.6409
10.969
3.29061
14.5131
14.5989
14.4927
14.1982
12.0311
3.91272
14.802
14.6695
14.5567
14.2434
14.3548
14.2765
14.1766
14.0855
14.3711
14.2052
13.9623
13.5683
11.3557
3.52047
14.4238
14.3444
14.1635
14.2602
13.9012
11.3452
2.04228
14.3701
14.4005
14.4646
14.3251
12.3821
14.5843
14.7134
14.6244
14.3676
14.4466
14.3655
14.3225
14.4023
14.5022
14.25
13.9736
13.8942
13.0585
14.5292
14.403
14.0651
14.024
13.974
11.8443
-5.69076
14.0385
14.1419
14.3322
14.3152
13.5099
14.396
14.53
14.5394
14.4644
14.5082
14.4402
14.4335
14.4662
14.589
14.3316
14.1612
14.1442
14.0606
14.6367
14.4346
13.9856
14.025
14.1312
13.5561
13.7347
14.0308
14.3335
14.3451
14.1599
14.2951
14.4241
14.473
14.5092
14.5275
14.4808
14.4818
14.4952
14.5938
14.4119
14.3242
14.3484
14.4661
14.6367
14.4945
14.2635
14.2123
14.3198
14.272
14.1549
14.2266
14.4075
14.4304
14.4275
14.3505
14.4482
14.5034
14.5271
14.5048
14.4887
14.5063
14.5333
14.5733
14.4965
14.4677
14.5084
14.5943
14.5972
14.5665
14.4721
14.3975
14.466
14.514
14.5335
14.4262
14.4695
14.5142
14.5462
14.4909
14.5084
14.5601
14.5121
14.5344
14.4929
14.5
14.5564
14.5719
14.5275
14.4915
14.5502
14.6151
14.6283
14.6002
14.5767
14.4939
14.5266
14.5828
14.6139
14.5019
14.5027
14.5618
14.5752
14.5741
14.5357
14.5912
14.4974
14.5632
14.5113
14.4838
14.5654
14.5649
14.5116
14.508
14.5704
14.6124
14.6233
14.5669
14.5148
14.5215
14.5667
14.5919
14.6005
14.4795
14.5092
14.5823
14.588
14.5641
14.5543
14.5989
14.5552
14.5976
14.5448
14.5262
14.5833
14.5612
14.5032
14.5468
14.5888
14.6138
14.5928
14.525
14.4836
14.5342
14.5811
14.5968
14.5458
14.4718
14.535
14.5852
14.5989
14.5547
14.5734
14.6029
14.616
14.6304
14.5876
14.57
14.6063
14.5596
14.5282
14.5441
14.5882
14.6247
14.5475
14.467
14.4753
14.5316
14.5828
14.609
14.4775
14.4772
14.5428
14.5894
14.6115
14.561
14.5979
14.6098
14.6452
14.6472
14.6149
14.591
14.6177
14.5748
14.5437
14.5555
14.5948
14.6303
14.5298
14.4407
14.4865
14.5365
14.5869
14.6219
14.4653
14.5071
14.5577
14.5943
14.6257
14.6308
14.6268
14.624
155.423
112.054
136.868
120.001
112.171
119.779
121.458
122.59
183.131
182.48
181.566
198.218
200.603
171.931
127.714
189.607
147.778
110.566
113.817
134.274
128.868
118.349
120.161
121.286
127.29
140.323
152.955
133.59
126.014
120.057
138.103
108.018
111.633
165.61
168.278
130.608
142.131
156.233
157.874
151.666
164.994
149.479
148.42
181.982
206.599
183.988
231.358
228.637
149.709
158.474
169.617
136.19
134.798
165.966
160.146
146.855
156.317
160.962
165.699
163.207
171.931
170.306
176.49
183.659
210.415
180.723
201.49
246.196
238.064
231.845
151.438
159.315
166.307
134.413
148.2
166.876
169.568
156.555
158.773
171.536
175.932
166.039
172.146
172.051
199.578
180.972
192.97
214.217
129.002
138.636
143.074
125.199
151.131
154.992
128.299
164.227
120.474
100.425
99.1131
109.499
101.893
95.6683
98.4375
95.4628
103.045
107.688
95.0215
92.0405
95.5878
108.28
101.302
117.882
76.2048
135.544
117.712
111.035
98.4872
100.168
78.7277
70.0693
107.9
104.832
108.617
105.59
106.976
98.7516
103.392
112.082
103.16
97.8291
95.0392
93.9103
69.7445
70.888
74.6483
168.313
174.064
109.644
129.076
130.333
107.046
105.493
56.572
57.5827
31.923
190.101
190.223
143.8
139.075
145.151
78.7965
20.4809
104.163
55.7044
60.1834
22.443
32.7003
18.4719
18.9827
171.453
156.259
164.549
147.011
147.439
117.482
130.788
145.074
50.3532
17.5204
57.7975
46.5305
17.3721
18.0162
16.7923
105.518
52.4925
19.2225
28.1367
17.219
79.5871
83.1053
60.6038
86.9459
87.1522
85.1787
68.4399
70.4907
69.5311
73.6733
64.4542
57.5334
58.0314
55.0571
76.0677
59.767
40.4605
24.1952
69.9604
53.8386
54.0041
35.7137
46.9813
29.9711
40.479
98.3343
91.6616
97.1864
68.374
83.3054
82.6244
91.0433
97.6103
92.5406
37.8043
27.5066
36.5578
21.9764
19.1722
19.8254
102.588
100.596
88.8581
80.2404
78.3614
22.1267
16.4974
17.6978
17.345
17.0068
98.2301
98.233
64.3407
67.6694
62.9515
16.1316
17.5241
17.6554
17.0423
16.9017
17.2392
16.8869
17.7466
17.7731
97.0613
50.9516
80.8023
32.7831
54.7946
22.7581
44.2484
60.922
17.0384
17.7311
16.9156
17.1923
17.7234
17.7509
17.5951
15.359
16.9323
18.021
18.293
17.8565
16.8711
37.6099
31.6934
51.7397
48.2847
53.0127
47.2908
39.7474
46.792
52.1833
53.1455
49.7297
49.4532
50.4354
55.7502
52.7255
22.233
21.7408
31.2759
23.6262
31.3417
24.5073
26.593
23.6427
28.0176
66.0234
70.6784
82.1257
52.6088
56.1098
58.8177
68.9843
83.6837
68.7364
20.2501
19.4688
18.2829
18.7955
18.0631
17.018
58.4388
56.6058
57.4758
38.208
36.7502
17.1081
16.7753
16.8975
16.4319
16.3086
39.9135
35.7253
22.5806
25.2673
19.4377
16.9491
16.5061
16.643
17.0587
17.2418
16.4254
16.4022
16.5642
16.6163
28.6374
17.2521
24.7013
16.0938
16.3063
16.0614
16.4417
17.7907
17.2258
16.8842
17.674
17.191
17.048
17.3351
17.4941
18.647
17.3668
17.5084
17.779
17.3324
16.503
30.389
28.4692
45.2826
37.0895
44.1355
41.9685
34.0475
40.9261
47.1417
47.361
43.9096
44.6055
43.2034
47.9072
43.112
18.7044
16.706
25.8556
21.2578
26.7533
21.8838
24.8655
17.9544
25.3633
47.3328
46.2651
50.2979
40.9016
37.9549
37.4259
34.3396
49.7251
32.7241
16.6212
16.6363
16.0243
15.7222
15.947
15.4921
27.0675
25.8625
28.2377
21.948
20.8686
15.8414
15.9545
15.4554
15.3461
15.5979
20.2149
16.1157
16.8589
17.7428
14.6304
16.1588
15.7866
16.1826
16.1388
16.1914
15.7066
15.7467
15.7831
15.7676
15.1004
15.5717
15.2997
15.5659
15.1145
15.286
15.4014
15.0058
16.5486
16.2646
16.7715
16.8369
16.3177
16.1867
16.3952
17.3081
17.1741
16.4663
17.0395
16.8301
15.9663
25.6348
20.4418
37.0651
29.4694
35.7652
30.9214
24.4621
29.8321
40.6928
37.5742
33.9841
34.9454
31.0381
36.4834
27.1487
15.2608
14.2191
23.2546
14.9543
22.9556
14.1072
17.4685
13.4198
15.3293
26.9464
29.3235
21.7341
25.7659
15.8103
16.9584
14.1182
17.9463
14.1193
15.066
15.2347
14.8065
14.3603
14.4033
14.0259
15.6989
15.0125
13.9487
13.9676
13.7986
14.7448
15.191
14.317
14.1729
14.8498
14.5788
13.9308
14.0003
13.8743
13.8542
15.3326
14.9462
15.0963
15.3735
15.3634
14.8597
14.5328
15.0373
14.9599
14.9116
15.0606
15.1266
14.704
14.6314
14.8173
14.876
14.4152
15.8343
15.4028
15.5829
15.7883
15.3931
15.0555
15.2043
16.1429
15.918
14.6767
14.7165
15.1249
14.9953
15.185
13.6298
23.5898
18.6615
22.9581
16.3174
13.8529
15.4365
27.2409
21.3626
16.7798
15.6172
13.9558
15.6603
13.7087
13.6121
13.3611
13.5283
13.3768
13.2196
13.365
13.4271
13.3414
13.5584
13.8215
13.8666
13.785
13.5971
13.6904
13.6844
13.7298
13.805
13.7371
13.7516
13.8302
13.5639
13.4549
13.5644
13.3482
13.7928
13.6516
13.8706
13.7112
13.7562
13.5993
13.7499
13.6895
13.7209
13.7097
13.7
13.7076
13.7059
13.7076
13.8681
14.5721
13.8177
13.7576
14.3151
13.8008
13.7961
13.593
13.8194
13.7616
13.9397
13.6664
13.727
13.6938
13.7328
13.7423
13.7447
13.7209
13.7872
14.621
14.3635
14.1502
14.7186
14.5968
14.275
13.8654
14.4429
14.2923
14.3705
14.5236
14.602
13.9138
14.3458
13.7718
14.5172
14.1998
14.9765
14.6139
14.6166
14.6783
14.5985
14.2832
14.3025
13.8268
14.487
13.8687
13.6981
14.0351
13.5443
13.4917
13.4673
13.5864
13.5424
13.5324
13.58
13.4842
13.5245
13.5601
13.6661
13.6106
13.6106
13.6723
13.7627
13.684
13.185
13.0272
13.4378
13.175
13.4377
13.1945
13.3999
13.0501
13.348
13.6843
13.6999
13.6516
13.6707
13.6431
13.613
13.6239
13.6735
13.7481
13.629
13.7191
13.6932
13.689
13.6682
13.6732
13.3119
13.436
13.2441
13.2133
13.3287
13.2276
13.7302
13.5383
13.724
13.6265
13.6996
13.5079
13.6417
13.6877
13.6989
13.6882
13.6688
13.6811
13.6832
13.6818
13.695
14.1221
13.697
13.6857
13.9731
13.7769
14.1569
13.7218
13.5297
13.6504
13.7701
13.6823
13.7028
13.714
13.7438
13.7003
13.701
13.7054
13.713
14.1777
14.0255
13.698
14.2051
14.0593
13.8839
13.6015
14.0235
13.9024
14.2779
13.1412
13.99
13.2196
13.4632
13.1774
13.2411
13.3897
13.9298
13.6865
13.759
13.8236
13.7823
14.3212
14.1113
14.0481
14.056
14.1228
13.9006
13.902
13.6107
13.768
13.5399
13.5345
13.6085
13.3516
13.4611
13.4755
13.572
13.5267
13.5556
13.5624
13.5229
13.5509
13.6111
13.6474
13.5963
13.601
13.6234
13.6225
13.5889
13.0155
13.1274
13.404
13.0019
13.3357
13.2212
13.4332
13.0021
13.3637
13.6196
13.5822
13.6165
13.5852
13.6036
13.5702
13.6145
13.6199
13.7025
13.6075
13.6976
13.6669
13.6644
13.6633
13.6614
13.1861
13.4291
13.3164
13.2801
13.5439
13.4291
13.6817
13.529
13.5979
13.6097
13.6846
13.5758
13.6057
13.6574
13.6354
13.6566
13.6456
13.663
13.6049
13.6431
13.6953
13.8333
13.6617
13.6605
13.7261
13.6062
13.4643
13.5854
13.544
13.5998
13.5642
13.5927
13.6727
13.6749
13.6923
13.6319
13.6665
13.6429
13.6866
13.9027
13.8182
13.5428
13.9001
13.8012
13.7025
13.5274
13.8384
13.7546
13.1951
13.244
13.2224
13.3284
13.383
13.2178
13.2795
13.6363
13.3869
13.6081
13.759
13.6838
13.7367
13.9705
13.8806
13.8117
13.8081
13.9067
13.7627
13.7476
13.4888
13.5163
13.4549
13.4448
13.4643
13.3169
13.51
13.5539
13.5776
13.5455
13.5751
13.5988
13.5766
13.5955
13.602
13.612
13.6094
13.6104
13.6148
13.6044
13.6185
13.2518
13.3844
13.472
13.1061
13.3936
13.4139
13.5238
13.2546
13.4295
13.6017
13.5809
13.6012
13.6073
13.5989
13.6083
13.587
13.5989
13.6027
13.3542
13.538
13.4673
13.4271
13.5045
13.4772
13.7013
13.5743
13.6043
13.6463
13.7246
13.6101
13.6213
13.6639
13.5837
13.6533
13.6748
13.6716
13.6279
13.677
13.6121
13.6485
13.5682
13.5751
13.621
13.6022
13.5298
13.5852
13.5823
13.624
13.5568
13.5924
13.6697
13.5829
13.6977
13.6436
13.6743
13.6156
13.6907
13.7722
13.7608
13.5255
13.8062
13.7366
13.6624
13.5456
13.7922
13.7429
13.3623
13.1514
13.2527
13.2005
13.3766
13.1281
13.2846
13.4371
13.8437
13.8316
13.7386
13.7278
13.8456
13.7081
13.7201
13.399
13.4512
13.4121
13.3622
13.4511
13.2435
13.6072
13.6637
13.6266
13.6151
13.6243
13.661
13.6594
13.6627
13.6272
13.633
13.6539
13.6558
13.6569
13.6368
13.6621
13.5428
13.7006
13.5919
13.405
13.4844
13.6762
13.664
13.5808
13.5641
13.6048
13.6435
13.6086
13.649
13.6399
13.6782
13.6415
13.6268
13.6616
13.5498
13.5646
13.5183
13.6894
13.6905
13.6124
13.6213
13.6677
13.6972
13.6307
13.5834
13.5994
13.6537
13.729
13.692
13.7512
13.6729
13.6128
13.6716
13.665
13.6489
13.7909
13.8738
13.5882
13.8258
13.7823
13.7541
13.6502
13.9026
13.8519
13.4101
13.1466
13.3509
13.2503
13.4701
13.1952
13.4286
13.5673
13.863
13.9346
13.6813
13.717
13.8608
13.7101
13.7501
13.3396
13.4296
13.377
13.3508
13.4371
13.2891
13.7205
13.7701
13.6985
13.7047
13.704
13.7352
13.7454
13.7426
13.686
13.6859
13.715
13.716
13.7153
13.696
13.7298
13.8364
13.9327
13.7312
13.7294
13.6532
13.8467
13.7849
13.828
13.7293
13.6898
13.7149
13.6845
13.725
13.7328
13.7506
13.7276
13.7029
13.7399
13.8253
13.834
13.7319
13.924
13.948
13.8343
13.6727
13.6737
13.7643
13.7119
13.7149
13.8102
13.8773
13.9974
13.9238
14.0144
13.7174
13.6964
13.7545
13.7313
13.7396
13.9927
14.118
13.7293
14.0003
13.9823
13.998
13.8358
14.0989
14.1566
13.5467
13.3035
13.5291
13.4454
13.6321
13.4693
13.638
13.7111
14.0482
14.2265
13.8077
13.8774
14.0787
13.9236
14.0029
13.4434
13.5518
13.6617
13.601
13.7535
13.5746
13.8092
13.8396
13.7676
13.7816
13.7766
13.7953
13.8132
13.8058
13.7436
13.7433
13.7695
13.7691
13.7688
13.763
13.7912
13.9657
13.9704
13.8253
13.8865
13.788
13.9115
13.8541
13.9109
13.8241
13.7713
13.781
13.767
13.7922
13.8015
13.8052
13.7989
13.7738
13.8011
13.9716
14.0124
13.9086
13.9834
14.034
13.9421
13.7498
13.7552
13.807
13.7796
13.7849
14.0106
14.1464
14.0783
14.0492
14.1968
13.7627
13.7778
13.8242
13.7893
13.8122
14.2427
14.3369
13.9275
14.2373
14.2437
14.2438
13.9798
14.3182
14.2605
13.7194
13.6407
13.746
13.6891
13.7906
13.7923
13.8365
13.8287
14.3019
14.285
14.0314
14.0803
14.2863
14.1853
14.1854
13.7913
13.9723
14.0744
14.0296
14.1889
13.9405
13.8645
13.8872
13.8183
13.8412
13.8303
13.8376
13.8652
13.8515
13.7916
13.7917
13.819
13.8123
13.8147
13.8148
13.8349
13.9681
13.9654
13.8757
13.9182
13.8477
13.9439
13.8955
13.9235
13.8675
13.8258
13.8215
13.8253
13.8357
13.845
13.8316
13.8463
13.8257
13.8455
13.9776
14.0213
13.9425
13.9657
13.9986
13.9335
13.8104
13.8173
13.8461
13.835
13.8413
14.0277
14.1448
14.0177
13.9589
14.052
13.8243
13.843
13.8787
13.8491
13.8691
14.2991
14.1685
13.9665
14.2963
14.1952
14.1781
13.9049
14.1748
14.0882
13.8465
13.8948
13.8998
13.8414
13.882
13.9382
13.9264
13.9092
14.2605
14.1949
14.2866
14.2811
14.4055
14.327
14.3719
14.1945
14.3399
14.3136
14.2412
14.3895
14.0957
13.9083
13.9271
13.8594
13.8866
13.871
13.8825
13.9067
13.8924
13.8339
13.8413
13.8733
13.8593
13.873
13.8555
13.8787
13.9667
13.973
13.9158
13.941
13.8898
13.9887
13.9343
13.9714
13.9099
13.8622
13.8418
13.8636
13.8683
13.8788
13.8552
13.8807
13.8639
13.8822
13.9575
13.9805
13.9336
13.954
13.9696
13.9416
13.8588
13.8643
13.884
13.8789
13.8823
13.9123
13.9941
13.9359
13.9013
13.9671
13.8773
13.8926
13.9135
13.8964
13.9106
14.0555
13.9944
13.8461
14.0604
14.0303
13.9309
13.9255
13.9953
14.0054
13.9067
13.9538
13.9416
13.9088
13.9186
13.9535
13.9503
13.9529
14.1243
14.0822
14.2964
14.3571
14.128
14.1999
14.2425
14.185
14.3077
14.1552
14.1016
14.1846
14.0414
13.9438
13.9603
13.9069
13.9272
13.9145
13.9341
13.9481
13.9386
13.892
13.9084
13.9468
13.9287
13.9441
13.9068
13.9371
13.9806
13.9829
13.949
14.0059
13.9262
13.9949
13.961
14.0197
13.9418
13.898
13.8715
13.8977
13.9124
13.9186
13.8941
13.9167
13.9019
13.9233
13.9479
13.9544
13.9447
13.9366
13.9323
13.9288
13.8992
13.8988
13.9208
13.919
13.9186
13.8922
13.9334
13.8902
13.8767
13.9013
13.9161
13.9282
13.941
13.9312
13.9444
13.9616
13.9334
14.0676
13.9606
13.9659
13.9121
14.1082
13.9383
13.9278
13.9322
13.952
13.9659
13.925
13.9432
13.9544
13.9831
13.9778
14.0328
13.9766
14.0843
14.1299
13.9443
14.0039
14.0582
14.0268
14.0767
13.9729
13.9877
14.0026
13.9983
13.9789
14
13.964
13.9707
13.9646
13.9957
13.9958
13.9916
13.9636
13.9762
14.0084
13.9944
14.0023
13.9648
13.986
13.9766
13.9704
13.974
14.002
13.9566
13.9881
13.9914
13.9803
13.9736
13.94
13.9192
13.9375
13.959
13.9589
13.9478
13.9595
13.9465
13.9695
13.9254
13.9048
13.9029
13.9267
13.8839
13.8814
13.9399
13.9423
13.9611
13.9606
13.9635
13.8594
13.8684
13.8476
13.8393
13.8448
13.9481
13.9609
13.9699
13.9653
13.9795
13.9058
13.8877
14.018
13.9256
13.891
13.8598
13.9371
13.9013
13.8727
13.9571
13.9697
14.0012
13.9511
13.9664
13.9835
14.0127
13.9944
13.934
13.9208
13.9471
14.0344
13.9314
13.9285
14.0428
13.9904
13.9698
13.9364
13.9863
13.9603
14.0052
14.0242
14.0516
14.0273
14.0244
14.0204
14.0599
14.0554
14.0498
14.0193
14.0223
14.048
14.0377
14.0337
14.0015
14.0132
13.9789
14.0054
14.0125
13.9719
13.9933
14.029
14.0379
13.9867
14.0083
13.975
13.9715
13.9774
13.9896
13.9875
13.9876
13.9905
13.9889
14.0017
13.9437
13.8859
13.8833
13.9784
13.9167
13.911
13.979
13.9838
14
13.99
14.0003
13.8284
13.8299
13.8832
13.8528
13.8551
13.9833
13.9987
14.0012
13.9933
14.0142
13.8739
13.8825
13.8801
13.8694
13.8879
13.8165
13.8207
13.8505
13.8906
13.9761
13.9971
14.0108
13.9548
13.9841
13.9973
14.0085
14.0019
13.9341
13.9398
13.9602
14.0551
14.0135
13.9706
14.0613
13.9993
13.9692
13.9643
14.0024
13.9813
14.0213
14.0812
14.1092
14.0933
14.0869
14.0786
14.122
14.1126
14.1017
14.0537
14.042
14.0742
14.0657
14.0476
14.0234
14.031
14.0474
14.0923
14.0677
14.0288
14.0306
14.1147
14.0987
14.0777
14.0667
13.9977
13.9964
13.9994
14.0072
14.0036
14.0001
14.0018
14.0088
14.0097
14.0342
13.9691
13.9614
14.091
14.0348
14.0251
13.9981
14.0138
14.0084
14.0012
14.0118
13.9113
13.9163
14.0431
13.9936
13.9881
14.0045
14.0287
14.0103
14.0188
14.0242
13.9145
13.9635
13.776
13.8565
13.8946
13.8376
13.773
13.8879
13.9241
13.9915
13.9866
14.0033
13.956
13.9953
13.9748
13.9976
14.0025
13.9462
13.9635
13.9971
14.0586
14.0429
14.0129
14.0609
14.0102
13.9946
13.9905
14.0137
14.0033
14.0109
14.1275
14.1308
14.1377
14.1272
14.1153
14.1374
14.1277
14.1146
14.0707
14.0501
14.0761
14.0694
14.0502
14.0344
14.0337
14.1253
14.1377
14.1201
14.1117
14.1017
14.1452
14.1247
14.1268
14.1121
14.0054
14.0006
14.0021
14.0092
14.0043
13.9966
13.9998
14.0066
14.0019
14.132
14.0928
14.0846
14.1509
14.1185
14.1136
13.9994
14.0159
13.9916
13.9875
14.0081
14.0657
14.0366
14.119
14.0954
14.0468
14.0183
14.0126
13.9862
14.0017
13.9934
13.9995
14.005
13.833
13.9273
13.9554
13.9218
13.9016
13.9689
13.9901
13.9961
13.9657
13.9901
13.9588
13.9932
13.9606
13.9832
13.9917
13.976
13.9998
14.0267
14.0538
14.0434
14.0361
14.0516
14.0112
14.007
14.007
14.0056
14.011
13.9894
14.1199
14.1001
14.1233
14.1156
14.1031
14.1023
14.0977
14.0864
14.0622
14.048
14.056
14.0512
14.0436
14.0303
14.0253
14.1305
14.1108
14.1133
14.118
14.101
14.1111
14.0946
14.0993
14.083
14.0024
13.9935
13.9987
14.0022
14.0001
13.9908
13.9965
13.9993
13.9997
14.1448
14.1119
14.1121
14.1287
14.0993
14.105
13.9743
13.9848
13.9849
13.9728
13.9761
14.0876
14.046
14.0852
14.077
14.0587
13.9869
13.9874
13.9946
13.9906
13.9898
14.0193
14.0606
13.9573
14.0054
14.0144
14.0306
14.0017
14.0343
14.0325
13.9877
13.9558
13.9769
13.961
13.9827
13.9577
13.9757
13.9863
14.0201
14.0334
14.0412
14.0461
14.0387
14.0423
14.0444
13.9985
14.0101
14.0131
13.9939
14.0115
13.9763
14.0782
14.0604
14.0803
14.0775
14.0663