/*--------------------------------*- C++ -*----------------------------------*\
| =========                 |                                                 |
| \\      /  F ield         | OpenFOAM: The Open Source CFD Toolbox           |
|  \\    /   O peration     | Version:  5.x                                   |
|   \\  /    A nd           | Web:      www.OpenFOAM.org                      |
|    \\/     M anipulation  |                                                 |
\*---------------------------------------------------------------------------*/
FoamFile
{
    version     2.0;
    format      ascii;
    class       volScalarField;
    location    "6.3";
    object      p;
}
// * * * * * * * * * * * * * * * * * * * * * * * * * * * * * * * * * * * * * //

dimensions      [0 2 -2 0 0 0 0];

internalField   nonuniform List<scalar> 
10571
(
129.607
129.832
128.665
129.815
128.671
127.795
127.096
127.391
126.108
125.296
124.193
124.398
124.619
125.948
125.716
125.824
123.893
124.485
125.792
126.278
126.032
123.927
126.071
126.393
124.033
125.549
124.756
123.517
121.109
125.206
124.417
124.918
120.82
118.905
123.252
122.121
124.247
123.455
118.525
118.444
121.69
123.109
119.262
119.48
116.831
121.367
120.238
118.939
114.403
115.31
117.66
113.168
105.488
119.662
114.199
105.724
45.0297
85.6825
118.786
117.203
117.525
102.312
35.3564
70.7502
118.38
111.833
67.5214
83.3274
57.5753
118.581
101.187
75.5293
60.1003
61.1457
96.0776
85.8325
8.84618
94.4853
67.7405
15.5088
5.84626
5.29621
84.5889
108.028
50.1283
9.32101
5.69393
5.5653
110.568
12.3379
7.00427
6.54508
5.80458
32.9738
7.39794
6.20707
6.67702
6.61831
9.33122
7.75502
7.38836
7.70762
7.70549
6.11334
7.1094
7.24481
6.80188
16.4067
7.36017
6.03026
7.03121
7.03243
8.74082
5.42288
6.45952
6.93588
6.94633
6.3779
6.95517
6.9585
7.06121
7.00153
7.00157
7.11487
7.10696
7.02711
6.52322
7.06007
7.16702
7.15447
7.10274
7.07943
7.17293
6.80745
7.22074
7.13347
7.07138
7.0822
7.22949
7.42455
6.90128
6.92195
7.02378
6.96429
6.93077
6.94477
7.02048
7.01164
6.98874
7.0132
7.08552
6.99803
7.16955
6.9738
7.05747
7.15176
7.09699
6.98935
7.1039
7.16128
7.05058
7.01716
7.05103
7.05751
7.00083
7.04003
6.97996
6.94855
7.0107
7.04242
6.93326
6.94935
6.9457
7.01921
7.02362
7.01695
7.00048
7.01738
7.00829
7.05853
6.93667
7.03869
7.0546
7.05745
7.09011
7.03531
7.05502
6.99847
7.01944
7.02694
7.03814
7.01518
6.94697
7.01471
6.94979
6.99822
7.03514
6.97749
6.99397
6.97589
7.00743
7.01181
7.01016
6.97494
6.96997
7.00157
7.00998
6.96796
7.03158
7.00413
7.03635
6.99849
6.96835
7.00901
7.00791
7.07367
7.00212
7.03617
6.97757
6.98007
7.03895
6.98525
7.00317
6.98241
7.00506
6.99797
6.99325
7.00613
7.00452
6.97231
6.9771
6.98311
7.01365
6.96884
7.00834
6.98066
6.97249
6.93924
7.02399
6.99775
7.11674
7.00189
6.95557
6.96726
7.04344
7.04866
7.02319
6.97502
6.99706
7.00822
6.99427
7.00786
7.00343
6.98213
7.00294
6.97801
7.00905
6.95932
6.99112
6.97114
6.99147
6.9515
7.03488
6.98173
7.10809
7.01121
6.94965
6.96277
7.03076
7.04466
7.02859
6.97073
6.9849
7.00221
6.99264
7.01589
7.00376
6.99062
7.01079
6.98404
7.00405
6.95502
6.9656
6.9634
7.03658
6.98858
7.03684
6.98958
7.02645
7.00344
6.97115
6.98222
6.98684
7.01024
7.01837
6.9874
6.96684
6.99131
6.98878
7.02653
7.00346
6.99346
6.99597
6.9991
7.00373
6.95026
6.93718
6.95751
7.07426
7.02645
7.04469
6.99141
6.98559
6.98926
7.01002
7.03121
6.94486
6.99527
7.00873
7.01213
6.96602
6.99464
6.9954
7.03295
7.00746
6.99584
6.98254
7.02
7.00422
6.95396
6.91691
6.95721
7.09026
7.05395
7.06311
6.98354
6.97084
6.98181
7.04341
7.07089
6.95498
7.00043
7.00665
7.03794
6.9925
7.01853
7.00988
7.03536
7.01197
6.99765
6.9863
7.02839
7.00099
6.97171
6.93107
6.97102
7.08868
7.06011
7.05435
6.98514
6.97265
6.98832
7.06418
7.07271
6.98847
7.01399
7.01232
7.04469
7.02576
7.04614
7.02912
7.03857
7.02122
7.00835
7.01161
7.02673
6.99505
7.00825
6.98536
7.00367
7.08431
7.05287
7.0535
7.02369
6.99804
7.00747
7.06906
7.05453
7.02245
7.02649
7.02491
7.04783
7.05738
7.05671
7.06068
7.04872
7.03987
7.03168
7.05383
7.02757
7.01325
7.06061
7.04337
7.04314
7.08104
7.04869
7.06319
7.06213
7.02724
7.03026
7.0728
7.04548
7.04987
7.03643
7.03904
7.04977
7.06254
7.05886
7.09176
7.0604
7.06378
7.06431
7.08913
7.03461
7.06283
7.12167
7.07854
7.07223
7.07328
7.03592
7.03715
7.0689
7.03976
7.04615
7.05803
7.02594
7.05119
7.04064
7.04883
7.03256
7.05621
7.05697
7.11516
7.06689
7.07582
7.09027
7.09545
7.0374
7.06599
7.11581
7.07869
7.0794
7.05491
7.01635
7.01002
7.05844
7.04095
7.05316
7.03156
7.00138
7.03671
7.03946
7.05201
7.01175
7.04794
7.05209
7.11242
7.06243
7.06177
7.07945
7.08786
7.0273
7.01474
7.07059
7.06526
7.07378
7.03708
7.00912
6.99106
7.04348
7.03895
7.05489
7.0132
6.98893
7.02367
7.03455
7.051
6.99857
7.04441
7.0469
7.0737
7.05097
7.03025
7.04924
7.07585
7.01809
6.95444
7.02703
7.0519
7.06637
7.03862
7.00967
6.98328
7.03279
7.03756
7.05437
7.00753
6.99209
7.0133
7.02763
7.04856
6.99177
7.02321
7.04329
7.02099
7.0439
7.00454
7.01288
7.05946
7.02315
6.92277
6.99964
7.04271
7.06182
7.07235
7.04227
6.99461
7.03181
7.03862
7.05376
7.00508
6.98822
7.00878
7.02494
7.04788
7.02717
7.03321
7.03789
6.99067
7.04532
7.00725
6.99589
7.04834
7.04268
6.95495
6.99242
7.03998
7.06375
7.09552
7.06102
7.03187
7.03621
7.04007
7.05309
7.03457
7.01612
7.01989
7.02982
7.04972
7.03981
7.03857
7.03681
6.98978
7.04991
7.02546
7
7.04942
7.05233
7.00312
7.00403
7.04282
7.06483
7.05929
7.06261
7.05839
7.04252
7.04201
7.05273
7.06467
7.04509
7.03228
7.03795
7.05369
7.04196
7.04466
7.04052
7.03536
7.05545
7.04183
7.00441
7.05445
7.07539
7.05991
7.0229
7.04501
7.06138
7.06201
7.09078
7.06153
7.04278
7.04316
7.05397
7.02092
7.04808
7.04071
7.04815
7.05717
7.06506
7.05189
7.04626
7.046
7.06104
7.05932
7.01311
7.06012
7.0523
7.10575
7.03783
7.04282
7.05465
7.03488
7.06004
7.04502
7.04049
7.0454
7.05261
6.97809
7.05275
7.04521
7.05588
7.05847
7.04788
7.0547
7.05141
7.0508
7.05681
7.06101
7.02252
7.06297
7.00975
7.09281
7.04655
7.04114
7.04917
7.01157
7.01895
7.0349
7.04088
7.04966
7.05138
6.97415
7.05216
7.05494
7.06012
7.05831
7.01197
7.05816
7.05745
7.05005
7.06045
7.04659
7.02863
7.06161
7.01621
7.06365
7.05338
7.04184
7.04783
7.03036
7.01729
7.03929
7.04517
7.05232
7.05115
7.03
7.04414
7.05886
7.06104
7.05745
6.9968
7.06482
7.06382
7.042
7.06145
7.01297
7.03276
7.05903
7.05093
7.0619
7.06087
7.04262
7.05428
7.0645
7.05437
7.04873
7.04987
7.05373
7.05317
7.09381
7.06296
7.05754
7.06193
7.058
7.09291
7.0728
7.06717
7.045
7.04001
6.95793
7.0341
7.05772
7.08671
7.06607
7.06891
7.04301
7.05729
7.0895
7.08173
7.04909
7.05503
7.05528
7.05561
7.09752
7.06936
7.05576
7.06136
7.05877
7.09764
7.06947
7.06658
7.05163
7.00614
6.91714
7.03063
7.05538
7.09918
7.05524
7.06858
7.04396
7.05703
7.097
7.09254
7.04654
7.05611
7.05539
7.05693
7.08668
7.06319
7.05566
7.05996
7.05948
7.0805
7.06468
7.06456
7.0518
6.99749
6.97081
7.02696
7.0444
7.12007
7.04671
7.05013
7.04219
7.05274
7.08537
7.08535
7.04663
7.05528
7.05444
7.05683
7.07455
7.05762
7.05516
7.05824
7.05971
7.06879
7.06286
7.06315
7.05103
7.00953
7.01555
7.01259
7.03182
7.06973
7.02253
7.02936
7.03586
7.0443
7.06034
7.0638
7.04815
7.0596
7.05374
7.05461
7.06364
7.05584
7.05754
7.05842
7.06015
7.06274
7.06327
7.06366
7.04215
7.01133
7.02503
7.00767
7.03997
6.99517
6.99281
7.01061
7.04002
7.04148
7.04153
7.04318
7.05254
7.06311
7.05587
7.05787
7.05598
7.05666
7.06485
7.06098
7.06304
7.06234
7.06576
7.06609
7.03562
6.99593
6.99896
7.02257
7.0431
6.98963
6.97744
7.0246
7.05216
7.05482
7.0329
7.0322
7.06082
7.06476
7.05924
7.06981
7.05495
7.0602
7.07117
7.065
7.06878
7.06715
7.06996
7.0704
7.05491
7.01289
7.0342
7.08993
7.07486
6.94586
7.01665
7.06322
7.06668
7.06412
7.03896
7.03412
7.07381
7.07264
7.0746
7.08858
7.06243
7.0677
7.07629
7.07251
7.07844
7.0752
7.07649
7.07669
7.08168
7.04558
7.07898
7.10769
7.08028
6.9539
7.04557
7.07855
7.07029
7.06131
7.05355
7.05001
7.08267
7.08282
7.08376
7.08049
7.07494
7.07754
7.08312
7.07904
7.08064
7.08591
7.08514
7.08404
7.08218
7.06541
7.06558
7.08903
7.0831
7.05078
7.06019
7.08515
7.07688
7.07251
7.08058
7.07615
7.08705
7.08891
7.08738
7.08431
7.08657
7.08749
7.08887
7.09025
7.0844
7.09174
7.09267
7.09144
7.08502
7.09788
7.05246
7.08747
7.09266
7.11443
7.08499
7.09205
7.08944
7.08848
7.10384
7.09709
7.09031
7.09203
7.09195
7.09184
7.09521
7.09402
7.08995
7.10281
7.10391
7.09472
7.09708
7.09894
7.09572
7.1441
7.08745
7.09788
7.10236
7.14012
7.10463
7.09664
7.09775
7.10049
7.11592
7.10985
7.09354
7.09252
7.09684
7.09596
7.10258
7.09837
7.08936
7.10161
7.10355
7.09718
7.10002
7.10247
7.10581
7.15947
7.11525
7.10609
7.10687
7.14146
7.10806
7.0995
7.1012
7.10216
7.12006
7.11477
7.09749
7.09457
7.09772
7.09666
7.10709
7.10166
7.08489
7.08965
7.09723
7.10052
7.10071
7.09964
7.1108
7.14258
7.11885
7.10906
7.1076
7.13083
7.10752
7.10116
7.10319
7.10213
7.12047
7.11545
7.10185
7.09585
7.09614
7.09609
7.10838
7.10063
7.0822
7.07931
7.09348
7.10218
7.09854
7.09248
7.11305
7.12936
7.11524
7.10943
7.10762
7.12281
7.10591
7.10437
7.10232
7.10193
7.11845
7.11425
7.10242
7.09545
7.09365
7.09578
7.10777
7.10033
7.08579
7.07725
7.09095
7.1028
7.09318
7.08585
7.11371
7.12163
7.11098
7.10988
7.10698
7.11762
7.10526
7.107
7.10083
7.10199
7.11576
7.11239
7.10226
7.09537
7.09243
7.09566
7.10711
7.10126
7.09263
7.08444
7.0909
7.10137
7.09041
7.08297
7.11314
7.11685
7.10825
7.10914
7.10556
7.11419
7.10539
7.10494
7.0997
7.10213
7.11329
7.11037
7.10109
7.09854
7.09332
7.09624
7.1075
7.09974
7.09948
7.09052
7.09145
7.10034
7.09262
7.08291
7.11072
7.113
7.10744
7.10716
7.10396
7.11156
7.10524
7.10165
7.10027
7.10249
7.11153
7.10924
7.10147
7.1025
7.09697
7.09815
7.10833
7.10108
7.10045
7.09003
7.09276
7.10361
7.09779
7.08489
7.1077
7.1107
7.10738
7.10361
7.10206
7.10999
7.10629
7.09931
7.10213
7.10322
7.1105
7.10878
7.10393
7.1048
7.10222
7.10137
7.10913
7.10434
7.10203
7.09142
7.09856
7.11064
7.10793
7.09382
7.10448
7.10944
7.10655
7.09957
7.09919
7.10929
7.10508
7.09832
7.10147
7.10369
7.11036
7.10931
7.10747
7.10697
7.10759
7.10535
7.11014
7.10778
7.10913
7.10668
7.10697
7.1155
7.11915
7.10928
7.10369
7.10862
7.10533
7.09832
7.09537
7.10891
7.10433
7.09717
7.1012
7.10465
7.11089
7.11034
7.11238
7.10744
7.10988
7.10843
7.11139
7.11024
7.11274
7.11288
7.11141
7.11706
7.11987
7.12192
7.10539
7.10894
7.10715
7.10012
7.09592
7.10771
7.10229
7.09931
7.10315
7.10596
7.1114
7.11008
7.11324
7.10602
7.10909
7.10867
7.11226
7.11457
7.11069
7.11196
7.11098
7.11808
7.11691
7.11795
7.11573
7.1101
7.10924
7.11129
7.10791
7.10493
7.10035
7.10267
7.10449
7.10582
7.11093
7.10835
7.11027
7.10312
7.10613
7.10652
7.11202
7.114
7.10754
7.10869
7.10791
7.11761
7.11303
7.11264
7.11693
7.11346
7.11594
7.11091
7.10711
7.10176
7.10429
7.10207
7.1021
7.1033
7.10921
7.10563
7.10699
7.10027
7.10173
7.10222
7.10996
7.10858
7.10431
7.10405
7.10339
7.11396
7.10887
7.10796
7.11055
7.11486
7.11514
7.10539
7.10079
7.10181
7.10343
7.09906
7.09617
7.09846
7.10701
7.105
7.1021
7.09609
7.0959
7.09684
7.10817
7.10095
7.09995
7.09843
7.09769
7.10803
7.10392
7.10218
7.0973
7.1171
7.11706
7.09579
7.09285
7.10255
7.09731
7.09376
7.08879
7.0927
7.1037
7.10086
7.09611
7.09003
7.0889
7.09043
7.1069
7.0955
7.09423
7.09146
7.09093
7.10248
7.09826
7.09592
7.0877
7.11927
7.11106
7.08509
7.08525
7.10313
7.0954
7.08612
7.07978
7.0861
7.10061
7.09627
7.09129
7.08352
7.08019
7.08264
7.1047
7.09283
7.08739
7.08389
7.08318
7.09828
7.0921
7.08929
7.08627
7.13846
7.10855
7.07972
7.07807
7.11569
7.09453
7.07789
7.06906
7.07761
7.09925
7.09628
7.08574
7.07781
7.06919
7.07308
7.10281
7.09032
7.08173
7.07596
7.07416
7.09348
7.08547
7.08231
7.09021
7.13424
7.1067
7.08063
7.07296
7.12078
7.09303
7.0704
7.05588
7.06565
7.09923
7.09581
7.07965
7.07234
7.05642
7.05927
7.09961
7.08569
7.07793
7.06804
7.06288
7.08858
7.07856
7.07473
7.09748
7.12295
7.10679
7.08676
7.07065
7.11172
7.09081
7.06401
7.0398
7.04752
7.09808
7.09094
7.07382
7.06593
7.03978
7.03742
7.09526
7.08142
7.07155
7.05716
7.04613
7.08341
7.07217
7.06578
7.10574
7.11862
7.11017
7.09711
7.07194
7.10846
7.0896
7.0617
7.01879
7.01438
7.09683
7.08732
7.06927
7.05809
7.01426
6.99779
7.09214
7.08037
7.06491
7.04243
7.01876
7.07994
7.06672
7.05475
7.11557
7.1205
7.11757
7.10729
7.07661
7.10004
7.09109
7.06142
6.99353
6.95248
7.09869
7.08907
7.06817
7.04541
6.97079
6.91546
7.09354
7.08068
7.05844
7.02074
6.97061
7.0787
7.06211
7.04156
7.12954
7.12475
7.1303
7.11989
7.09006
7.08544
7.09614
7.05885
6.95898
6.81464
7.10537
7.09231
7.06737
7.02889
6.89988
6.71762
7.10124
7.08665
7.0512
6.98876
6.88218
7.08281
7.0608
7.028
7.14963
7.13161
7.14867
7.1361
7.09902
7.06816
7.10527
7.05049
6.90219
6.48196
7.12684
7.10333
7.07023
7.00359
6.80203
6.22665
7.11995
7.10096
7.05022
6.94666
6.70607
7.10086
7.0678
7.0187
7.17606
7.1592
7.17323
7.15606
7.09747
7.09878
7.12495
7.03786
6.82383
5.56269
7.17633
7.14021
7.07363
6.98332
6.70144
5.52754
-4.51517
7.15127
7.12351
7.05676
6.89721
6.28399
7.12815
7.08346
7.02219
7.20638
7.21233
7.2022
7.17922
7.10387
7.20146
7.15487
7.04828
6.77873
5.0943
0.311465
7.2696
7.21027
7.09677
7.00161
6.67882
5.39112
0.525515
7.20054
7.15485
7.07681
6.88657
5.72874
7.16306
7.11794
7.05944
7.23438
7.26332
7.23099
7.20106
7.13048
7.28492
7.17619
7.0803
6.79555
5.58192
1.4535
7.36495
7.29401
7.14765
7.03815
6.80393
5.32165
1.52396
7.26356
7.20203
7.12857
6.97571
6.07649
1.84919
7.21305
7.17646
7.15178
7.24564
7.29441
7.25082
7.21634
7.17459
7.32196
7.20124
7.13356
6.90203
5.70349
1.40486
7.44011
7.37547
7.20697
7.10161
6.98886
5.86216
1.13665
7.32683
7.25572
7.22299
7.08162
6.36846
7.27452
7.24802
7.25971
7.25599
7.30335
7.2745
7.229
7.20619
7.33341
7.23942
7.20322
7.0984
6.24034
7.41313
7.34439
7.27172
7.19687
7.15269
6.23203
-3.0683
7.36268
7.30933
7.29913
7.24414
7.02534
7.33018
7.30717
7.33295
7.27329
7.28473
7.29973
7.25922
7.23117
7.31498
7.26023
7.27699
7.25704
7.16424
7.43035
7.39913
7.2982
7.28637
7.28802
7.07144
7.50033
7.37864
7.33803
7.33567
7.31967
7.38706
7.33509
7.36156
7.28638
7.31989
7.29759
7.24178
7.27264
7.32258
7.29293
7.30057
7.33829
7.38581
7.43195
7.40631
7.32426
7.34456
7.36481
7.37188
7.52385
7.42498
7.38202
7.39349
7.4329
7.44219
7.36275
7.41748
7.31136
7.34366
7.31094
7.26096
7.31171
7.33861
7.29088
7.29888
7.36707
7.42841
7.4137
7.38514
7.33997
7.35609
7.39422
7.43674
7.471
7.43343
7.41034
7.41964
7.4686
7.49015
7.43035
7.46895
7.34549
7.36155
7.32051
7.29538
7.34082
7.34295
7.29665
7.31522
7.36698
7.41797
7.39515
7.36042
7.32927
7.35466
7.39051
7.43081
7.41502
7.39149
7.40238
7.41924
7.45683
7.45582
7.43264
7.46603
7.38236
7.37962
7.3455
7.3348
7.37354
7.3486
7.31061
7.33322
7.37374
7.41577
7.38336
7.34785
7.33174
7.35824
7.38952
7.4267
7.37548
7.37091
7.39036
7.41136
7.44201
7.41795
7.41895
7.44254
7.41589
7.40591
7.376
7.37193
7.40207
7.36331
7.33337
7.35718
7.38939
7.42607
7.37854
7.34736
7.34463
7.36777
7.39627
7.43141
7.35688
7.36011
7.38644
7.40301
7.43608
7.3886
7.40805
7.42553
7.44048
7.43291
7.40534
7.39699
7.41952
7.38323
7.36157
7.3685
7.39965
7.43938
7.37536
7.34838
7.34848
7.36622
7.39555
7.44985
7.34962
7.35272
7.38312
7.40066
7.45167
7.37916
7.4052
7.42219
7.45428
7.44866
7.42184
7.40882
7.42773
7.39905
7.37466
7.37735
7.40697
7.45672
7.37824
7.34886
7.35234
7.37283
7.41009
7.47457
7.34875
7.36085
7.387
7.41748
7.48411
7.38472
7.40937
7.42916
138.649
136.88
139.358
139.889
138.737
139.534
145.091
143.165
138.51
138.884
136.262
137.415
132.247
134.667
133.776
130.887
134.347
141.326
138.807
149.064
134.37
141.397
136.991
133.836
132.768
131.329
138.879
133.847
137.476
135.886
131.678
140.487
146.996
133.022
145.88
149.697
149.772
138.789
131.905
134.439
130.675
130.687
129.502
129.543
128.482
130.059
130.276
129.306
133.158
134.492
133.45
133.398
133.836
128.596
127.632
132.99
133.69
128.129
129.154
132.532
130.522
130.258
130.81
129.317
128.412
129.45
130.963
129.819
130.309
130.738
132.138
131.365
128.034
131.113
130.015
127.745
128.707
128.143
128.732
129.001
129.931
128.603
131.48
130.936
134.305
133.611
136.115
134.784
128.649
128.436
130.494
128.487
130.355
133.552
131.123
135.458
129.857
127.873
128.858
129.97
130.272
128.858
128.058
128.8
130.962
130.252
129.303
130.606
128.068
129.928
125.542
129.5
127.514
129.229
129.216
128.252
127.735
128.234
127.717
127.637
127.296
127.051
126.287
124.871
124.248
125.942
124.899
125.695
124.308
128.684
125.778
127.74
127.273
126.866
127.46
125.777
124.827
123.716
124.215
124.012
125.977
124.435
126.569
126.984
125.001
125.057
125.804
123.398
122.551
123.875
124.163
123.869
124.176
123.678
123.932
123.353
124.613
123.25
123.629
126.659
126.506
126.476
125.014
124.328
125.398
124.033
123.116
123.737
123.603
124.901
123.266
123.717
123.805
123.471
126.478
124.885
124.365
124.274
123.073
124.002
125.764
123.124
125.083
125.57
124.979
121.972
122.588
121.689
123.777
122.518
120.572
119.976
119.249
121.617
118.231
125.095
122.74
125.932
125.378
125.494
122.746
123.053
122.792
123.177
120.705
123.257
121.469
118.097
116.27
118.813
115.565
120.069
112.985
124.997
123.873
123.734
123.051
122.138
121.761
119.305
118.268
111.921
110.741
107.884
122.799
122.304
121.35
120.645
120.856
117.356
117.609
108.493
105.917
106.066
121.943
120.492
122.955
121.69
122.099
120.165
121.203
120.07
120.48
117.677
118.91
117.596
110.567
105.927
108.394
105.853
103.313
121.57
119.834
121.078
121.069
119.611
119.626
119.87
119.7
119.82
117.009
112.423
117.674
109.843
116.467
97.464
116.089
117.295
116.912
102.489
103.908
106.646
114.385
110.921
98.1262
99.6874
83.9663
104.921
59.5014
116.764
98.1504
117.996
118.05
119.909
95.7104
104.426
104.587
113.854
94.386
102.366
88.9139
57.4751
20.2698
57.4656
17.4892
84.6185
12.1099
118.777
119.19
118.666
104.595
109.032
109.8
79.8105
75.1778
12.7924
9.30201
11.7921
118.157
118.697
111.536
113.087
114.684
68.1723
63.5882
8.40336
10.8031
8.46663
118.501
115.288
117.6
118.152
117.953
116.412
111.431
115.978
112.931
63.9938
73.3528
64.5793
17.8428
8.67452
11.8311
8.72968
8.48909
118.146
112.57
116.028
115.793
108.48
88.6687
74.2333
82.8093
104.776
36.0123
16.2769
37.4063
10.0214
61.3522
12.2242
71.8411
72.7892
82.1861
25.336
22.0939
35.1097
63.6006
26.169
13.5113
14.9983
6.94693
9.12721
6.08417
59.7594
10.7606
73.4155
71.7131
97.8575
12.4953
22.0905
19.6648
56.4224
6.50434
9.56785
6.44939
6.11237
6.91605
6.08243
7.05154
5.75989
7.22402
66.9823
72.2221
82.3315
13.8886
14.0083
22.7454
5.59867
5.3442
7.30302
7.32724
7.16861
97.9616
103.824
25.8287
49.2315
63.4422
5.33728
5.59694
7.31762
7.15654
7.3134
106.033
66.8583
97.9664
104.837
90.8292
79.8729
64.5471
42.1878
19.2179
6.01391
6.26933
6.09531
6.92397
7.07585
7.05171
7.14263
7.22702
70.7407
8.91088
9.78927
8.09159
6.50575
5.73463
5.87873
6.26897
6.68331
6.45132
6.82662
6.25356
7.05694
6.47395
6.92558
7.25459
6.97433
7.80518
6.66598
6.70811
6.68431
6.818
6.65765
6.90709
6.85992
6.99884
7.37325
7.16851
6.38944
6.91052
7.01399
6.89775
9.23948
6.85427
6.68007
6.71446
6.80994
7.25617
7.42993
7.13699
7.13368
7.17299
7.1498
7.11946
7.21143
7.14819
6.37431
6.28872
6.69214
6.80641
6.81419
6.58134
7.04143
7.21769
7.13327
7.09081
6.80614
7.87
9.27457
6.35549
6.17536
5.94642
7.17032
7.06751
7.08051
6.76641
7.07169
8.54193
5.66397
8.45
6.9396
6.48248
5.72637
5.92093
6.11956
6.48191
6.86382
6.94128
6.90182
6.92391
6.91722
6.93103
6.93604
6.98405
6.04228
6.88742
7.07737
7.24269
6.90844
6.96711
6.96428
6.96177
7.03423
6.91677
6.89916
7.01732
6.95894
7.04805
7.0211
7.07341
6.9525
7.0626
7.04047
6.9667
7.01747
7.02273
7.02842
7.02506
7.02679
7.04433
7.10532
7.10516
7.01695
7.01451
6.9219
6.93905
7.14006
6.99249
6.98739
6.98745
7.07604
7.14134
7.09554
7.11282
7.10875
7.11926
7.08906
7.10907
7.14068
7.12147
7.01041
7.03992
6.89147
6.99873
6.93786
6.90809
7.06104
7.10825
7.28866
7.17275
7.09947
7.08311
7.05328
7.08545
7.0946
7.08025
7.09026
7.09216
7.06386
7.0744
7.08128
7.22818
6.99334
6.9259
7.0863
7.2242
7.06015
7.06383
7.05739
7.03739
7.04642
7.05857
7.06459
7.04068
7.05901
7.05081
7.05919
7.03693
7.06434
7.24034
7.08725
7.24407
7.18055
6.9769
7.03289
7.03517
7.05405
6.99614
6.95459
6.92386
6.94658
6.93927
6.97777
6.94913
6.98347
7.01309
7.05917
6.9949
7.01714
6.95697
6.94388
7.06304
7.10413
6.89845
6.97707
6.93099
6.91016
6.93462
6.93528
7.04499
7.05704
7.01098
6.99491
7.01198
7.00946
7.01658
7.01477
7.02851
7.05325
7.02567
7.02776
7.03196
7.07473
7.04501
7.02218
7.02272
7.01889
7.00828
7.03548
7.02757
7.03376
7.01588
7.02575
7.08852
7.06068
7.08786
7.05337
7.04886
7.02904
7.04973
7.08724
7.11495
7.04824
7.0828
7.0916
7.09016
7.06994
7.07833
7.00579
7.05544
6.97808
7.02617
7.1403
7.04466
7.13028
7.07444
7.08903
7.09883
7.08222
7.05377
7.06497
7.08665
7.0789
7.07126
7.06573
7.07471
7.0508
7.06476
6.95977
7.03006
7.07941
7.02975
7.032
7.06534
7.04274
7.07438
7.03945
7.06051
7.03413
7.06482
7.05886
7.04635
7.05924
7.04167
7.05816
7.04278
7.06246
7.00111
7.02
6.99624
7.00822
7.02018
7.01984
7.00941
7.02074
7.02508
6.98512
6.95466
6.98188
6.94993
6.98644
6.9712
6.99196
7.06747
7.00622
7.06226
7.05628
7.03845
7.05639
7.00446
7.02543
7.00059
7.06329
6.96176
6.9862
7.02054
6.94011
6.9677
6.97494
6.9667
6.98956
6.96663
7.03215
7.01858
7.0151
7.01469
7.01069
7.01989
7.01385
7.01108
7.01994
7.01619
7.0152
7.0114
7.00579
7.01666
6.99576
7.01365
7.00471
7.02714
7.00968
7.01457
7.01739
7.01861
7.00289
7.00017
7.01116
6.98729
7.00179
6.98445
6.98144
6.94216
6.96536
7.0139
7.07628
6.98773
7.06627
7.0622
7.07182
7.04614
7.0624
7.0209
7.08672
7.03859
7.01118
7.03428
7.01695
7.07289
7.0326
7.05933
7.02709
7.06494
7.01499
7.05795
7.06925
7.04893
7.06344
7.03814
7.06054
7.03792
7.05832
7.04149
7.02922
7.0336
7.01556
7.00983
7.06187
7.02677
7.0626
7.01075
7.06009
7.01078
7.06116
7.05813
7.04302
7.06152
7.03229
7.05642
7.03482
7.05875
7.02942
7.01166
6.99634
7.01324
7.0092
6.99495
6.9787
6.99869
7.00152
6.98237
6.97402
6.99575
6.96055
6.98412
6.98641
7.00236
7.05885
6.99246
7.05429
7.05622
7.03029
7.05335
7.01337
6.99815
7.00306
7.00977
6.97985
7.01324
7.01323
6.98388
7.00671
7.00262
6.99462
7.02002
6.98864
7.01028
7.00541
7.01986
7.01513
7.01079
7.01311
7.01286
7.00851
7.00071
6.99828
6.99749
6.99243
6.99348
6.98574
6.98334
7.00002
6.99956
7.01101
6.99805
6.98992
7.00769
7.0059
6.99747
6.98716
6.96656
6.91272
6.94091
6.96667
6.95511
6.9149
6.90728
6.97816
6.95655
7.0023
7.00216
6.99939
6.99401
6.98754
6.98615
7.0565
6.99895
7.05195
6.99335
7.04841
6.99307
7.04158
7.0597
7.0372
7.05902
7.03278
7.05526
7.03299
7.05388
6.98948
6.9849
6.98123
6.97212
6.97079
7.05856
6.99939
7.05501
7.00144
7.05264
6.99492
7.05065
7.05857
7.03559
7.05631
7.03102
7.05389
7.02902
7.05302
6.991
6.9769
6.96688
6.99037
6.99831
6.96519
6.95701
6.98333
6.98943
7.00221
6.99509
7.01342
7.02159
7.0231
7.00301
7.02228
7.0136
6.99164
6.98437
7.01192
7.01272
6.98152
7.00406
7.0046
6.99835
7.02533
7.00201
6.998
7.02412
7.00513
7.00299
7.00311
7.00859
7.01038
7.00679
7.00601
7.0084
7.00621
6.99064
6.99282
6.99317
6.99207
6.99347
6.98908
6.99611
7.00205
7.00501
7.00399
7.00021
6.99119
7.00628
7.00403
7.00373
6.99608
6.96365
6.94955
6.91693
6.98972
6.97727
6.97172
6.93858
6.95469
6.9543
6.99113
6.98085
6.9796
6.99167
6.98069
6.97883
6.9857
7.02936
6.972
6.97981
6.98948
6.96223
6.96917
6.97537
6.96307
6.98055
7.05061
6.99729
7.00314
7.03136
7.01064
6.97106
6.97111
6.94637
6.97666
6.98066
6.94948
6.94196
6.9714
6.97514
7.03756
7.00426
7.02525
7.05815
7.04375
7.00201
7.02698
7.02982
6.97602
6.96961
6.99306
6.9926
6.96954
6.98289
6.98267
6.99622
7.01274
6.99125
6.99295
6.99995
7.00733
7.00462
7.00682
7.00487
7.00714
7.00621
7.00439
7.00669
7.00653
6.99414
6.99274
6.99477
6.99494
6.99042
7.0021
7.00424
7.00808
7.01306
7.00545
7.00743
6.99839
7.01119
7.00811
7.01237
7.00669
6.99673
6.99092
6.96484
7.01109
7.01008
6.99355
6.98429
6.96299
6.97115
6.99504
6.98515
6.98324
7.00184
6.99443
6.99256
6.98338
6.99129
6.96509
6.97994
6.98355
6.97521
6.99824
7.0129
6.99294
7.01717
7.02649
7.01771
7.00957
7.01933
7.01524
6.97659
6.9863
6.94197
6.9613
6.96177
6.95548
6.94185
6.9598
6.95013
7.03715
6.99874
7.02312
7.02632
7.03438
6.99344
7.0215
7.02506
6.96715
6.96629
6.97674
6.97783
6.97801
6.97461
6.97597
6.98941
6.98737
6.97606
6.9832
6.97923
6.99588
7.00902
7.01087
7.00359
7.00648
7.00636
7.00306
7.00613
7.00619
6.99271
6.98584
6.98972
6.98907
6.98143
7.00059
6.99435
7.02067
7.02846
7.01082
7.01747
7.01601
7.02124
7.01402
7.02199
7.01993
7.01162
6.98728
6.99274
7.00461
7.00795
6.97804
6.99278
6.97858
6.97993
7.01107
7.00765
7.00472
7.02202
7.02163
7.01761
6.97699
6.9769
6.95987
6.9728
6.97258
7.01282
7.03393
7.0576
7.0318
7.04808
7.0086
7.00847
6.99702
6.99894
7.00181
7.00121
7.01741
6.95833
6.97412
6.96077
6.98906
6.9869
6.99497
6.98468
7.02293
6.99013
7.01659
7.00105
7.01876
6.99029
7.0155
7.01315
6.9761
6.99158
6.97432
6.97743
6.99673
6.97959
6.98605
6.97672
6.97034
6.96274
6.97501
6.96845
6.99036
7.01304
7.01612
7.00329
7.00551
7.0067
7.00446
7.00622
7.00741
6.98739
6.97855
6.99102
6.98988
6.97889
6.98852
6.98582
7.03591
7.04217
7.01781
7.02542
7.02304
7.03029
7.0215
7.02732
7.02621
6.9998
6.96815
6.98881
6.98807
6.99326
6.96126
6.98579
6.98027
6.98016
7.03288
7.03462
7.0295
7.0427
7.04495
7.03902
6.96886
6.96888
6.95564
6.96628
6.96629
7.04814
7.06031
7.08508
7.06045
7.07027
6.99015
6.99629
6.9841
6.985
6.99356
7.03242
7.04426
7.01136
7.01825
7.01077
7.02788
7.02083
7.03681
7.02758
7.01435
6.99459
7.01566
6.99676
7.01358
7.00368
7.01899
7.00654
7.00963
7.02615
6.99216
7.00558
7.02545
7.00645
7.02708
6.98002
6.97342
6.97786
6.99225
6.98452
7.00402
7.01969
7.02328
7.00667
7.00867
7.00913
7.00959
7.01232
7.012
6.9954
6.98365
7.00184
7.00208
6.99196
6.98559
6.98909
7.04638
7.04856
7.02485
7.02835
7.02883
7.03459
7.02797
7.02975
7.02848
6.98882
6.95861
6.98435
6.9815
6.98944
6.96321
6.98739
6.98189
6.98646
7.0502
7.05216
7.04496
7.05468
7.05572
7.04725
6.9654
6.96817
6.96064
6.96785
6.97144
7.06797
7.07485
7.09048
7.07113
7.07767
6.98302
6.99305
6.98294
6.98411
6.99515
7.05985
7.07118
7.02767
7.05134
7.03903
7.05721
7.0494
7.06213
7.05032
7.01464
7.0167
7.02454
7.00683
7.01629
7.03218
7.03061
7.00799
7.03706
7.04728
7.02225
7.05244
7.04256
7.03756
7.06728
7.00686
7.00163
7.00886
7.02345
7.01994
7.0331
7.02732
7.03239
7.01407
7.01618
7.01674
7.02166
7.02227
7.02466
7.01047
7.00237
7.01891
7.0192
7.01381
6.99707
7.00905
7.04935
7.04974
7.03085
7.0315
7.02743
7.03622
7.03394
7.03338
7.02823
6.99526
6.97297
6.99385
6.99638
7.00627
6.98653
7.00566
6.99439
7.00632
7.0561
7.05604
7.04666
7.05623
7.0543
7.04463
6.97472
6.98191
6.98383
6.98495
6.99315
7.07072
7.07879
7.08705
7.06955
7.07945
6.99032
7.00113
6.99529
6.99783
7.00747
7.07624
7.07502
7.05894
7.06591
7.05685
7.0662
7.05721
7.06757
7.06269
7.01945
7.04493
7.03723
7.0202
7.02227
7.05213
7.04121
7.01654
7.05669
7.06201
7.04785
7.06715
7.04662
7.05327
7.06625
7.04101
7.03597
7.04387
7.05257
7.05034
7.05318
7.03852
7.04606
7.03064
7.03008
7.03389
7.04216
7.03956
7.04328
7.02818
7.02661
7.04382
7.03939
7.04222
7.02613
7.04605
7.04991
7.05013
7.03806
7.03595
7.03077
7.043
7.04352
7.03981
7.03576
7.02254
7.00247
7.02109
7.03109
7.04064
7.02264
7.03898
7.0223
7.0394
7.05539
7.05194
7.04258
7.05401
7.04972
7.04148
7.00128
7.01271
7.02259
7.0184
7.03073
7.06785
7.08169
7.08229
7.06626
7.08332
7.01071
7.01894
7.01849
7.023
7.02748
7.07571
7.07909
7.05508
7.0689
7.06539
7.07218
7.0544
7.07035
7.06543
7.02714
7.05567
7.04607
7.03137
7.03137
7.05741
7.04939
7.03136
7.06438
7.06459
7.05695
7.06428
7.04993
7.05897
7.06615
7.05831
7.05973
7.06155
7.0598
7.06616
7.05811
7.05455
7.06264
7.05573
7.05116
7.05521
7.06923
7.064
7.06757
7.05109
7.06075
7.07654
7.06401
7.07988
7.06744
7.08637
7.05137
7.05364
7.04986
7.04402
7.04173
7.05473
7.05664
7.04756
7.04856
7.05965
7.04554
7.05649
7.07449
7.07539
7.06866
7.07167
7.05623
7.07031
7.05293
7.04832
7.04135
7.05439
7.04795
7.04217
7.0373
7.05
7.05974
7.05222
7.06453
7.06548
7.08401
7.07848
7.06277
7.08084
7.03523
7.03842
7.03941
7.04517
7.04683
7.08078
7.07867
7.05542
7.07039
7.0641
7.0686
7.05203
7.06712
7.0582
7.03608
7.05833
7.05334
7.03921
7.03907
7.05889
7.05576
7.04445
7.06263
7.05693
7.058
7.06348
7.04119
7.05126
7.05688
7.0601
7.06751
7.05996
7.05697
7.06519
7.05846
7.06917
7.07385
7.08184
7.07442
7.07842
7.09216
7.08144
7.08794
7.0789
7.09606
7.10627
7.09205
7.10605
7.09805
7.10211
7.05509
7.05519
7.06302
7.05098
7.05638
7.06476
7.06765
7.05463
7.06079
7.08682
7.08657
7.08186
7.09555
7.09284
7.0948
7.08765
7.08005
7.08525
7.05532
7.04812
7.04394
7.05484
7.04798
7.04565
7.06392
7.07417
7.07858
7.06994
7.07888
7.05696
7.07348
7.06483
7.04924
7.06287
7.05244
7.0535
7.05082
7.05726
7.05746
7.07126
7.0587
7.04334
7.0585
7.04766
7.04456
7.02876
7.04656
7.03496
7.04047
7.05881
7.05743
7.04083
7.04068
7.05794
7.05827
7.05091
7.04723
7.03603
7.04509
7.05278
7.02242
7.03736
7.04592
7.05174
7.06301
7.05039
7.04713
7.05332
7.0548
7.07603
7.07471
7.09812
7.08433
7.09426
7.09768
7.082
7.09429
7.09804
7.10734
7.11882
7.09694
7.10105
7.10018
7.09554
7.05445
7.0527
7.06932
7.05603
7.06041
7.06598
7.06728
7.0549
7.05599
7.09377
7.09572
7.08884
7.09205
7.09137
7.09134
7.08701
7.0865
7.0848
7.05242
7.04656
7.04568
7.04791
7.04415
7.045
7.07112
7.07851
7.07801
7.0707
7.07681
7.04019
7.04849
7.04561
7.03168
7.03266
7.05965
7.05904
7.05461
7.06065
7.05955
7.04531
7.0354
7.01364
7.03387
7.02119
7.02147
7.00356
7.02108
7.00069
7.03911
7.05593
7.0578
7.03747
7.03779
7.05321
7.05527
7.05174
7.02194
7.00634
7.02416
7.03444
7.00488
7.01168
7.02671
7.04205
7.0466
7.04922
7.04017
7.04391
7.04955
7.0698
7.06142
7.09016
7.07452
7.08635
7.07525
7.0628
7.06925
7.09154
7.09087
7.09555
7.08077
7.08115
7.08917
7.08407
7.05
7.04731
7.06193
7.05227
7.04811
7.05712
7.05359
7.04935
7.03719
7.08692
7.08554
7.08332
7.08273
7.08119
7.07896
7.07864
7.08148
7.07745
7.04202
7.04199
7.04375
7.03724
7.04114
7.0417
7.06774
7.07282
7.07046
7.06486
7.0693
7.02627
7.02117
7.03397
7.02736
7.01819
7.06046
7.05893
7.05482
7.05991
7.05823
7.02639
7.01836
6.99848
7.00827
6.97922
7.00788
6.99415
6.99778
6.96492
7.03575
7.04968
7.05117
7.03087
7.03421
7.04528
7.04618
7.04966
6.99417
6.99167
7.01197
7.02428
6.99529
7.03704
7.02367
7.04086
7.04069
7.0314
7.04244
7.03339
7.04449
7.05022