/*--------------------------------*- C++ -*----------------------------------*\
| =========                 |                                                 |
| \\      /  F ield         | OpenFOAM: The Open Source CFD Toolbox           |
|  \\    /   O peration     | Version:  5.x                                   |
|   \\  /    A nd           | Web:      www.OpenFOAM.org                      |
|    \\/     M anipulation  |                                                 |
\*---------------------------------------------------------------------------*/
FoamFile
{
    version     2.0;
    format      ascii;
    class       volVectorField;
    location    "8.05";
    object      Us;
}
// * * * * * * * * * * * * * * * * * * * * * * * * * * * * * * * * * * * * * //

dimensions      [0 1 -1 0 0 0 0];

internalField   nonuniform List<vector> 
10571
(
(-0.167523 0.00266652 0.0744327)
(-0.148367 0.14313 -0.000565545)
(-0.276367 0.185759 0.102802)
(-0.223217 0.150903 0.0493651)
(-0.0857955 0.0527585 -0.148154)
(-0.0325531 0.291359 0.0540647)
(-0.32855 0.410945 0.155769)
(-0.268841 0.357049 0.114606)
(-0.126808 0.244355 -0.0630587)
(0.0778516 0.256272 -0.0193109)
(0.0254128 0.135111 -0.146192)
(0.114244 0.284663 0.103938)
(-0.118711 0.270575 0.162128)
(-0.292849 0.436624 0.131324)
(-0.103979 0.435364 0.0281231)
(0.0408216 0.294173 0.0969927)
(-0.0760539 -0.167564 0.0950132)
(-0.0404053 -0.191708 0.0539813)
(-0.156653 0.110177 0.174768)
(-0.169233 0.229383 0.0843755)
(-0.099466 0.149416 -0.0735794)
(-0.0244795 -0.0682292 -0.165565)
(0.017924 0.0250632 0.126147)
(-0.0342923 -0.0157135 -0.0670881)
(-0.0810946 0.0244489 0.109988)
(0.00324786 0.0132531 0.00961837)
(-0.148647 0.148152 0.271217)
(-0.141937 0.0811418 0.0753913)
(-0.149124 -0.00216019 -0.350867)
(0.0243159 0.153098 0.0882961)
(-0.165923 0.339975 0.453159)
(-0.199078 0.0799857 0.240779)
(-0.238202 -0.0219616 0.0669747)
(-0.0941533 -0.0443616 -0.0177048)
(-0.00095588 -0.0400814 -0.189699)
(0.1349 0.014558 0.051759)
(-0.210151 0.348371 0.324767)
(-0.280858 0.21883 0.320239)
(-0.179379 0.178705 0.169587)
(-0.0959901 0.150162 0.0251131)
(0.0174227 0.0688656 0.0403966)
(-0.191498 0.146249 0.221282)
(-0.257029 0.150961 0.272607)
(-0.215265 0.215961 0.163959)
(-0.0777187 0.1251 0.00129269)
(0.0233924 0.0107659 -0.179105)
(-0.0462099 0.0909297 0.166956)
(0.0315491 -0.0104549 -0.00942602)
(0.0219268 -0.00461614 0.00115651)
(0.0498141 -0.0366596 -0.0773272)
(-0.0964835 -0.0607873 0.354674)
(-0.0154716 -0.308955 0.00819804)
(-0.0516698 -0.121773 -0.641154)
(0.109317 -0.11558 0.0725314)
(-0.107332 0.196174 0.51034)
(-0.157096 -0.0701426 0.303757)
(-0.07861 -0.10107 -0.0204068)
(-0.0627447 -0.118819 -0.225628)
(-0.00858686 -0.0544095 -0.0646034)
(0.212312 -0.102106 0.23131)
(-0.14494 0.183531 0.459531)
(-0.207758 0.111596 0.348352)
(-0.128722 0.0843697 0.210729)
(-0.0458989 -0.0306698 -0.137067)
(0.0939711 0.0763913 0.0562115)
(-0.118678 0.104394 0.190221)
(-0.149073 0.173962 0.270985)
(-0.140011 0.194985 0.273677)
(-0.0208951 0.0237905 -0.0266803)
(0.0157985 0.0334495 -0.029935)
(0.015477 0.193322 0.194956)
(0.0628038 -0.0391457 0.083244)
(0.0891817 -0.0865575 -0.037081)
(-0.0302359 -0.0527707 -0.111495)
(0.107612 -0.286145 0.269548)
(0.0534435 -0.290643 0.0562793)
(-0.0651951 -0.107262 -0.605407)
(0.0171524 -0.071889 0.0767331)
(0.0155595 0.0109634 0.493818)
(0.0440824 -0.029768 0.192313)
(-0.0169374 -0.0512915 -0.147816)
(-0.0592714 0.0299272 -0.501328)
(-0.000709383 -0.00912528 -0.00400237)
(0.0655695 -0.0817069 0.17916)
(-0.018682 0.0334359 0.484698)
(-0.0457648 0.113495 0.165982)
(0.00937287 0.0558202 0.0281207)
(0.0394822 -0.0578298 -0.236003)
(0.0574055 0.0613748 0.164263)
(0.027356 0.12951 0.221302)
(-0.0992346 0.193307 0.2041)
(-0.057477 0.183082 0.185293)
(-0.00086964 0.00172597 -0.0990664)
(0.0945052 0.0509832 0.103764)
(-0.0575858 0.104282 0.245172)
(-0.0300318 0.0635684 0.157772)
(0 0 0)
(-0.10123 -0.131053 -0.236484)
(0.00423419 -0.215358 0.138935)
(0.0508198 -0.185695 -0.0396691)
(-0.0637484 -0.0807481 -0.493393)
(-0.218584 -0.0273256 0.0630068)
(0.0201092 -0.0143261 0.391687)
(0.0741571 -0.00576225 0.313499)
(-0.12181 0.0293785 -0.525341)
(-0.0901412 0.0610194 -0.435845)
(0.0037364 -0.0156889 -0.0341885)
(-0.121331 0.0793317 0.067211)
(0.0371442 0.0419476 0.479674)
(-0.00453563 0.103627 0.135922)
(-0.00460273 0.0337579 0.0157145)
(-0.107057 0.00182624 -0.389491)
(-0.0157695 0.0340181 0.149966)
(0.0754496 0.165862 0.257408)
(-0.121932 0.146576 0.0791557)
(-0.0481393 0.0851146 0.0861139)
(0.00437231 -0.0794056 -0.22333)
(0.160298 0.0813002 0.125238)
(-0.162745 0.0229343 0.205687)
(-0.107143 0.0670541 0.234268)
(0 0 0)
(0 0 0)
(0 0 0)
(0 0 0)
(0 0 0)
(0.0376458 0.0112041 -0.392579)
(-0.0165226 0.0477555 0.24297)
(0.0843315 0.00612382 0.0679561)
(-0.0984043 0.0573836 -0.76052)
(-0.0985072 0.0910745 -0.24566)
(-0.00837044 0.00596301 -0.00407599)
(0.0236697 -0.0472137 -0.273572)
(-0.139309 0.0971768 0.0498823)
(-0.0263288 0.17439 0.249781)
(0.0908734 0.144963 0.111578)
(-0.0487555 0.0623388 -0.818369)
(-0.125803 -0.0522234 -0.247822)
(-0.00612126 -0.00178391 -0.00229718)
(-0.0154485 0.0243133 -0.13612)
(-0.0286445 0.227887 0.188679)
(-0.0332989 0.0785317 -0.270657)
(-0.0677939 0.0126734 -0.913071)
(-0.000256072 0.0286663 -0.697084)
(-0.0826515 -0.0562639 -0.213638)
(-0.164106 0.00725705 -0.255826)
(-0.0817477 0.0333245 -0.266107)
(0 0 0)
(0 0 0)
(0 0 0)
(0 0 0)
(0 0 0)
(0 0 0)
(0.0973602 0.00577324 -0.47379)
(0 0 0)
(0.0153938 0.0216727 -0.886396)
(-0.056145 0.0746504 -0.0782823)
(-0.023793 0.0153398 -0.0246067)
(0 0 0)
(-0.0125129 -0.0263973 -0.275831)
(0.0047791 0.0504075 -0.0887007)
(-0.0296791 0.0350261 -0.728755)
(-0.0251763 0.0756003 -0.840536)
(-0.00122772 0.075276 -0.914069)
(-0.0237139 0.000171993 -0.0148292)
(0.0412148 -0.00131722 -0.159016)
(0.0287515 0.0580421 -0.139051)
(-0.0215473 0.0215047 -0.504025)
(-0.082999 0.0654747 -0.962389)
(-0.105628 0.0874101 -0.803892)
(-0.000796456 -0.00856453 -0.0218029)
(-0.0102185 -0.0413884 -0.184245)
(-0.0113952 0.0605191 -0.270549)
(-0.0850247 0.178016 -0.98985)
(0 0 0)
(0 0 0)
(0 0 0)
(0 0 0)
(0 0 0)
(0.107024 0.00386382 -0.369352)
(0.0656822 0.0130646 -0.508345)
(0 0 0)
(0.00455782 0.0454001 -0.807122)
(0 0 0)
(0 0 0)
(-0.00268591 -0.0188459 -0.278491)
(0.0667853 -0.0590962 -0.174071)
(0.0153578 -0.0232164 -0.129538)
(-0.0389723 -0.0232554 -0.647862)
(-0.0230804 0.0467285 -0.820504)
(-0.0141576 0.0922385 -0.901855)
(0 0 0)
(-0.00515858 0.0223699 -0.126953)
(0.0319573 0.0187281 -0.139148)
(0.00903021 0.054305 -0.45113)
(-0.091896 0.0252813 -0.979769)
(7.93689e-14 -1.12252e-13 1.20336e-12)
(0 0 0)
(0.0364737 0.0130917 -0.137765)
(0.170417 -0.0120346 -0.157169)
(0 0 0)
(0 0 0)
(0 0 0)
(0 0 0)
(0 0 0)
(0 0 0)
(0 0 0)
(0 0 0)
(0 0 0)
(-0.00216681 0.0408915 -0.796586)
(0 0 0)
(0 0 0)
(0 0 0)
(0.0750106 -0.0452031 -0.126055)
(0.0866752 -0.0289088 -0.0298655)
(-0.0458216 0.0427465 -0.657757)
(0.00160874 0.0431751 -0.805129)
(0.0354669 0.0713579 -0.85251)
(0 0 0)
(0.0178204 -0.0130803 -0.06198)
(0.0554129 0.00215035 -0.0811755)
(-0.0448577 0.0881436 -0.651)
(-0.111204 -0.00459249 -0.960451)
(0.0305513 0.10388 -0.885305)
(0.0775835 0.00114306 -0.0945578)
(0.207674 0.0416455 -0.116543)
(0 0 0)
(0 0 0)
(0 0 0)
(0 0 0)
(0 0 0)
(0 0 0)
(0 0 0)
(0 0 0)
(-0.0150646 0.0452274 -0.685462)
(0.00898654 0.0387947 -0.751846)
(0 0 0)
(0.0756031 0.0120693 -0.217208)
(0.0871843 -0.13277 -0.103077)
(0.10509 -0.087848 -0.00559304)
(-0.0445104 0.0602709 -0.684794)
(-0.0229848 0.0629523 -0.845286)
(0 0 0)
(0.0291247 -0.0558316 -0.0161216)
(0.0730529 -0.0226696 0.00637531)
(0.110848 -0.0295884 -0.368869)
(-0.0933062 0.032803 -0.951994)
(0.0445511 0.0999075 -0.921377)
(0.077744 0.0221071 -0.0282668)
(-0.053371 0.0981295 -0.62566)
(0 0 0)
(0 0 0)
(0 0 0)
(0 0 0)
(0 0 0)
(0 0 0)
(0 0 0)
(0 0 0)
(0 0 0)
(0.00957678 0.0438503 -0.748976)
(0 0 0)
(0 0 0)
(0.106673 -0.0290605 -0.133465)
(0.123455 0.00217934 0.031931)
(-0.00207335 0.0628047 -0.681012)
(-0.0554624 0.046526 -0.866465)
(0 0 0)
(0.0436578 0.013432 0.108912)
(0.095011 -0.0632814 -0.0423163)
(-0.092132 -0.0149518 -0.717935)
(-0.042926 0.0468113 -0.805416)
(0.0343606 0.121596 -0.873548)
(0.0760937 -0.0409895 -0.00191481)
(0 0 0)
(-0.00473202 0.0730332 -0.836759)
(0 0 0)
(0 0 0)
(0 0 0)
(0 0 0)
(0 0 0)
(0 0 0)
(0 0 0)
(0 0 0)
(0 0 0)
(0 0 0)
(0 0 0)
(0 0 0)
(0.145019 -0.0802594 0.0151333)
(0 0 0)
(-0.0994277 0.0182357 -0.872117)
(0 0 0)
(-0.00221958 0.0312447 -0.0679908)
(0.10546 -0.0712715 0.0128393)
(-0.0947152 -0.0794488 -0.611745)
(0.00655892 0.0719122 -0.872118)
(-0.0788809 0.0880473 -0.902278)
(0.0954327 -0.0405418 0.0184714)
(0 0 0)
(0 0 0)
(0 0 0)
(0 0 0)
(0 0 0)
(0 0 0)
(0 0 0)
(0 0 0)
(0 0 0)
(0 0 0)
(0 0 0)
(0 0 0)
(0 0 0)
(0 0 0)
(-0.0894614 -0.123951 -0.318655)
(0 0 0)
(-0.0515612 0.039886 -0.863552)
(0.0459205 0.105388 -0.816036)
(0 0 0)
(0.122514 -0.0895122 0.0425422)
(0 0 0)
(-0.0668301 -0.0249958 -0.834011)
(1.15498e-13 -5.04369e-14 1.02424e-12)
(0 0 0)
(0 0 0)
(0 0 0)
(0 0 0)
(0 0 0)
(0 0 0)
(0 0 0)
(0 0 0)
(0 0 0)
(0 0 0)
(0 0 0)
(0 0 0)
(0 0 0)
(0 0 0)
(0 0 0)
(0.00960769 0.0230049 -0.294721)
(0 0 0)
(-0.0424383 0.0710701 -0.85324)
(0.0361492 0.106444 -0.789824)
(0 0 0)
(0.135612 -0.039013 0.0969164)
(-0.0175886 0.0974453 -0.632151)
(0 0 0)
(-7.16715e-14 -1.41108e-13 1.07424e-12)
(0 0 0)
(0 0 0)
(0 0 0)
(0 0 0)
(0 0 0)
(0 0 0)
(0 0 0)
(0 0 0)
(0 0 0)
(0 0 0)
(0 0 0)
(0 0 0)
(0 0 0)
(0 0 0)
(0 0 0)
(0.118328 -0.0462367 0.169409)
(0 0 0)
(-0.0326906 0.121969 -0.825672)
(0.0343149 0.103391 -0.759801)
(0 0 0)
(0 0 0)
(0 0 0)
(0 0 0)
(0 0 0)
(0 0 0)
(0 0 0)
(0 0 0)
(0 0 0)
(0 0 0)
(0 0 0)
(0 0 0)
(0 0 0)
(0 0 0)
(0 0 0)
(0 0 0)
(0 0 0)
(0 0 0)
(0 0 0)
(0 0 0)
(0 0 0)
(0.00179155 0.0715461 -0.55852)
(0.0278068 0.084921 -0.772235)
(-0.0107889 0.0886161 -0.745094)
(0.0939454 -0.0764519 0.122927)
(0 0 0)
(0 0 0)
(0.0233957 0.104839 -0.759763)
(-0.0957473 0.0377678 -0.760806)
(0 0 0)
(0 0 0)
(0 0 0)
(0 0 0)
(0 0 0)
(0 0 0)
(0 0 0)
(0 0 0)
(0 0 0)
(0 0 0)
(0 0 0)
(0 0 0)
(0 0 0)
(0 0 0)
(0 0 0)
(0 0 0)
(0 0 0)
(-0.0928648 0.0270283 -0.723959)
(0 0 0)
(0 0 0)
(0 0 0)
(0 0 0)
(0 0 0)
(0 0 0)
(0 0 0)
(0 0 0)
(0 0 0)
(0 0 0)
(0 0 0)
(0 0 0)
(0 0 0)
(0 0 0)
(0 0 0)
(0 0 0)
(0 0 0)
(0.0395542 0.0834695 -0.674599)
(0 0 0)
(0 0 0)
(0 0 0)
(0 0 0)
(0 0 0)
(0 0 0)
(0 0 0)
(0 0 0)
(0 0 0)
(0 0 0)
(0 0 0)
(0 0 0)
(0 0 0)
(0 0 0)
(0 0 0)
(0 0 0)
(0 0 0)
(0 0 0)
(0 0 0)
(0 0 0)
(0 0 0)
(0 0 0)
(0 0 0)
(0 0 0)
(0 0 0)
(0 0 0)
(0 0 0)
(0 0 0)
(0 0 0)
(0 0 0)
(0 0 0)
(0 0 0)
(0 0 0)
(0 0 0)
(0 0 0)
(0 0 0)
(0 0 0)
(0 0 0)
(0 0 0)
(0 0 0)
(0 0 0)
(0 0 0)
(0 0 0)
(0 0 0)
(0 0 0)
(0 0 0)
(0 0 0)
(0 0 0)
(0 0 0)
(0 0 0)
(0 0 0)
(0 0 0)
(0 0 0)
(0 0 0)
(0 0 0)
(0 0 0)
(0 0 0)
(0 0 0)
(0 0 0)
(0 0 0)
(0 0 0)
(0 0 0)
(0 0 0)
(0 0 0)
(0 0 0)
(0 0 0)
(0 0 0)
(0 0 0)
(0 0 0)
(0 0 0)
(0 0 0)
(0 0 0)
(0 0 0)
(0 0 0)
(0 0 0)
(0 0 0)
(0 0 0)
(0 0 0)
(0 0 0)
(0 0 0)
(0 0 0)
(0 0 0)
(0 0 0)
(0 0 0)
(0 0 0)
(0 0 0)
(0 0 0)
(0 0 0)
(0 0 0)
(0 0 0)
(0 0 0)
(0 0 0)
(0 0 0)
(0 0 0)
(0 0 0)
(0 0 0)
(0 0 0)
(0 0 0)
(0 0 0)
(0 0 0)
(0 0 0)
(0 0 0)
(0 0 0)
(0 0 0)
(0 0 0)
(0 0 0)
(0 0 0)
(0 0 0)
(0 0 0)
(0 0 0)
(0 0 0)
(0 0 0)
(0 0 0)
(0 0 0)
(0 0 0)
(0 0 0)
(0 0 0)
(0 0 0)
(0 0 0)
(0 0 0)
(0 0 0)
(0 0 0)
(0 0 0)
(0 0 0)
(0 0 0)
(0 0 0)
(0 0 0)
(0 0 0)
(0 0 0)
(0 0 0)
(0 0 0)
(0 0 0)
(0 0 0)
(0 0 0)
(0 0 0)
(0 0 0)
(0 0 0)
(0 0 0)
(0 0 0)
(0 0 0)
(0 0 0)
(0 0 0)
(0 0 0)
(0 0 0)
(0 0 0)
(0 0 0)
(0 0 0)
(0 0 0)
(0 0 0)
(0 0 0)
(0 0 0)
(0 0 0)
(0 0 0)
(0 0 0)
(0 0 0)
(0 0 0)
(0 0 0)
(0 0 0)
(0 0 0)
(0 0 0)
(0 0 0)
(0 0 0)
(0 0 0)
(0 0 0)
(0 0 0)
(0 0 0)
(0 0 0)
(0 0 0)
(0 0 0)
(0 0 0)
(0 0 0)
(0 0 0)
(0 0 0)
(0 0 0)
(0 0 0)
(0 0 0)
(0 0 0)
(0 0 0)
(0 0 0)
(0 0 0)
(0 0 0)
(0 0 0)
(0 0 0)
(0 0 0)
(0 0 0)
(0 0 0)
(0 0 0)
(0 0 0)
(0 0 0)
(0 0 0)
(0 0 0)
(0 0 0)
(0 0 0)
(0 0 0)
(0 0 0)
(0 0 0)
(0 0 0)
(0 0 0)
(0 0 0)
(0 0 0)
(0 0 0)
(0 0 0)
(0 0 0)
(0 0 0)
(0 0 0)
(0 0 0)
(0 0 0)
(0 0 0)
(0 0 0)
(0 0 0)
(0 0 0)
(0 0 0)
(0 0 0)
(0 0 0)
(0 0 0)
(0 0 0)
(0 0 0)
(0 0 0)
(0 0 0)
(0 0 0)
(0 0 0)
(0 0 0)
(0 0 0)
(0 0 0)
(0 0 0)
(0 0 0)
(0 0 0)
(0 0 0)
(0 0 0)
(0 0 0)
(0 0 0)
(0 0 0)
(0 0 0)
(0 0 0)
(0 0 0)
(0 0 0)
(0 0 0)
(0 0 0)
(0 0 0)
(0 0 0)
(0 0 0)
(0 0 0)
(0 0 0)
(0 0 0)
(0 0 0)
(0 0 0)
(0 0 0)
(0 0 0)
(0 0 0)
(0 0 0)
(0 0 0)
(0 0 0)
(0 0 0)
(0 0 0)
(0 0 0)
(0 0 0)
(0 0 0)
(0 0 0)
(0 0 0)
(0 0 0)
(0 0 0)
(0 0 0)
(0 0 0)
(0 0 0)
(0 0 0)
(0 0 0)
(0 0 0)
(0 0 0)
(0 0 0)
(0 0 0)
(0 0 0)
(0 0 0)
(0 0 0)
(0 0 0)
(0 0 0)
(0 0 0)
(0 0 0)
(0 0 0)
(0 0 0)
(0 0 0)
(0 0 0)
(0 0 0)
(0 0 0)
(0 0 0)
(0 0 0)
(0 0 0)
(0 0 0)
(0 0 0)
(0 0 0)
(0 0 0)
(0 0 0)
(0 0 0)
(0 0 0)
(0 0 0)
(0 0 0)
(0 0 0)
(0 0 0)
(0 0 0)
(0 0 0)
(0 0 0)
(0 0 0)
(0 0 0)
(0 0 0)
(0 0 0)
(0 0 0)
(0 0 0)
(0 0 0)
(0 0 0)
(0 0 0)
(0 0 0)
(0 0 0)
(0 0 0)
(0 0 0)
(0 0 0)
(0 0 0)
(0 0 0)
(0 0 0)
(0 0 0)
(0 0 0)
(0 0 0)
(0 0 0)
(0 0 0)
(0 0 0)
(0 0 0)
(0 0 0)
(0 0 0)
(0 0 0)
(0 0 0)
(0 0 0)
(0 0 0)
(0 0 0)
(0 0 0)
(0 0 0)
(0 0 0)
(0 0 0)
(0 0 0)
(0 0 0)
(0 0 0)
(0 0 0)
(0 0 0)
(0 0 0)
(0 0 0)
(0 0 0)
(0 0 0)
(0 0 0)
(0 0 0)
(0 0 0)
(0 0 0)
(0 0 0)
(0 0 0)
(0 0 0)
(0 0 0)
(0 0 0)
(0 0 0)
(0 0 0)
(0 0 0)
(0 0 0)
(0 0 0)
(0 0 0)
(0 0 0)
(0 0 0)
(0 0 0)
(0 0 0)
(0 0 0)
(0 0 0)
(0 0 0)
(0 0 0)
(0 0 0)
(0 0 0)
(0 0 0)
(0 0 0)
(0 0 0)
(0 0 0)
(0 0 0)
(0 0 0)
(0 0 0)
(0 0 0)
(0 0 0)
(0 0 0)
(0 0 0)
(0 0 0)
(0 0 0)
(0 0 0)
(0 0 0)
(0 0 0)
(0 0 0)
(0 0 0)
(0 0 0)
(0 0 0)
(0 0 0)
(0 0 0)
(0 0 0)
(0 0 0)
(0 0 0)
(0 0 0)
(0 0 0)
(0 0 0)
(0 0 0)
(0 0 0)
(0 0 0)
(0 0 0)
(0 0 0)
(0 0 0)
(0 0 0)
(0 0 0)
(0 0 0)
(0 0 0)
(0 0 0)
(0 0 0)
(0 0 0)
(0 0 0)
(0 0 0)
(0 0 0)
(0 0 0)
(0 0 0)
(0 0 0)
(0 0 0)
(0 0 0)
(0 0 0)
(0 0 0)
(0 0 0)
(0 0 0)
(0 0 0)
(0 0 0)
(0 0 0)
(0 0 0)
(0 0 0)
(0 0 0)
(0 0 0)
(0 0 0)
(0 0 0)
(0 0 0)
(0 0 0)
(0 0 0)
(0 0 0)
(0 0 0)
(0 0 0)
(0 0 0)
(0 0 0)
(0 0 0)
(0 0 0)
(0 0 0)
(0 0 0)
(0 0 0)
(0 0 0)
(0 0 0)
(0 0 0)
(0 0 0)
(0 0 0)
(0 0 0)
(0 0 0)
(0 0 0)
(0 0 0)
(0 0 0)
(0 0 0)
(0 0 0)
(0 0 0)
(0 0 0)
(0 0 0)
(0 0 0)
(0 0 0)
(0 0 0)
(0 0 0)
(0 0 0)
(0 0 0)
(0 0 0)
(0 0 0)
(0 0 0)
(0 0 0)
(0 0 0)
(0 0 0)
(0 0 0)
(0 0 0)
(0 0 0)
(0 0 0)
(0 0 0)
(0 0 0)
(0 0 0)
(0 0 0)
(0 0 0)
(0 0 0)
(0 0 0)
(0 0 0)
(0 0 0)
(0 0 0)
(0 0 0)
(0 0 0)
(0 0 0)
(0 0 0)
(0 0 0)
(0 0 0)
(0 0 0)
(0 0 0)
(0 0 0)
(0 0 0)
(0 0 0)
(0 0 0)
(0 0 0)
(0 0 0)
(0 0 0)
(0 0 0)
(0 0 0)
(0 0 0)
(0 0 0)
(0 0 0)
(0 0 0)
(0 0 0)
(0 0 0)
(0 0 0)
(0 0 0)
(0 0 0)
(0 0 0)
(0 0 0)
(0 0 0)
(0 0 0)
(0 0 0)
(0 0 0)
(0 0 0)
(0 0 0)
(0 0 0)
(0 0 0)
(0 0 0)
(0 0 0)
(0 0 0)
(0 0 0)
(0 0 0)
(0 0 0)
(0 0 0)
(0 0 0)
(0 0 0)
(0 0 0)
(0 0 0)
(0 0 0)
(0 0 0)
(0 0 0)
(0 0 0)
(0 0 0)
(0 0 0)
(0 0 0)
(0 0 0)
(0 0 0)
(0 0 0)
(0 0 0)
(0 0 0)
(0 0 0)
(0 0 0)
(0 0 0)
(0 0 0)
(0 0 0)
(0 0 0)
(0 0 0)
(0 0 0)
(0 0 0)
(0 0 0)
(0 0 0)
(0 0 0)
(0 0 0)
(0 0 0)
(0 0 0)
(0 0 0)
(0 0 0)
(0 0 0)
(0 0 0)
(0 0 0)
(0 0 0)
(0 0 0)
(0 0 0)
(0 0 0)
(0 0 0)
(0 0 0)
(0 0 0)
(0 0 0)
(0 0 0)
(0 0 0)
(0 0 0)
(0 0 0)
(0 0 0)
(0 0 0)
(0 0 0)
(0 0 0)
(0 0 0)
(0 0 0)
(0 0 0)
(0 0 0)
(0 0 0)
(0 0 0)
(0 0 0)
(0 0 0)
(0 0 0)
(0 0 0)
(0 0 0)
(0 0 0)
(0 0 0)
(0 0 0)
(0 0 0)
(0 0 0)
(0 0 0)
(0 0 0)
(0 0 0)
(0 0 0)
(0 0 0)
(0 0 0)
(0 0 0)
(0 0 0)
(0 0 0)
(0 0 0)
(0 0 0)
(0 0 0)
(0 0 0)
(0 0 0)
(0 0 0)
(0 0 0)
(0 0 0)
(0 0 0)
(0 0 0)
(0 0 0)
(0 0 0)
(0 0 0)
(0 0 0)
(0 0 0)
(0 0 0)
(0 0 0)
(0 0 0)
(0 0 0)
(0 0 0)
(0 0 0)
(0 0 0)
(0 0 0)
(0 0 0)
(0 0 0)
(0 0 0)
(0 0 0)
(0 0 0)
(0 0 0)
(0 0 0)
(0 0 0)
(0 0 0)
(0 0 0)
(0 0 0)
(0 0 0)
(0 0 0)
(0 0 0)
(0 0 0)
(0 0 0)
(0 0 0)
(0 0 0)
(0 0 0)
(0 0 0)
(0 0 0)
(0 0 0)
(0 0 0)
(0 0 0)
(0 0 0)
(0 0 0)
(0 0 0)
(0 0 0)
(0 0 0)
(0 0 0)
(0 0 0)
(0 0 0)
(0 0 0)
(0 0 0)
(0 0 0)
(0 0 0)
(0 0 0)
(0 0 0)
(0 0 0)
(0 0 0)
(0 0 0)
(0 0 0)
(0 0 0)
(0 0 0)
(0 0 0)
(0 0 0)
(0 0 0)
(0 0 0)
(0 0 0)
(0 0 0)
(0 0 0)
(0 0 0)
(0 0 0)
(0 0 0)
(0 0 0)
(0 0 0)
(0 0 0)
(0 0 0)
(0 0 0)
(0 0 0)
(0 0 0)
(0 0 0)
(0 0 0)
(0 0 0)
(0 0 0)
(0 0 0)
(0 0 0)
(0 0 0)
(0 0 0)
(0 0 0)
(0 0 0)
(0 0 0)
(0 0 0)
(0 0 0)
(0 0 0)
(0 0 0)
(0 0 0)
(0 0 0)
(0 0 0)
(0 0 0)
(0 0 0)
(0 0 0)
(0 0 0)
(0 0 0)
(0 0 0)
(0 0 0)
(0 0 0)
(0 0 0)
(0 0 0)
(0 0 0)
(0 0 0)
(0 0 0)
(0 0 0)
(0 0 0)
(0 0 0)
(0 0 0)
(0 0 0)
(0 0 0)
(0 0 0)
(0 0 0)
(0 0 0)
(0 0 0)
(0 0 0)
(0 0 0)
(0 0 0)
(0 0 0)
(0 0 0)
(0 0 0)
(0 0 0)
(0 0 0)
(0 0 0)
(0 0 0)
(0 0 0)
(0 0 0)
(0 0 0)
(0 0 0)
(0 0 0)
(0 0 0)
(0 0 0)
(0 0 0)
(0 0 0)
(0 0 0)
(0 0 0)
(0 0 0)
(0 0 0)
(0 0 0)
(0 0 0)
(0 0 0)
(0 0 0)
(0 0 0)
(0 0 0)
(0 0 0)
(0 0 0)
(0 0 0)
(0 0 0)
(0 0 0)
(0 0 0)
(0 0 0)
(0 0 0)
(0 0 0)
(0 0 0)
(0 0 0)
(0 0 0)
(0 0 0)
(0 0 0)
(0 0 0)
(0 0 0)
(0 0 0)
(0 0 0)
(0 0 0)
(0 0 0)
(0 0 0)
(0 0 0)
(0 0 0)
(0 0 0)
(0 0 0)
(0 0 0)
(0 0 0)
(0 0 0)
(0 0 0)
(0 0 0)
(0 0 0)
(0 0 0)
(0 0 0)
(0 0 0)
(0 0 0)
(0 0 0)
(0 0 0)
(0 0 0)
(0 0 0)
(0 0 0)
(0 0 0)
(0 0 0)
(0 0 0)
(0 0 0)
(0 0 0)
(0 0 0)
(0 0 0)
(0 0 0)
(0 0 0)
(0 0 0)
(0 0 0)
(0 0 0)
(0 0 0)
(0 0 0)
(0 0 0)
(0 0 0)
(0 0 0)
(0 0 0)
(0 0 0)
(0 0 0)
(0 0 0)
(0 0 0)
(0 0 0)
(0 0 0)
(0 0 0)
(0 0 0)
(0 0 0)
(0 0 0)
(0 0 0)
(0 0 0)
(0 0 0)
(0 0 0)
(0 0 0)
(0 0 0)
(0 0 0)
(0 0 0)
(0 0 0)
(0 0 0)
(0 0 0)
(0 0 0)
(0 0 0)
(0 0 0)
(0 0 0)
(0 0 0)
(0 0 0)
(0 0 0)
(0 0 0)
(0 0 0)
(0 0 0)
(0 0 0)
(0 0 0)
(0 0 0)
(0 0 0)
(0 0 0)
(0 0 0)
(0 0 0)
(0 0 0)
(0 0 0)
(0 0 0)
(0 0 0)
(0 0 0)
(0 0 0)
(0 0 0)
(0 0 0)
(0 0 0)
(0 0 0)
(0 0 0)
(0 0 0)
(0 0 0)
(0 0 0)
(0 0 0)
(0 0 0)
(0 0 0)
(0 0 0)
(0 0 0)
(0 0 0)
(0 0 0)
(0 0 0)
(0 0 0)
(0 0 0)
(0 0 0)
(0 0 0)
(0 0 0)
(0 0 0)
(0 0 0)
(0 0 0)
(0 0 0)
(0 0 0)
(0 0 0)
(0 0 0)
(0 0 0)
(0 0 0)
(0 0 0)
(0 0 0)
(0 0 0)
(0 0 0)
(0 0 0)
(0 0 0)
(0 0 0)
(0 0 0)
(0 0 0)
(0 0 0)
(0 0 0)
(0 0 0)
(0 0 0)
(0 0 0)
(0 0 0)
(0 0 0)
(0 0 0)
(0 0 0)
(0 0 0)
(0 0 0)
(0 0 0)
(0 0 0)
(0 0 0)
(0 0 0)
(0 0 0)
(0 0 0)
(0 0 0)
(0 0 0)
(0 0 0)
(0 0 0)
(0 0 0)
(0 0 0)
(0 0 0)
(0 0 0)
(0 0 0)
(0 0 0)
(0 0 0)
(0 0 0)
(0 0 0)
(0 0 0)
(0 0 0)
(0 0 0)
(0 0 0)
(0 0 0)
(0 0 0)
(0 0 0)
(0 0 0)
(0 0 0)
(0 0 0)
(0 0 0)
(0 0 0)
(0 0 0)
(0 0 0)
(0 0 0)
(0 0 0)
(0 0 0)
(0 0 0)
(0 0 0)
(0 0 0)
(0 0 0)
(0 0 0)
(0 0 0)
(0 0 0)
(0 0 0)
(0 0 0)
(0 0 0)
(0 0 0)
(0 0 0)
(0 0 0)
(0 0 0)
(0 0 0)
(0 0 0)
(0 0 0)
(0 0 0)
(0 0 0)
(0 0 0)
(0 0 0)
(0 0 0)
(0 0 0)
(0 0 0)
(0 0 0)
(0 0 0)
(0 0 0)
(0 0 0)
(0 0 0)
(0 0 0)
(0 0 0)
(0 0 0)
(0 0 0)
(0 0 0)
(0 0 0)
(0 0 0)
(0 0 0)
(0 0 0)
(0 0 0)
(0 0 0)
(0 0 0)
(0 0 0)
(0 0 0)
(0 0 0)
(0 0 0)
(0 0 0)
(0 0 0)
(0 0 0)
(0 0 0)
(0 0 0)
(0 0 0)
(0 0 0)
(0 0 0)
(0 0 0)
(0 0 0)
(0 0 0)
(0 0 0)
(0 0 0)
(0 0 0)
(0 0 0)
(0 0 0)
(0 0 0)
(0 0 0)
(0 0 0)
(0 0 0)
(0 0 0)
(0 0 0)
(0 0 0)
(0 0 0)
(0 0 0)
(0 0 0)
(0 0 0)
(0 0 0)
(0 0 0)
(0 0 0)
(0 0 0)
(0 0 0)
(0 0 0)
(0 0 0)
(0 0 0)
(0 0 0)
(0 0 0)
(0 0 0)
(0 0 0)
(0 0 0)
(0 0 0)
(0 0 0)
(0 0 0)
(0 0 0)
(0 0 0)
(0 0 0)
(0 0 0)
(0 0 0)
(0 0 0)
(0 0 0)
(0 0 0)
(0 0 0)
(0 0 0)
(0 0 0)
(0 0 0)
(0 0 0)
(0 0 0)
(0 0 0)
(0 0 0)
(0 0 0)
(0 0 0)
(0 0 0)
(0 0 0)
(0 0 0)
(0 0 0)
(0 0 0)
(0 0 0)
(0 0 0)
(0 0 0)
(0 0 0)
(0 0 0)
(0 0 0)
(0 0 0)
(0 0 0)
(0 0 0)
(0 0 0)
(0 0 0)
(0 0 0)
(0 0 0)
(0 0 0)
(0 0 0)
(0 0 0)
(0 0 0)
(0 0 0)
(0 0 0)
(0 0 0)
(0 0 0)
(0 0 0)
(0 0 0)
(0 0 0)
(0 0 0)
(0 0 0)
(0 0 0)
(0 0 0)
(0 0 0)
(0 0 0)
(0 0 0)
(0 0 0)
(0 0 0)
(0 0 0)
(0 0 0)
(0 0 0)
(0 0 0)
(0 0 0)
(0 0 0)
(0 0 0)
(0 0 0)
(0 0 0)
(0 0 0)
(0 0 0)
(0 0 0)
(0 0 0)
(0 0 0)
(0 0 0)
(0 0 0)
(0 0 0)
(0 0 0)
(0 0 0)
(0 0 0)
(0 0 0)
(0 0 0)
(0 0 0)
(0 0 0)
(0 0 0)
(0 0 0)
(0 0 0)
(0 0 0)
(0 0 0)
(0 0 0)
(0 0 0)
(0 0 0)
(0 0 0)
(0 0 0)
(0 0 0)
(0 0 0)
(0 0 0)
(0 0 0)
(0 0 0)
(0 0 0)
(0 0 0)
(0 0 0)
(0 0 0)
(0 0 0)
(0 0 0)
(0 0 0)
(0 0 0)
(0 0 0)
(0 0 0)
(0 0 0)
(0 0 0)
(0 0 0)
(0 0 0)
(0 0 0)
(0 0 0)
(0 0 0)
(0 0 0)
(0 0 0)
(0 0 0)
(0 0 0)
(0 0 0)
(0 0 0)
(0 0 0)
(0 0 0)
(0 0 0)
(0 0 0)
(0 0 0)
(0 0 0)
(0 0 0)
(0 0 0)
(0 0 0)
(0 0 0)
(0 0 0)
(0 0 0)
(0 0 0)
(0 0 0)
(0 0 0)
(0 0 0)
(0 0 0)
(0 0 0)
(0 0 0)
(0 0 0)
(0 0 0)
(0 0 0)
(0 0 0)
(0 0 0)
(0 0 0)
(0 0 0)
(0 0 0)
(0 0 0)
(0 0 0)
(0 0 0)
(0 0 0)
(0 0 0)
(0 0 0)
(0 0 0)
(0 0 0)
(0 0 0)
(0 0 0)
(0 0 0)
(0 0 0)
(0 0 0)
(0 0 0)
(0 0 0)
(0 0 0)
(0 0 0)
(0 0 0)
(0 0 0)
(0 0 0)
(0 0 0)
(0 0 0)
(0 0 0)
(0 0 0)
(0 0 0)
(0 0 0)
(0 0 0)
(0 0 0)
(0 0 0)
(0 0 0)
(0 0 0)
(0 0 0)
(0 0 0)
(0 0 0)
(0 0 0)
(0 0 0)
(0 0 0)
(0 0 0)
(0 0 0)
(0 0 0)
(0 0 0)
(0 0 0)
(0 0 0)
(0 0 0)
(0 0 0)
(0 0 0)
(0 0 0)
(0 0 0)
(0 0 0)
(0 0 0)
(0 0 0)
(0 0 0)
(0 0 0)
(0 0 0)
(0 0 0)
(0 0 0)
(0 0 0)
(0 0 0)
(0 0 0)
(0 0 0)
(0 0 0)
(0 0 0)
(0 0 0)
(0 0 0)
(0 0 0)
(0 0 0)
(0 0 0)
(0 0 0)
(0 0 0)
(0 0 0)
(0 0 0)
(0 0 0)
(0 0 0)
(0 0 0)
(0 0 0)
(0 0 0)
(0 0 0)
(0 0 0)
(0 0 0)
(0 0 0)
(0 0 0)
(0 0 0)
(0 0 0)
(0 0 0)
(0 0 0)
(0 0 0)
(0 0 0)
(0 0 0)
(0 0 0)
(0 0 0)
(0 0 0)
(0 0 0)
(0 0 0)
(0 0 0)
(0 0 0)
(0 0 0)
(0 0 0)
(0 0 0)
(0 0 0)
(0 0 0)
(0 0 0)
(0 0 0)
(0 0 0)
(0 0 0)
(0 0 0)
(0 0 0)
(0 0 0)
(0 0 0)
(0 0 0)
(0 0 0)
(0 0 0)
(0 0 0)
(0 0 0)
(0 0 0)
(0 0 0)
(0 0 0)
(0 0 0)
(0 0 0)
(0 0 0)
(0 0 0)
(0 0 0)
(0 0 0)
(0 0 0)
(0 0 0)
(0 0 0)
(0 0 0)
(0 0 0)
(0 0 0)
(0 0 0)
(0 0 0)
(0 0 0)
(0 0 0)
(0 0 0)
(0 0 0)
(0 0 0)
(0 0 0)
(0 0 0)
(0 0 0)
(0 0 0)
(0 0 0)
(0 0 0)
(0 0 0)
(0 0 0)
(0 0 0)
(0 0 0)
(0 0 0)
(0 0 0)
(0 0 0)
(0 0 0)
(0 0 0)
(0 0 0)
(0 0 0)
(0 0 0)
(0 0 0)
(0 0 0)
(0 0 0)
(0 0 0)
(0 0 0)
(0 0 0)
(0 0 0)
(0 0 0)
(0 0 0)
(0 0 0)
(0 0 0)
(0 0 0)
(0 0 0)
(0 0 0)
(0 0 0)
(0 0 0)
(0 0 0)
(0 0 0)
(0 0 0)
(0 0 0)
(0 0 0)
(0 0 0)
(0 0 0)
(0 0 0)
(0 0 0)
(0 0 0)
(0 0 0)
(0 0 0)
(0 0 0)
(0 0 0)
(0 0 0)
(0 0 0)
(0 0 0)
(0 0 0)
(0 0 0)
(0 0 0)
(0 0 0)
(0 0 0)
(0 0 0)
(0 0 0)
(0 0 0)
(0 0 0)
(0 0 0)
(0 0 0)
(0 0 0)
(0 0 0)
(0 0 0)
(0 0 0)
(0 0 0)
(0 0 0)
(0 0 0)
(0 0 0)
(0 0 0)
(0 0 0)
(0 0 0)
(0 0 0)
(0 0 0)
(0 0 0)
(0 0 0)
(-0.122387 0.0803654 -0.0209249)
(-0.0819212 0.0363622 -0.0184368)
(-0.195281 0.0993461 -0.0390249)
(-0.1967 0.0820162 -0.0363062)
(-0.0520901 0.0269519 -0.0134561)
(-0.181797 0.0563608 -0.0409285)
(-0.115368 0.0152863 -0.0207842)
(-0.0613951 -0.00440785 -0.0296705)
(-0.0160913 0.0602009 -0.00749168)
(-0.0854016 0.0904004 -0.00966589)
(-0.19777 0.152797 -0.0281023)
(-0.0532025 0.149021 -0.0154459)
(-0.128739 0.242373 -0.0202109)
(-0.280138 0.181205 -0.0405716)
(-0.28684 0.171707 -0.0249052)
(-0.302962 0.277202 0.000520569)
(-0.334116 0.299851 0.0169906)
(-0.260667 0.150381 -0.0146704)
(-0.162247 0.102345 -0.0482652)
(-0.316215 0.259365 -0.00661363)
(-0.186024 0.217477 -0.0335094)
(-0.0612958 0.0712192 -0.0695278)
(0.0217869 0.0787225 -0.0580805)
(-0.0887297 0.192582 -0.0477866)
(0.0526959 0.1742 -0.0523652)
(0.0846399 0.172368 -0.0301651)
(0.0217588 0.0720485 -0.0116298)
(0.023437 0.0778186 -0.0216418)
(0.0578718 0.147456 -0.00729199)
(0.0232695 0.189297 -0.021725)
(0.023508 0.271278 -0.0149638)
(0.1155 0.24034 -0.0111308)
(0.095429 0.281439 -0.00749765)
(0.00675804 0.296714 -0.0035852)
(-0.394567 0.379799 0.0185938)
(-0.0709322 0.176159 0.00755161)
(-0.259766 0.265978 0.0118529)
(-0.336596 0.360464 -0.00626746)
(-0.20728 0.336807 -0.0275339)
(-0.331096 0.430062 0.00822233)
(-0.218902 0.437645 -0.0197915)
(-0.12499 0.331271 -0.0456715)
(0.0500249 0.306503 -0.0480337)
(-0.140735 0.435087 -0.0415047)
(0.0416765 0.408536 -0.0264447)
(0.0865985 0.247244 -0.0114806)
(0.0513565 0.276995 0.0146579)
(0.0113031 0.0948191 0.0116121)
(0.0152133 0.0577294 -0.00015059)
(0.0344617 0.0820664 0.0143809)
(-0.00578484 0.000876874 0.00632321)
(0.0683608 0.110969 0.0312783)
(0.0352761 0.169576 0.0387121)
(-0.00269038 -0.017613 0.0258444)
(0.0146653 0.00840197 0.0417927)
(-0.033277 0.126509 0.0375607)
(-0.0430009 0.0715549 0.0231283)
(-0.0091212 0.0228736 0.0432049)
(-0.0417001 0.0334806 0.0462317)
(-0.223059 0.323324 0.0141539)
(-0.218482 0.500643 -0.0189917)
(-0.110767 0.124978 0.0220441)
(-0.122213 0.312101 0.0104457)
(-0.139214 0.509596 -0.0374789)
(-0.0124137 0.38527 0.0140252)
(-0.110236 0.206122 0.0147406)
(-0.0549194 0.182605 0.0195516)
(-0.0060588 0.185016 0.0179616)
(-0.00494032 0.0804265 0.001498)
(-0.0197251 0.131205 0.00205375)
(-0.00702755 -0.0343051 0.0158506)
(-0.0400725 -0.108109 0.0388708)
(-0.0342197 -0.224374 0.0252808)
(-0.0882733 -0.12109 0.0018345)
(-0.0701392 -0.186724 -0.0257081)
(0.0281084 -0.21922 0.00348807)
(-0.0267455 -0.0377693 0.0281145)
(0.0756415 -0.218244 -0.0232008)
(0.0852907 -0.107694 0.00929539)
(-0.0760401 0.0417835 0.0217801)
(-0.0735872 0.100584 0.0142995)
(0.000706046 0.00362201 0.0146962)
(-0.0261769 0.0316519 0.000818809)
(-0.0952138 0.112535 0.00141556)
(-0.0877644 0.0435077 -0.0181216)
(-0.0440742 0.02009 0.000546066)
(-0.0583672 0.0271652 -0.0168733)
(-0.0332393 0.0140368 -0.00878962)
(-0.0431849 -0.0869351 -0.0487612)
(0.0454058 -0.102404 -0.0614219)
(0.101672 -0.0810095 -0.0146101)
(0.0107158 -0.0121469 -0.0275145)
(0.0274217 0.00384152 0.00686737)
(0.00114019 0.021309 0.00437158)
(0.0024264 0.00142049 0.000391196)
(-0.031347 0.0133158 -0.00301522)
(-0.210855 0.112806 0.0492822)
(-0.121677 0.0916268 0.0944412)
(-0.193961 0.0151106 0.0737683)
(-0.260674 0.119942 0.0956951)
(-0.231729 0.0780337 0.0764609)
(-0.151405 0.0275036 0.13762)
(-0.180467 0.105703 0.158682)
(-0.192054 0.0782984 0.156794)
(-0.169857 0.0476225 0.0585587)
(-0.121212 0.000285043 -0.00954039)
(-0.136931 0.00745843 0.129645)
(-0.15707 0.0358244 0.109601)
(-0.141492 -0.0109048 -0.0136412)
(-0.0712588 -0.0198891 -0.0997414)
(-0.111414 -0.0315757 -0.184408)
(-0.087648 0.17755 -0.00496492)
(-0.0189592 0.101376 -0.0356689)
(-0.237184 0.173224 0.0650181)
(-0.106656 0.203417 0.0131001)
(-0.242503 0.277258 0.093165)
(-0.0756576 0.089765 0.02861)
(-0.144689 0.162434 0.130504)
(-0.0565831 0.159152 0.0192206)
(-0.142194 0.250462 0.184261)
(-0.000914917 0.0516576 -0.158676)
(-0.11452 0.160036 -0.097984)
(-0.00463673 0.145752 -0.10721)
(-0.144636 0.037327 -0.253494)
(-0.0567433 0.0172794 -0.280387)
(-0.170144 0.0958507 -0.139546)
(-0.101246 0.0782499 -0.166448)
(0.0673487 0.16134 -0.0488097)
(-0.0136037 0.0312007 -0.0783009)
(-0.0450007 0.233307 -0.00516646)
(-0.00855077 0.164035 -0.102314)
(0.0325464 0.252099 -0.0474551)
(0.0097163 0.154538 -0.0440821)
(0.00179051 0.0662257 -0.137988)
(0.0417384 0.15211 -0.0760944)
(0.078572 0.341807 0.0308164)
(0.0414929 0.280681 0.0846855)
(-0.0319266 0.0816585 0.0301753)
(0.0196416 0.272581 0.0906407)
(0.0337239 0.281575 0.111341)
(0.0633235 0.227331 -0.00495831)
(0.0176941 0.0516974 0.0779933)
(0.0131285 0.017224 -0.223014)
(0.0716896 0.0920493 -0.0813597)
(0.0222782 0.0790302 0.0357497)
(0.0151266 0.216567 0.106809)
(0.00226328 0.24823 0.0804322)
(-0.0227007 0.266094 0.0762909)
(-0.0201555 0.20767 0.0569415)
(-0.0754458 0.211148 0.0363292)
(-0.00429002 -0.029271 0.0172514)
(0.00511878 0.0734337 -0.0192717)
(-0.0937062 -0.193805 0.0404573)
(-0.0714638 -0.112176 -0.00651494)
(-0.0696007 -0.104143 -0.0580518)
(-0.0437274 -0.0640854 0.0598136)
(-0.130482 -0.0624188 0.0657091)
(-0.0234767 -0.0131329 -0.0480175)
(-0.0359422 -0.0108101 -0.0875395)
(-0.139737 0.158247 -0.0249863)
(-0.172033 0.0676709 0.0345734)
(-0.126174 0.0993419 -0.0538613)
(-0.21934 0.217831 0.119652)
(-0.151125 0.195647 0.0163449)
(-0.139629 0.0592608 0.0490122)
(-0.0992894 0.0887023 -0.0166351)
(-0.110971 0.184247 -0.0252982)
(-0.0301732 -0.0623173 -0.113214)
(0.0277293 -0.000420474 -0.144168)
(-0.00902272 -0.057773 -0.111613)
(-0.0727472 -0.0249045 -0.171986)
(-0.00137896 -0.017955 -0.22202)
(-0.0848426 -0.00714414 -0.125953)
(-0.103652 -0.0202692 -0.187816)
(-0.0623911 -0.0216471 0.0422144)
(-0.0416131 0.0435444 0.127992)
(-0.0704501 0.0840739 0.130647)
(-0.0199689 0.000383404 0.0121666)
(-0.115012 0.0691437 0.161116)
(-0.00891649 0.00698072 -0.0556548)
(-0.0130818 0.0311132 0.0799192)
(0.0439392 -0.00952728 0.0514936)
(-0.0840882 0.0304439 0.129504)
(-0.0752729 0.074017 0.169775)
(-0.124231 0.0859768 0.173032)
(-0.0432813 0.0113869 0.0760171)
(-0.029222 0.0326162 0.169575)
(-0.0844165 0.0586657 0.157863)
(-0.115143 0.0588633 0.107384)
(-0.126653 -0.00200263 -0.0228627)
(-0.0392718 0.00320172 0.0612297)
(-0.0726546 0.0272706 0.0839831)
(-0.0313121 -0.0331619 -0.0117747)
(-0.13909 -0.042261 -0.279923)
(-0.093431 -0.0601175 -0.586348)
(0.0204272 0.0261834 -0.053792)
(0.0189396 -0.0117302 -0.0724752)
(-0.0261935 0.0923697 0.164798)
(0.00700145 0.0665521 0.0234629)
(-0.0720549 0.199789 0.247685)
(0.0393966 -0.0250648 -0.0301862)
(0.0423963 0.0130084 0.183009)
(0.0439018 -0.0227597 0.00479809)
(-0.0254196 0.105896 0.315659)
(-0.0919828 -0.0238892 -0.418111)
(-0.174832 -0.00154496 -0.148197)
(-0.152125 -0.00574721 -0.223796)
(-0.0817841 -0.09552 -0.611448)
(-0.0867318 -0.0584026 -0.591629)
(-0.0332045 -0.243857 -0.169749)
(-0.126399 -0.128244 -0.306356)
(-0.0737502 -0.0606439 -0.141022)
(-0.0895697 -0.12711 -0.224251)
(0.0321058 0.0366264 -0.0713205)
(0.0176479 -0.0207944 -0.167646)
(0.042833 0.0176269 -0.0976763)
(0.0203591 -0.0211645 -0.0867364)
(0.010942 -0.045179 -0.131267)
(0.0217602 -0.0519464 -0.093893)
(-0.127769 0.046749 -0.014569)
(-0.0123861 0.0623923 0.00177706)
(-0.0795492 -0.113893 -0.127123)
(-0.108439 -0.035362 -0.122234)
(-0.0254998 -0.0179375 -0.0927353)
(0.0931583 0.00338975 -0.0548975)
(0.0468773 0.0811066 -0.00278405)
(-0.00672069 -0.0536953 -0.137376)
(0.052094 -0.0721192 -0.0228266)
(0.056586 0.080779 0.00874585)
(-0.0288811 0.0912203 0.00825768)
(-0.0844938 0.172841 0.0255932)
(-0.0858977 0.0621948 -0.0566591)
(-0.0218765 0.0198511 -0.0786029)
(-0.0503526 0.0982066 -0.0195021)
(0.0362524 0.0941802 -0.0624424)
(0.0459763 0.0780462 -0.0498765)
(-0.099121 -0.00113644 0.0742175)
(0.0263505 0.050572 -0.0659539)
(-0.0131066 0.0247357 -0.0747905)
(0.0580367 0.0789063 0.0449053)
(-0.0759068 0.00633932 0.140205)
(0.0759286 0.0838261 -0.0311502)
(0.00335802 0.0472375 -0.0215376)
(-0.132128 0.139107 0.0587541)
(-0.103649 0.0638487 0.109942)
(-0.0764949 0.0602375 0.0282985)
(-0.167187 0.208394 0.219702)
(-0.0779567 0.090718 0.0792122)
(-0.0493106 0.0505371 0.166312)
(-0.028383 0.0162715 0.0434951)
(-0.0449601 0.0761873 0.000137512)
(0.0386493 0.0214231 -0.136015)
(0.0401784 0.0319925 -0.0951431)
(-0.0380589 -0.00253649 -0.0810504)
(-0.106447 0.00443428 -0.0712746)
(0.0235511 0.0275474 -0.101374)
(0.00364852 0.00846494 -0.0440642)
(-0.0540474 -0.0025039 -0.0315292)
(0.0206501 0.0153794 0.073567)
(-0.0884095 0.0392244 0.170749)
(0.00403392 0.0978428 0.220158)
(0.0293795 0.035563 0.146403)
(-0.0506138 0.0246467 0.195506)
(0.0562184 -0.0284549 0.0364789)