/*--------------------------------*- C++ -*----------------------------------*\
| =========                 |                                                 |
| \\      /  F ield         | OpenFOAM: The Open Source CFD Toolbox           |
|  \\    /   O peration     | Version:  5.x                                   |
|   \\  /    A nd           | Web:      www.OpenFOAM.org                      |
|    \\/     M anipulation  |                                                 |
\*---------------------------------------------------------------------------*/
FoamFile
{
    version     2.0;
    format      ascii;
    class       volVectorField;
    location    "4.5";
    object      U;
}
// * * * * * * * * * * * * * * * * * * * * * * * * * * * * * * * * * * * * * //

dimensions      [0 1 -1 0 0 0 0];

internalField   nonuniform List<vector> 
10571
(
(0.0174889 0.194648 0.899864)
(0.128163 0.0533444 0.504813)
(0.447233 -0.0384107 1.21315)
(0.811427 -0.381961 2.19329)
(-0.121104 -1.03468 2.10535)
(0.153519 0.282083 1.30162)
(0.286763 -0.34577 1.93646)
(1.12118 -2.18549 1.828)
(0.455128 -1.76172 1.545)
(-0.308078 -1.06294 1.83721)
(0.0193901 -0.313255 2.04299)
(0.00547606 -0.276287 1.36541)
(0.0749968 -1.05031 1.59026)
(-0.136165 -1.98586 1.5107)
(0.435866 -1.85054 1.17999)
(0.00595767 -0.874161 1.21208)
(-0.0501312 -0.262047 0.789935)
(0.11426 -1.02819 1.24358)
(-0.217543 -1.97268 1.22446)
(0.0371049 -0.577572 0.489133)
(-0.00926456 -0.173471 0.475296)
(-0.00532932 -0.301582 0.958722)
(-0.0132354 -0.362394 0.823982)
(0.101086 -0.183996 0.606142)
(-0.58084 -0.459795 1.98193)
(0.119561 -0.124982 0.203045)
(0.586378 -0.813196 0.96227)
(-0.113496 -0.631037 1.03881)
(-0.502044 -1.38423 2.68678)
(0.0925737 -0.163129 0.412843)
(0.29226 -0.626862 1.7081)
(0.240171 -0.794451 1.44532)
(0.0908165 -0.445605 0.975175)
(-0.0590924 -0.714518 1.11272)
(0.187528 0.130489 3.36946)
(0.1113 0.0622793 0.84909)
(0.0271098 -0.026074 1.38395)
(0.122166 -0.0262956 0.485756)
(0.116066 0.00966166 0.347862)
(0.0683288 -0.00798005 0.358178)
(-0.00738495 0.100725 0.634598)
(0.0842934 0.0258621 0.455801)
(0.114795 -0.0147308 0.419937)
(0.0710675 -0.0784793 0.36169)
(0.0503755 -0.0323478 0.395213)
(0.00642459 -0.052793 0.588486)
(0.106441 -0.101712 0.508275)
(0.111827 -0.0731234 0.466381)
(-0.683079 0.000708663 3.70138)
(-0.0261047 0.0311824 0.080842)
(0.125075 -0.331153 0.51666)
(-0.836458 -0.654762 2.45382)
(-1.76278 -1.45542 3.11238)
(-0.000523593 -0.0301747 0.371264)
(-0.00295782 0.0345276 0.572192)
(0.0857463 0.000115301 0.585218)
(-0.0106471 0.193663 0.475522)
(-0.118554 0.0547276 0.695612)
(0.0921514 0.0674547 1.20909)
(-0.000662026 0.047052 0.917127)
(0.0146015 0.208816 0.560291)
(0.115301 0.158379 0.394912)
(0.046689 0.119476 0.372046)
(-0.0965164 0.166777 0.445483)
(0.00295528 0.023922 0.796786)
(0.0910306 0.0501104 0.517958)
(0.0662458 0.0268511 0.324062)
(0.00228862 -0.0481851 0.459303)
(0.0248947 0.0498662 0.546988)
(-0.0448445 -0.0312526 0.407854)
(0.0851733 -0.0805391 0.442554)
(0.0914088 -0.0416987 0.487012)
(-0.405472 0.0800386 4.86467)
(0.119939 -0.161153 0.13725)
(-0.199756 0.149295 0.170522)
(-0.0571065 -0.62421 2.8866)
(-1.0217 -0.621693 2.2865)
(0.0102563 -0.14693 0.406819)
(0.0619619 0.169454 0.491616)
(0.0942565 0.211785 0.452826)
(0.0656793 0.208945 0.351565)
(0.00911135 0.228844 0.494923)
(-0.00310634 0.0909432 1.35913)
(0.126836 -0.0386973 0.652075)
(0.10975 0.148908 0.87925)
(0.119239 0.179598 0.424554)
(0.0636966 0.207952 0.653751)
(-0.0277437 0.132917 0.380372)
(0.181394 0.369329 0.342445)
(0.443561 -0.328372 0.823295)
(0.0754632 -0.0416957 0.759029)
(0.0277616 -0.0295303 0.483217)
(0.0377948 0.052758 0.732775)
(0.353965 -0.0944283 0.307123)
(0.0842213 -0.0607245 0.422307)
(0.113395 -0.0508373 0.458101)
(0.0157878 0.110474 5.67488)
(0.134438 -0.111942 0.445457)
(-0.103916 0.127722 0.485583)
(0.528754 -0.359002 3.78829)
(0.335042 -0.225763 1.15674)
(0.177688 -0.24865 0.675697)
(0.169919 0.12773 0.292207)
(0.110975 0.274807 0.171388)
(0.14665 0.268739 0.393689)
(0.0684018 0.0548521 0.533136)
(0.0676938 -0.0344418 1.24873)
(0.198859 0.0240184 0.78707)
(0.351673 -0.0310987 0.35527)
(0.164659 0.109888 0.546715)
(-0.0121803 0.0564198 0.671339)
(-0.239026 0.0963416 0.118598)
(0.180682 0.324926 0.355768)
(0.484022 -0.126896 0.441063)
(0.192799 -0.219001 0.562325)
(0.013009 -0.258464 0.309615)
(-0.0123659 -0.0803309 0.43291)
(0.52082 0.185461 0.0434942)
(0.273319 0.00769747 0.00100054)
(0.218583 -0.120522 0.113254)
(-0.489752 -0.00531367 6.09871)
(0.0716402 -0.0827645 0.316925)
(0.155064 0.0590462 0.735087)
(0.0740573 0.202302 2.97697)
(0.908112 0.241542 1.67098)
(0.0559553 -0.195412 0.505531)
(0.524046 0.0576526 0.2861)
(0.205966 0.192157 0.380674)
(-0.0283689 0.223427 0.474142)
(-0.291254 0.0946788 0.431458)
(-0.000741104 -0.000585263 0.00624944)
(0.037062 -0.1697 0.63496)
(0.149551 -0.0579516 0.367589)
(0.391732 0.00617553 0.582669)
(0.178873 0.104879 0.600734)
(0.0260841 -0.0105297 0.752465)
(-0.0412109 0.129415 0.159479)
(-0.0016072 -0.000639249 -0.000521546)
(0.278312 0.324585 0.148339)
(0.500518 -0.0306362 0.506085)
(0.232957 -0.174253 0.632982)
(0.190072 -0.0453085 0.503981)
(0.0206737 -0.0921018 0.457762)
(0.420765 0.180788 0.0378053)
(0.279572 0.0810663 0.134788)
(0.224716 -0.0441533 0.139437)
(-0.456297 -0.0205361 5.34113)
(0.0339929 -0.026838 0.260531)
(0.0268341 0.116171 1.17774)
(-0.0348279 0.290786 2.50249)
(0.434013 0.334367 1.70281)
(0.210862 -0.0982553 0.297565)
(0.537439 0.067834 0.376818)
(0.235927 0.208463 0.498759)
(-0.118107 0.254408 0.633055)
(-0.0235698 0.117754 0.390246)
(-0.0367222 -0.0638427 -0.0304099)
(-0.00175901 0.038944 0.452421)
(0.185712 0.0413013 0.143468)
(0.402201 0.0412349 0.582046)
(0.187788 0.115462 0.772427)
(0.0433297 -0.0344704 0.931341)
(-0.064691 0.021794 0.231054)
(-0.129297 -0.0886377 -0.0389373)
(0.260801 0.253316 -0.0813687)
(0.465866 0.0794227 0.47944)
(0.222943 0.0215235 0.717357)
(0.176212 0.0645116 0.659341)
(0.127179 -0.040881 0.512501)
(-0.244627 -0.0105681 -0.02827)
(0.285948 0.136113 0.137641)
(0.197137 0.100009 0.243597)
(0.20445 -0.0416392 0.164735)
(-0.209207 -0.0214786 5.35758)
(-0.0354846 0.0396736 0.221339)
(0.13402 0.296582 1.12568)
(-0.103515 -0.243446 2.13127)
(0.0277768 -0.0294348 1.28891)
(0.247853 0.0299985 0.144322)
(0.467913 0.131733 0.503629)
(0.226939 0.155324 0.617289)
(-0.138328 0.216675 0.777156)
(-0.0364949 0.0620322 0.364136)
(0.0269109 -0.00499761 -0.00963045)
(0.028023 0.176778 0.226324)
(0.314587 0.149884 -0.0627086)
(0.386887 0.0929067 0.565759)
(0.181389 0.11496 0.931898)
(0.0597433 -0.0593527 1.02129)
(-0.0460383 0.00711759 0.344393)
(-0.049093 -0.0194351 -0.135647)
(0.229645 0.181307 -0.182695)
(0.370158 0.124883 0.502698)
(0.173535 0.136016 0.775338)
(0.13477 0.104412 0.752712)
(0.147468 -0.0748906 0.587889)
(0.150611 -0.0226891 0.0843375)
(0.11012 0.109897 0.231269)
(0.110666 0.114456 0.347871)
(0.191548 -0.0479268 0.275251)
(-0.171145 -0.0283703 5.30766)
(-0.0840115 0.138098 0.103012)
(0.145783 0.460468 0.893357)
(-0.145188 -0.24883 2.14797)
(-0.231382 0.0401427 1.42509)
(0.150286 0.0863787 0.0210688)
(0.401674 0.203813 0.581293)
(0.20914 0.101864 0.724382)
(-0.121155 0.152737 0.861057)
(-0.0490294 0.0747743 0.195934)
(0.1353 0.0249907 0.0103684)
(0.0443654 0.214597 -0.033868)
(0.313162 0.129377 -0.210503)
(0.319277 0.134356 0.575007)
(0.156846 0.118107 0.978694)
(0.0912459 -0.0511301 1.06509)
(0.0677528 -0.0216687 0.572952)
(0.121386 -0.0599128 -0.0682501)
(0.149642 0.0591779 -0.165074)
(0.309725 0.104408 0.516157)
(0.145865 0.163493 0.807284)
(0.116873 0.103701 0.790997)
(0.0942687 -0.167576 0.648051)
(0.0104565 0.0712428 0.254336)
(0.0639576 0.120894 0.434848)
(0.187692 -0.0522144 0.386111)
(-0.116587 -0.0197503 5.31525)
(-0.127104 0.170632 0.0152481)
(0.202306 0.520233 0.650487)
(-0.065786 -0.203799 2.12982)
(-0.174318 -0.0542127 1.63899)
(0.0937947 0.0977678 -0.0605455)
(0.311222 0.177778 0.668432)
(0.0706722 0.0584282 0.816836)
(-0.102416 0.0882918 0.828601)
(-0.0119554 -0.141244 0.0334261)
(0.0260013 0.188936 -0.16061)
(0.307019 0.06653 -0.310634)
(0.251397 0.105034 0.619709)
(0.109229 0.117511 1.0139)
(0.0829041 -0.0419741 1.08362)
(0.100728 -0.110802 0.722851)
(0.062213 -0.00208127 -0.12531)
(0.241573 0.0137724 0.508043)
(0.100036 0.156148 0.846496)
(0.107282 0.0945675 0.817872)
(0.0997348 -0.154469 0.734181)
(-0.059822 0.0109549 0.267718)
(0.0327873 0.140286 0.493024)
(0.18746 -0.0545535 0.483263)
(0.0621233 0.0158836 5.28914)
(-0.134669 0.138206 0.0017801)
(0.0161628 0.349384 0.574225)
(0.346655 0.187752 2.05146)
(0.0627748 0.00515314 1.95277)
(0.0278215 0.0737823 -0.117532)
(0.0853585 0.0681985 0.737965)
(-0.131856 0.00474664 0.847426)
(-0.0882534 0.0413686 0.762704)
(-0.030643 -0.232941 0.000606746)
(0.0147259 0.170286 -0.216272)
(0.251981 0.00667693 -0.362155)
(0.0901582 0.0798742 0.67647)
(0.0139162 0.119683 1.02565)
(0.0637233 -0.034504 1.0781)
(0.123263 -0.127088 0.767252)
(-0.010504 -0.0286814 -0.093205)
(0.128872 0.00736739 0.499565)
(0.00627488 0.166017 0.85866)
(0.0787296 0.0888416 0.836971)
(0.0925427 -0.109757 0.781396)
(-0.064699 0.00410325 0.259302)
(-0.00246221 0.153249 0.525711)
(0.190392 -0.0474095 0.55104)
(0.367582 0.100121 5.02886)
(-0.110738 0.106664 0.0493105)
(-0.114105 -0.0675601 0.5846)
(0.628822 0.143722 2.09316)
(0.345375 0.0870776 2.30059)
(-0.0545346 0.0393802 -0.121526)
(-0.106268 0.00327622 0.707056)
(-0.286749 -0.0612779 0.784244)
(-0.0954855 -0.0144286 0.691143)
(-0.0429653 -0.267782 0.0227131)
(0.00557244 0.147907 -0.210339)
(0.161092 -0.0159274 -0.32406)
(-0.0556118 0.120634 0.633678)
(-0.122774 0.143432 0.942502)
(0.0274494 0.00334519 1.04278)
(0.0448614 -0.196302 0.722175)
(-0.072565 -0.0106903 -0.0465724)
(0.0274684 0.0749092 0.500608)
(-0.0515112 0.184253 0.824362)
(0.0541673 0.0912033 0.844396)
(0.0630107 -0.10194 0.815588)
(-0.0394427 0.0343445 0.282059)
(-0.0164462 0.147816 0.56316)
(0.20251 -0.0461243 0.6093)
(0.426151 -0.0109883 4.99629)
(-0.0787684 0.100271 0.0947379)
(-0.109003 -0.299801 0.655247)
(0.41552 -0.28487 2.01896)
(0.435467 0.0854628 2.79945)
(-0.10086 0.00226241 -0.0794773)
(-0.180733 0.0063097 0.587984)
(-0.348337 -0.105621 0.657375)
(-0.160908 -0.117278 0.5759)
(-0.0120258 -0.238196 0.0693164)
(4.40125e-05 0.123644 -0.154749)
(0.0721837 -0.0285635 -0.223374)
(-0.147906 0.163512 0.564722)
(-0.20067 0.164973 0.822609)
(-0.0877458 0.0518213 0.989692)
(-0.00884851 -0.285984 0.378974)
(-0.105539 -0.00409797 0.0315617)
(-0.0419781 0.130691 0.52174)
(-0.0732697 0.19404 0.808174)
(0.000334366 0.110074 0.857245)
(-0.0237798 -0.0075289 0.847365)
(-0.0158332 0.0587696 0.355812)
(-0.00407548 0.130668 0.622293)
(0.208597 -0.0535035 0.683614)
(0.447514 0.0207692 4.98088)
(-0.0486011 0.0992707 0.0977038)
(-0.0694847 -0.312754 0.711204)
(0.337062 -0.576625 2.05768)
(0.193746 0.0335716 3.43323)
(-0.103012 -0.0393339 -0.014745)
(-0.171141 0.0276907 0.457463)
(-0.317383 -0.116395 0.533377)
(-0.18074 -0.215896 0.453535)
(0.0447649 -0.198422 0.0790294)
(-0.000406798 0.093289 -0.0832528)
(0.0532781 -0.06942 -0.125269)
(-0.212073 0.150757 0.520256)
(-0.210447 0.11285 0.725426)
(-0.190996 -0.0108147 0.900155)
(0.068511 -0.193765 0.19902)
(-0.105587 -0.0313159 0.124584)
(-0.0976761 0.151937 0.551322)
(-0.106559 0.188755 0.808056)
(-0.0609444 0.0602194 0.910098)
(-0.0568143 0.0221649 0.56266)
(-0.0103452 0.0659216 0.446588)
(0.0187161 0.0981566 0.682091)
(0.22156 -0.0728723 0.752702)
(0.618653 0.0917077 4.65204)
(-0.0799949 0.140884 0.106199)
(-0.177582 -0.204934 0.717946)
(0.138271 -0.550894 2.29565)
(-0.310911 0.166381 3.82119)
(-0.100904 -0.0585523 0.0637419)
(-0.155905 0.070839 0.357908)
(-0.242958 -0.0393583 0.498136)
(-0.127346 -0.240779 0.400883)
(0.100599 -0.148286 0.117106)
(0.00520755 0.0620467 -0.0341093)
(0.070761 -0.10872 -0.0345528)
(-0.231278 0.151885 0.48311)
(-0.18202 0.069916 0.633567)
(-0.17606 -0.196998 0.663421)
(0.0917362 -0.16847 0.146387)
(-0.0934353 -0.0753043 0.202596)
(-0.173369 0.166942 0.607146)
(-0.205789 0.152443 0.785731)
(-0.0907497 0.0909099 0.894955)
(0.110492 -0.164565 0.314388)
(-0.0152225 0.0560662 0.522156)
(0.0262396 0.0587832 0.71393)
(0.192091 -0.0650338 0.814914)
(0.66055 -0.0832104 4.42459)
(-0.164934 0.223194 0.163158)
(-0.358327 0.0314724 0.688179)
(-0.512735 -0.137722 2.62261)
(-0.278424 0.312025 3.553)
(-0.0851675 -0.0334133 0.156903)
(-0.154458 0.115339 0.312135)
(-0.131835 0.144917 0.527519)
(-0.0541949 -0.174705 0.433594)
(0.123119 -0.0589316 0.217783)
(0.00714872 0.0100153 0.00532683)
(0.0865936 -0.116133 0.0428102)
(-0.225142 0.174945 0.480566)
(-0.169403 0.111879 0.594727)
(-0.0657616 -0.227425 0.452101)
(0.0872459 -0.110586 0.177037)
(-0.0722822 -0.0978227 0.25896)
(-0.225132 0.187976 0.68848)
(-0.313748 0.119084 0.797562)
(-0.352229 0.0108596 0.724553)
(0.153346 -0.177649 0.176891)
(-0.0291673 0.0642917 0.604322)
(0.0265633 0.0424349 0.745568)
(0.126689 -0.0558287 0.841139)
(0.738833 -0.0333886 3.95465)
(-0.260553 0.290678 0.271926)
(-0.255132 0.331357 0.648746)
(-0.954644 0.311319 2.06777)
(0.176313 0.603386 2.43781)
(-0.0734975 0.0191495 0.236405)
(-0.137424 0.121466 0.317377)
(-0.0317318 0.269818 0.569765)
(0.0419397 0.0133934 0.519768)
(0.127025 0.0319921 0.33408)
(-0.000304992 -0.0129936 0.0601426)
(0.0931744 -0.10118 0.110043)
(-0.166657 0.198799 0.517712)
(-0.153539 0.171799 0.566041)
(0.0344721 -0.140153 0.377227)
(0.0462277 -0.0214905 0.222178)
(-0.0447628 -0.103951 0.289464)
(-0.16928 0.191286 0.783514)
(-0.319983 0.127806 0.830346)
(-0.160215 -0.135066 0.337253)
(0.0509651 0.0116876 0.191101)
(-0.0308657 0.0883334 0.711377)
(-0.048849 0.0502882 0.837769)
(-0.252546 0.183902 0.951272)
(-0.516098 -0.090333 3.16999)
(-0.331248 0.301129 0.424573)
(-0.185169 0.497986 0.623856)
(-0.486581 0.266848 1.50457)
(0.245146 0.708763 1.67133)
(-0.0674414 0.0907517 0.273789)
(-0.103123 0.0761601 0.371289)
(0.00673526 0.260994 0.583382)
(0.124142 0.117098 0.583111)
(0.139893 0.0780142 0.439949)
(-0.00755257 -0.0241322 0.125817)
(0.0609375 -0.0855566 0.188263)
(-0.0647229 0.123263 0.577726)
(-0.131877 0.164959 0.562493)
(0.0890516 -0.129248 0.334732)
(0.0163947 0.0550483 0.290184)
(-0.0379675 -0.0961693 0.284987)
(-0.0830139 0.149237 0.894187)
(-0.244342 0.122741 0.891556)
(0.0285854 -0.029417 0.187236)
(-0.0130536 0.0927227 0.191162)
(-0.020254 0.094988 0.820983)
(-0.110422 0.0688283 1.05057)
(-0.218978 0.21443 1.08809)
(-0.716346 -0.101417 3.05444)
(-0.316942 0.261857 0.58253)
(-0.163679 0.362875 0.650397)
(0.140241 0.205994 1.33955)
(0.179902 0.410831 1.42146)
(-0.00286844 0.109197 0.34848)
(-0.0805344 -0.00695019 0.45658)
(0.0307903 0.0773924 0.576991)
(0.186284 0.0962931 0.628279)
(0.160724 0.0809416 0.539192)
(-0.0102445 -0.0486178 0.202798)
(-0.0134358 -0.09679 0.259247)
(-0.0399193 -0.0504156 0.580077)
(-0.0394714 -0.0262872 0.547243)
(0.114045 -0.171071 0.341614)
(0.0124932 0.0978987 0.395003)
(-0.080519 -0.108292 0.267758)
(-0.10515 0.0953616 0.928823)
(-0.132194 0.0074633 0.885664)
(0.119393 -0.0714847 0.141769)
(-0.0244954 0.104901 0.23178)
(-0.0102634 0.0750882 0.904989)
(-0.0899694 0.0385754 1.22759)
(-0.0601545 0.200367 1.0326)
(0.0649665 0.00908364 3.0861)
(-0.266947 0.204639 0.69662)
(-0.141407 0.0939064 0.709068)
(0.340531 0.266875 1.28122)
(0.221423 0.243055 1.41384)
(0.0559837 0.090382 0.471112)
(-0.0463495 -0.106519 0.529102)
(0.0751039 -0.133753 0.620029)
(0.208861 0.0280868 0.701099)
(0.169844 0.073662 0.645987)
(-0.0148932 -0.0914972 0.293118)
(-0.0741046 -0.142157 0.327135)
(-0.0649244 -0.20382 0.526836)
(0.0530761 -0.233413 0.507013)
(0.108991 -0.210235 0.392645)
(0.0139207 0.129942 0.523617)
(-0.152104 -0.168555 0.263295)
(-0.183476 -0.042703 0.858128)
(-0.0150374 -0.212081 0.623765)
(0.143549 -0.174841 0.133774)
(-0.0346595 0.114807 0.304402)
(-0.0291892 0.0897922 0.953305)
(-0.119533 0.0404708 1.26691)
(0.159155 -0.080661 0.946528)
(0.312366 0.10468 2.72805)
(-0.222557 0.161576 0.774961)
(-0.110271 -0.0467754 0.753059)
(0.188155 0.195114 1.29842)
(0.225274 0.204101 1.46886)
(0.121012 0.0397909 0.586859)
(0.00864521 -0.160327 0.591215)
(0.114262 -0.202314 0.694517)
(0.207717 0.00818408 0.803134)
(0.16043 0.0884812 0.75334)
(-0.0242159 -0.132587 0.403813)
(-0.0970707 -0.180821 0.416927)
(-0.0641 -0.286029 0.481774)
(0.0687558 -0.269876 0.468993)
(0.0585942 -0.182575 0.45066)
(0.00763993 0.183322 0.640152)
(-0.186056 -0.226412 0.297216)
(-0.210099 -0.26008 0.641182)
(0.0136892 -0.235016 0.380247)
(0.0890104 -0.12351 0.182142)
(-0.0558709 0.146512 0.372495)
(-0.246949 0.0753491 1.01603)
(-0.333576 0.0637113 1.20322)
(0.127851 -0.145402 0.333315)
(0.111576 0.0809231 1.73337)
(-0.170981 0.125958 0.834059)
(-0.0914958 -0.104972 0.803788)
(0.100775 0.0256814 1.25248)
(0.206788 0.165003 1.50803)
(0.160734 0.00495606 0.663262)
(0.085207 -0.135923 0.665644)
(0.151261 -0.174704 0.756506)
(0.199606 0.0450675 0.903767)
(0.14025 0.102208 0.847645)
(-0.0252294 -0.144104 0.511106)
(-0.080416 -0.176942 0.516098)
(-0.0594683 -0.289353 0.471361)
(0.0423495 -0.226347 0.456946)
(-0.00408177 -0.0590455 0.505206)
(0.0025514 0.226451 0.709155)
(-0.175869 -0.225178 0.34824)
(-0.159697 -0.302432 0.478785)
(-0.0246276 -0.159848 0.275174)
(0.0178304 -0.0265701 0.216534)
(-0.0723178 0.172043 0.423428)
(-0.327382 -0.0577655 1.01795)
(-0.0580052 -0.156157 0.752922)
(-0.00289847 -0.0423557 0.197529)
(0.1097 -0.000176962 1.35084)
(-0.138084 0.112789 0.847151)
(-0.068828 -0.0909005 0.820566)
(0.0500554 -0.0524865 1.14818)
(0.176193 0.134403 1.51551)
(0.162134 0.0230826 0.696921)
(0.155001 -0.0625105 0.715486)
(0.184801 -0.0806505 0.806333)
(0.174311 0.104146 0.988327)
(0.113864 0.113806 0.919928)
(-0.0154077 -0.111281 0.570105)
(-0.0425976 -0.144573 0.604525)
(-0.0647975 -0.21055 0.488802)
(-0.0467624 -0.0968175 0.455718)
(-0.0270648 0.0564891 0.526973)
(-0.00393414 0.235821 0.739539)
(-0.14609 -0.171538 0.394464)
(-0.150051 -0.211677 0.409889)
(-0.0789985 -0.0910193 0.249799)
(-0.0460374 0.0564702 0.247821)
(-0.074031 0.184121 0.464786)
(-0.187862 -0.239873 0.739089)
(0.122551 -0.186873 0.361554)
(-0.0518036 0.00962286 0.189308)
(0.0912251 -0.0266829 1.26007)
(-0.114777 0.0991843 0.827037)
(-0.0597072 -0.0109396 0.800377)
(0.0128773 -0.080468 1.07708)
(0.15206 0.129211 1.49699)
(0.149154 0.069307 0.706095)
(0.159332 0.000471235 0.723722)
(0.144776 0.00314816 0.823721)
(0.126535 0.165564 1.05078)
(0.0884499 0.126819 0.954679)
(-0.0122268 -0.0672045 0.581108)
(-0.0291742 -0.0693745 0.676429)
(-0.111607 -0.0645025 0.531385)
(-0.128517 -0.011752 0.454354)
(-0.04662 0.12862 0.523299)
(-0.00582622 0.231731 0.74852)
(-0.110649 -0.109343 0.440373)
(-0.164735 -0.107973 0.406121)
(-0.121466 -0.0445963 0.257687)
(-0.103812 0.0964882 0.26648)
(-0.0624192 0.182111 0.512705)
(-0.107174 -0.104577 0.469015)
(0.0293226 -0.0788387 0.298013)
(-0.0927607 0.0365845 0.205809)
(0.0887998 -0.0248255 1.26992)
(-0.11114 0.0923994 0.82246)
(-0.0539226 0.0240454 0.775224)
(0.0120886 -0.0550646 1.05253)
(0.128518 0.104695 1.47527)
(0.114032 0.113849 0.708582)
(0.0967411 0.0252695 0.722131)
(0.0147216 0.0538611 0.812729)
(0.0851628 0.218285 1.05946)
(0.0796431 0.134014 0.95923)
(-0.0155531 -0.0430746 0.588456)
(-0.059718 -3.53417e-05 0.712172)
(-0.174519 0.0192446 0.575106)
(-0.183961 0.0241936 0.449438)
(-0.0841421 0.144477 0.496859)
(-0.00209641 0.231005 0.751409)
(-0.0891137 -0.0413653 0.502898)
(-0.162858 -0.0598427 0.42174)
(-0.137567 -0.0244858 0.275858)
(-0.135304 0.0969191 0.280581)
(-0.0564455 0.178696 0.555851)
(-0.0591299 -0.0397275 0.359584)
(-0.0101729 -0.0258266 0.269184)
(-0.104522 0.0408574 0.218126)
(0.129859 -0.0108303 1.28175)
(-0.132107 0.0787547 0.819768)
(-0.0790722 0.000780605 0.754773)
(-0.0300276 0.063011 1.05845)
(0.123626 0.110487 1.41806)
(0.0584331 0.142411 0.756261)
(-0.0689178 0.0350137 0.743205)
(-0.136174 0.0703071 0.777109)
(0.0617715 0.233819 1.01487)
(0.0792116 0.147993 0.944019)
(-0.0183603 -0.0329651 0.62045)
(-0.0758974 0.0349206 0.726601)
(-0.226664 0.0633199 0.623371)
(-0.205973 0.0309673 0.448959)
(-0.13167 0.117629 0.46256)
(0.00898383 0.240601 0.774023)
(-0.0754127 0.0269605 0.583968)
(-0.135952 -0.0464334 0.459618)
(-0.129682 -0.0248289 0.293755)
(-0.133807 0.0763384 0.297766)
(-0.0765982 0.183958 0.558025)
(0.00428317 -0.00913299 0.33318)
(-0.0092326 -0.00542923 0.251362)
(-0.0897254 0.0312827 0.229188)
(0.158207 -0.00892727 1.24701)
(-0.141536 0.0798593 0.844182)
(-0.139897 -0.0362773 0.747736)
(-0.149694 0.0232255 0.985885)
(0.098701 0.0638708 1.34499)
(0.0156779 0.170109 0.815513)
(-0.194909 0.0308062 0.776423)
(-0.246779 0.0430074 0.726351)
(0.0200837 0.179136 0.928145)
(0.126549 0.180176 0.924285)
(-0.0170856 -0.0198008 0.664692)
(-0.0677566 0.0668939 0.754106)
(-0.243419 0.0809272 0.670079)
(-0.19974 0.0218094 0.447593)
(-0.159549 0.0689866 0.429649)
(0.0192167 0.213654 0.832003)
(-0.0598766 0.0751226 0.662967)
(-0.0826219 -0.0436098 0.510428)
(-0.0943078 -0.0386209 0.310263)
(-0.0986606 0.0424291 0.314228)
(-0.106458 0.177018 0.486505)
(0.0787032 0.0167512 0.346705)
(0.00901286 -0.0017788 0.241774)
(-0.0637401 0.018004 0.236251)
(0.150282 -0.00455607 1.22969)
(-0.137375 0.0841168 0.881259)
(-0.169812 -0.0470425 0.773771)
(-0.246529 -0.0384146 0.912649)
(-0.0178809 0.115481 1.13304)
(0.00288893 0.177245 0.887485)
(-0.227461 0.0348789 0.807098)
(-0.265696 0.00438081 0.688145)
(-0.0719744 0.0580748 0.774064)
(0.157332 0.180645 0.948256)
(-0.0148587 -0.0100872 0.708152)
(-0.0470786 0.0928528 0.80333)
(-0.218666 0.0744097 0.715475)
(-0.149999 -0.0124821 0.446342)
(-0.152593 0.00545002 0.40529)
(-0.0265107 0.137495 0.85947)
(-0.0361837 0.102612 0.730712)
(-0.0121781 -0.0403137 0.552542)
(-0.0398445 -0.0551069 0.324166)
(-0.0518329 0.00709918 0.321387)
(-0.0889429 0.116631 0.439448)
(0.139398 0.0310636 0.369543)
(0.0373302 -0.00692124 0.23824)
(-0.0381976 0.00878864 0.240976)
(0.129735 -0.0180944 1.24353)
(-0.121925 0.0692724 0.907914)
(-0.181387 -0.0262976 0.805093)
(-0.239766 -0.00298249 0.915965)
(-0.0454978 0.0577604 0.945909)
(0.0107935 0.170041 0.956036)
(-0.207452 0.0662923 0.839806)
(-0.221865 -0.0108507 0.664666)
(-0.114099 0.00434615 0.651348)
(0.124497 0.10391 0.998488)
(-0.00749363 -0.00127428 0.736371)
(-0.0379502 0.10022 0.845993)
(-0.176614 0.0426588 0.761523)
(-0.0754807 -0.0424592 0.448201)
(-0.112688 -0.0516279 0.397389)
(-0.0767682 0.104887 0.745928)
(0.000879967 0.107901 0.77983)
(0.059538 -0.0292242 0.572017)
(0.0211495 -0.0674741 0.339934)
(-0.0019063 -0.0283217 0.32019)
(-0.0611184 0.0617392 0.414649)
(0.175626 0.0284861 0.378281)
(0.0659076 -0.013683 0.241397)
(-0.020258 0.00554576 0.244777)
(0.0963542 -0.0254288 1.32715)
(-0.12643 0.0587929 0.946067)
(-0.245147 0.0332286 0.815752)
(-0.282561 0.0941347 0.860859)
(-0.0858584 -0.0233647 0.875833)
(0.0248149 0.153046 1.00833)
(-0.18392 0.11865 0.905718)
(-0.135227 -0.0163237 0.661043)
(-0.10343 0.000411296 0.570918)
(0.0753511 -0.0111394 1.06457)
(-0.00665441 0.000501046 0.736603)
(-0.0147803 0.0835801 0.876537)
(-0.138521 -0.00609854 0.812629)
(-0.000454263 -0.0642788 0.447014)
(-0.0665304 -0.0793451 0.412187)
(-0.061419 0.0989901 0.612591)
(0.045486 0.103222 0.790097)
(0.117675 -0.00416762 0.571603)
(0.0715121 -0.0759982 0.353761)
(0.0401031 -0.0558416 0.3142)
(-0.0526331 0.0561811 0.404874)
(0.183098 0.0160267 0.372935)
(0.0816574 -0.0222171 0.252466)
(-0.0154285 0.00666749 0.248374)
(0.0503517 -0.0336258 1.31555)
(-0.13411 0.0766114 1.02424)
(-0.298351 0.0988959 0.834506)
(-0.344461 0.122305 0.761071)
(-0.200353 -0.0191812 0.748445)
(0.0168984 0.14614 1.06605)
(-0.178541 0.104669 0.97932)
(-0.038338 -0.0391419 0.675749)
(-0.0885522 0.0038728 0.549838)
(0.0506433 -0.0352222 1.054)
(-0.00582802 -0.0149893 0.716978)
(0.035342 0.0635183 0.856669)
(-0.0872358 -0.0385924 0.85744)
(0.0678915 -0.081148 0.447967)
(-0.0337741 -0.0798854 0.440443)
(-0.0393805 0.14767 0.57147)
(0.0824024 0.10168 0.750171)
(0.156337 0.0295139 0.559814)
(0.104731 -0.0797436 0.369602)
(0.0631009 -0.0685386 0.318876)
(-0.0684792 0.118046 0.413018)
(0.167148 0.0100088 0.370551)
(0.0776743 -0.0290816 0.269751)
(-0.0263431 0.0146505 0.254746)
(-0.139618 -0.0398207 1.32943)
(-0.148548 0.117437 1.08919)
(-0.324414 0.121762 0.882012)
(-0.313321 0.107719 0.742542)
(-0.197111 -0.0290892 0.6364)
(-0.000104258 0.153363 1.12858)
(-0.124762 0.0165424 1.05803)
(0.0602357 -0.0738113 0.675946)
(-0.0576781 -0.00897148 0.570338)
(-0.0372101 0.113711 0.884393)
(-0.00587271 -0.00818708 0.666133)
(0.0746818 0.071361 0.79285)
(-0.00255432 -0.0148048 0.868395)
(0.126237 -0.0865503 0.458626)
(-0.00686901 -0.0738383 0.473753)
(-0.028789 0.191695 0.579587)
(0.0584784 0.0881321 0.679077)
(0.175831 0.0562326 0.547482)
(0.118831 -0.0767596 0.395483)
(0.0583833 -0.0673264 0.34378)
(-0.0824269 0.181027 0.465236)
(0.124157 0.0191809 0.3841)
(0.0441432 -0.0348121 0.298433)
(-0.0669478 0.0334332 0.269365)
(-0.251617 -0.00169086 1.02741)
(-0.158433 0.131792 1.15449)
(-0.297351 0.0981904 0.978868)
(-0.222884 -0.0670488 0.778927)
(-0.0994487 -0.0825352 0.604953)
(0.0086415 0.142976 1.15687)
(-0.0229115 -0.022438 1.07289)
(0.153683 -0.089042 0.652542)
(0.0437689 -0.0314437 0.61062)
(0.00408093 0.176739 0.644982)
(-0.00744746 0.00326703 0.630777)
(0.0817754 0.139838 0.724351)
(0.0908569 0.0540598 0.837791)
(0.172879 -0.080123 0.471649)
(0.019681 -0.0709257 0.511113)
(-0.0139059 0.209393 0.603285)
(0.0199478 0.0688962 0.634527)
(0.180543 0.0661839 0.54397)
(0.110938 -0.065797 0.433684)
(0.0316124 -0.0551595 0.379546)
(-0.0954383 0.216005 0.526673)
(0.083578 0.031388 0.417711)
(-0.00795221 -0.0318732 0.338883)
(-0.105469 0.0532065 0.287685)
(-0.190979 -0.0329073 0.824658)
(-0.0923228 0.0903794 1.23138)
(-0.218566 0.0902788 1.04295)
(-0.0843329 -0.118429 0.794686)
(-0.00856753 -0.10043 0.606877)
(0.0279584 0.130396 1.13885)
(0.104567 0.0306178 0.991089)
(0.235236 -0.087098 0.609673)
(0.143558 -0.0331196 0.637011)
(0.0867078 0.151338 0.591613)
(-0.0085439 0.00350832 0.633087)
(0.0452494 0.169087 0.673947)
(0.160175 0.111288 0.776443)
(0.195581 -0.066918 0.491362)
(0.0396596 -0.0562383 0.55258)
(0.00765218 0.235499 0.629878)
(0.0141751 0.0511206 0.628564)
(0.175854 0.0649537 0.554737)
(0.0806479 -0.0510422 0.47634)
(-0.000599303 -0.0279815 0.413439)
(-0.110135 0.240493 0.575665)
(0.0429362 0.02605 0.468059)
(-0.0625239 -0.0108896 0.388843)
(-0.140357 0.0762039 0.305983)
(0.0256308 -0.0446589 0.802408)
(-0.0388049 0.0522282 1.1932)
(-0.0624402 0.103491 1.10923)
(0.0775328 -0.0893623 0.721319)
(0.0786763 -0.0598835 0.629068)
(0.0899655 0.109228 1.084)
(0.212196 0.0528023 0.824401)
(0.268593 -0.0793745 0.589707)
(0.210906 -0.0216435 0.683477)
(0.13044 0.176406 0.641661)
(-0.0056732 0.0206517 0.668904)
(0.015896 0.169645 0.655268)
(0.185692 0.11061 0.728949)
(0.187382 -0.0535306 0.515318)
(0.0390493 -0.0171676 0.589709)
(0.0237019 0.264303 0.674955)
(0.00883886 0.0356612 0.634462)
(0.148089 0.045242 0.599105)
(0.0304927 -0.029548 0.513452)
(-0.0320175 0.0170272 0.445096)
(-0.121085 0.26109 0.608621)
(-0.0144449 -0.00433359 0.524991)
(-0.112984 0.0186041 0.438164)
(-0.173543 0.103342 0.329506)
(0.23225 -0.0354432 0.840373)
(-0.030046 0.0425835 1.10342)
(-0.00424785 0.105792 1.13123)
(0.217793 -0.0551817 0.639112)
(0.177506 0.00411906 0.677741)
(-0.00590054 0.107441 0.986247)
(0.217783 -0.00938936 0.701996)
(0.257879 -0.0720387 0.585328)
(0.229718 0.0163693 0.749878)
(0.144677 0.224009 0.745725)
(-0.00110198 0.0368398 0.695689)
(0.0312895 0.14545 0.662744)
(0.1646 0.0704143 0.705161)
(0.139784 -0.0323846 0.536854)
(0.00220127 0.0569808 0.61373)
(0.0228617 0.305258 0.734973)
(-0.00765944 0.0107968 0.633646)
(0.0936959 0.00753638 0.65289)
(-0.0243351 0.00858573 0.542482)
(-0.0731579 0.0821046 0.472998)
(-0.132195 0.283184 0.6332)
(-0.0730319 -0.0300922 0.580652)
(-0.153878 0.0436591 0.486586)
(-0.206918 0.133244 0.368262)
(0.322864 0.010344 0.790398)
(-0.0537588 0.0380078 1.07673)
(0.0171419 0.0793448 1.04923)
(0.304098 -0.0355158 0.642296)
(0.253546 0.0752736 0.764824)
(-0.0578887 0.11581 0.815347)
(0.157869 -0.0806491 0.636614)
(0.160883 -0.0492858 0.564482)
(0.17853 0.103597 0.802872)
(0.150762 0.296865 0.84902)
(0.0019716 0.0419884 0.709744)
(0.0316236 0.0621648 0.674341)
(0.0884535 0.00984833 0.675153)
(0.0646942 0.00320627 0.551879)
(-0.0681095 0.148905 0.617271)
(-0.00734861 0.352675 0.791463)
(-0.0166445 -0.0224211 0.651858)
(0.0399201 -0.0179882 0.689962)
(-0.0738035 0.056398 0.572555)
(-0.130064 0.164477 0.501032)
(-0.144485 0.301202 0.653009)
(-0.117004 -0.0414778 0.63096)
(-0.187382 0.0654668 0.538137)
(-0.239148 0.161494 0.431925)
(0.320214 0.0185067 0.787666)
(-0.0934903 0.0600187 1.04339)
(0.14932 0.0112378 0.881165)
(0.335692 -0.0460936 0.691733)
(0.29372 0.126342 0.843371)
(-0.00904931 0.0566595 0.742088)
(0.0879335 -0.119443 0.605585)
(0.00574867 -0.0280577 0.528401)
(0.0267831 0.224706 0.773104)
(0.137609 0.314566 0.90249)
(0.00135769 0.0332632 0.729495)
(0.0178879 -0.0188142 0.693244)
(0.0235267 -0.0252069 0.645771)
(0.00212447 0.0389731 0.565393)
(-0.141357 0.215702 0.609061)
(-0.0377519 0.338811 0.81813)
(-0.0136825 -0.044345 0.668802)
(-0.0046247 -0.0328813 0.717277)
(-0.104815 0.0942236 0.613177)
(-0.184115 0.229178 0.537383)
(-0.160563 0.32876 0.643216)
(-0.145847 -0.0427087 0.682561)
(-0.214202 0.0852591 0.603727)
(-0.263712 0.183072 0.519401)
(0.313939 0.0173805 0.826195)
(-0.0581793 0.0488463 1.00162)
(0.14755 -0.0600089 0.738116)
(0.307574 -0.0566979 0.734912)
(0.277012 0.179639 0.913626)
(0.0208374 -0.0266345 0.7432)
(0.0385135 -0.127463 0.596004)
(-0.0818769 -0.0397633 0.527305)
(-0.112111 0.246504 0.67289)
(0.132798 0.306144 0.878393)
(0.000152865 0.0183049 0.745163)
(0.0078864 -0.0783797 0.711991)
(-0.0108886 -0.0498542 0.61652)
(-0.018695 0.0530872 0.574822)
(-0.181184 0.233574 0.605429)
(-0.0653088 0.330838 0.785304)
(-0.0155154 -0.0576417 0.683243)
(-0.0315395 -0.048479 0.734403)
(-0.107744 0.103948 0.658806)
(-0.206393 0.256739 0.589709)
(-0.19464 0.376067 0.613785)
(-0.15557 -0.0401131 0.736348)
(-0.225688 0.0955761 0.686207)
(-0.270855 0.19312 0.626379)
(0.316801 0.0169139 0.82753)
(-0.0177493 0.0261423 0.945065)