/*--------------------------------*- C++ -*----------------------------------*\
| =========                 |                                                 |
| \\      /  F ield         | OpenFOAM: The Open Source CFD Toolbox           |
|  \\    /   O peration     | Version:  5.x                                   |
|   \\  /    A nd           | Web:      www.OpenFOAM.org                      |
|    \\/     M anipulation  |                                                 |
\*---------------------------------------------------------------------------*/
FoamFile
{
    version     2.0;
    format      ascii;
    class       volVectorField;
    location    "2.65";
    object      Us;
}
// * * * * * * * * * * * * * * * * * * * * * * * * * * * * * * * * * * * * * //

dimensions      [0 1 -1 0 0 0 0];

internalField   nonuniform List<vector> 
10571
(
(0.0196293 0.0369081 -0.0334251)
(-0.00508252 0.0505931 -0.0641506)
(0.0742923 0.175476 -0.0231679)
(0.0638042 0.265853 0.0309991)
(-0.00473323 0.159023 -0.121964)
(0.0291332 0.144852 0.0780191)
(0.115776 0.327826 0.187028)
(0.114067 0.45046 0.211091)
(0.0734191 0.429141 0.147341)
(0.0314167 0.216206 -0.0129939)
(0.0133654 -0.0220642 -0.0376139)
(0.134522 -0.057364 0.028773)
(0.173632 -0.0692492 -0.0688455)
(0.384582 0.121657 0.180921)
(0.187404 0.390861 0.217901)
(0.168087 0.211618 0.0438487)
(0.0897672 0.00108559 0.00398018)
(0.189817 0.0491937 -0.0989767)
(0.319518 0.118368 0.169632)
(0.084277 -0.00112151 -0.012968)
(0.0229919 -0.0324783 -0.10786)
(0.272012 0.0938169 0.0223631)
(0.13972 0.0844612 0.102442)
(0.0295455 -0.0139812 -0.0598584)
(-0.0375898 0.0185559 -0.163986)
(0.0200379 0.0132354 -0.191387)
(0.0806041 0.128261 -0.0759645)
(-0.0122083 0.223241 -0.0340109)
(-0.0561646 0.0709742 -0.323142)
(0.102102 0.0383806 0.0226097)
(0.118792 -0.0383252 0.108489)
(0.227547 0.220284 0.251975)
(0.256991 0.274028 0.164362)
(-0.00860406 -0.0269842 -0.367496)
(0.0182147 0.133922 -0.267053)
(-0.047742 0.00220358 -0.00073229)
(-0.0472211 -0.042545 -0.372009)
(0.315584 0.215016 0.190306)
(0.29397 0.377079 0.168115)
(0.302737 0.294366 0.013811)
(0.128949 0.0418266 -0.176892)
(-0.0441014 -0.0129025 -0.454401)
(0.0806716 -0.00649885 -0.273296)
(0.114539 -0.00544512 -0.261302)
(0.0276353 -0.0195007 -0.313542)
(0 0 0)
(0.110423 0.0217338 -0.224069)
(0.0906939 -0.0544679 -0.329618)
(-0.0516093 0.0195766 -0.305244)
(0.0168334 0.0138305 -0.319645)
(-0.0848225 -0.115658 -0.214358)
(-0.00912157 -0.0430436 -0.1695)
(-0.0561251 -0.0133889 -0.417964)
(-0.0898479 -0.11645 -0.290401)
(-0.0827943 -0.126459 -0.340749)
(-0.0305151 -0.144639 -0.326673)
(0.181746 0.0213529 -0.0371621)
(-0.0515508 -0.066994 -0.397937)
(0.00822714 0.0919751 -0.51212)
(-0.0293688 -0.02954 -0.250884)
(-0.067264 -0.0380222 -0.458841)
(-0.0193433 -0.0646005 -0.331449)
(0.124628 -0.0257232 -0.1443)
(0.0032125 -0.0156439 -0.145712)
(0.0143419 0.082904 -0.452916)
(-0.0807693 -0.0276638 -0.441213)
(0.00619532 -0.00423885 -0.208205)
(1.14212e-14 9.64036e-16 -2.12454e-14)
(0.0285407 -0.0232485 -0.207661)
(0 0 0)
(0.106975 -0.0241661 -0.158485)
(0.101026 -0.047748 -0.217165)
(0.0200353 0.00409867 -0.455497)
(-0.0142386 0.00497941 -0.404818)
(-0.164405 -0.218813 -0.18821)
(-0.0763114 -0.217283 -0.258899)
(-0.0436045 -0.0634672 -0.429492)
(-0.13236 -0.0725861 -0.259202)
(-0.0579676 -0.0618675 -0.335026)
(-0.0307781 -0.0990061 -0.383494)
(0.0692896 -0.0425466 -0.238114)
(-0.0347015 -0.0614651 -0.360498)
(0.00122554 0.0713463 -0.481953)
(-0.0694761 -0.000821655 -0.207784)
(-0.0737756 -0.0396648 -0.400431)
(-0.0277934 -0.053873 -0.380148)
(0.157116 -0.00414551 -0.0237112)
(0.0264421 -0.0111182 -0.0564399)
(0.0315798 0.0597353 -0.398195)
(-0.119298 -0.0682603 -0.342287)
(0.0213546 -0.0645669 -0.150169)
(0 0 0)
(0.00187931 -0.0322298 -0.103537)
(-0.137598 -0.0946642 -0.257273)
(0.0332943 -0.0794247 -0.18364)
(0.120672 -0.0259474 -0.0991096)
(0.0338105 0.00354476 -0.434638)
(-0.0322993 0.006742 -0.348055)
(-0.149487 -0.180373 -0.147197)
(-0.0682998 -0.187623 -0.200407)
(-0.0358441 -0.0394641 -0.375472)
(-0.0960538 0.0038993 -0.232315)
(-0.00336991 0.0092402 -0.300766)
(-0.004574 -0.0510678 -0.323652)
(0.028502 -0.103614 -0.239132)
(-0.0222436 -0.0503774 -0.333009)
(0.000614577 0.0556691 -0.422178)
(0 0 0)
(-0.105047 -0.0536499 -0.342371)
(-0.035454 -0.0381489 -0.351885)
(0.137424 0.00862871 0.0458079)
(0.0652688 -0.000643849 0.0301428)
(0.00114348 0.104801 -0.332988)
(-0.170513 -0.0704625 -0.284432)
(-0.050599 -0.0474234 -0.111281)
(0 0 0)
(0.0357351 -0.0294834 -0.0330572)
(-0.152592 -0.00644448 -0.284058)
(-0.0236183 -0.0456723 -0.127021)
(0.0927929 -0.0460599 0.00121843)
(0.0274521 -0.00512355 -0.358571)
(-0.0225523 0.0207314 -0.318669)
(-0.133321 -0.136058 -0.0934061)
(-0.0393829 -0.128378 -0.153908)
(-0.00969482 -0.00514297 -0.326379)
(-0.0676603 0.0668485 -0.2358)
(0.0362713 0.029949 -0.301597)
(0.0590375 -0.0118348 -0.296165)
(0.0240698 -0.114277 -0.25417)
(-0.0262582 0.0122123 -0.274349)
(-0.0041108 0.0224411 -0.0120604)
(0.00222617 0.0520657 -0.3702)
(0 0 0)
(-0.158849 -0.0908247 -0.277049)
(-0.0680588 -0.0498185 -0.28974)
(0.0865322 0.0170251 0.0838908)
(0.0417494 -0.00923754 0.052654)
(-0.00221772 0.000577033 -0.000489573)
(-0.0124742 0.139116 -0.253666)
(-0.19201 -0.0655612 -0.220706)
(-0.163794 -0.0609825 -0.128887)
(0.0687262 -0.0203079 0.158342)
(-0.0174981 -0.0494482 0.0453206)
(-0.201997 -0.0107585 -0.268347)
(0 0 0)
(0.0670283 -0.0219905 0.099548)
(0.0368987 -0.000715902 -0.321733)
(-0.0110477 0.0124599 -0.313744)
(-0.040823 0.00751712 -0.153081)
(0.00133936 -0.0734565 -0.139802)
(0.0493817 0.0281522 -0.292994)
(-0.0547541 0.0639623 -0.208556)
(0.0394692 0.0492998 -0.245732)
(0.0409099 -0.0139979 -0.24828)
(0.0636116 -0.0528654 -0.225835)
(0.0301914 0.021213 -0.274094)
(0.130056 0.0193599 -0.194551)
(0.00713014 0.0550643 -0.292357)
(-0.074663 0.119047 -0.0601266)
(-0.155028 -0.0714787 -0.225129)
(-0.133071 -0.0967438 -0.199343)
(0.0293684 0.0160479 0.046212)
(0.0859249 0.00426443 0.127605)
(0.132818 -0.0486792 -0.0479002)
(-0.0607262 0.192211 -0.185997)
(-0.201327 -0.0492176 -0.148697)
(-0.170059 -0.0473802 -0.110746)
(0.0208507 -0.0325573 0.193209)
(0.045255 -0.0631633 0.154947)
(0 0 0)
(-0.221321 -0.0126652 -0.164138)
(0 0 0)
(0.0584534 -0.0331559 0.193068)
(0.034278 -0.000314804 -0.291418)
(-0.00500795 -0.0308478 -0.271209)
(-0.0459684 -0.00932608 -0.167802)
(0.0586665 -0.0402045 -0.20579)
(0.0977305 0.00909638 -0.254276)
(-0.0476568 0.0198464 -0.187787)
(0.0275563 0.0489219 -0.195224)
(-0.0202581 -0.0502201 -0.136704)
(0.0826012 -0.00867825 -0.163042)
(0.0961945 0.0912985 -0.22966)
(0.152294 0.0552134 -0.242554)
(-0.0200765 0.0717373 -0.181717)
(-0.0608349 0.104766 -0.0761631)
(0.0196609 0.149494 -0.144086)
(-0.114183 -0.0723288 -0.109155)
(-0.00658841 -0.015109 0.00177304)
(0.0440008 -0.00144865 0.11463)
(0.145594 0.0261641 -0.144172)
(-0.0543027 0.197783 -0.140589)
(-0.206479 -0.0420267 -0.027915)
(-0.141457 -0.0380871 -0.0486445)
(-0.0173534 -0.0335872 0.266834)
(0.0754451 -0.0426109 0.255449)
(0 0 0)
(0 0 0)
(0 0 0)
(0 0 0)
(0.0473409 0.00359455 -0.259235)
(-0.0106302 0.0081965 -0.257145)
(0.0122688 -0.0343998 -0.185271)
(0.0786549 -0.0146103 -0.24982)
(0.0867513 0.0343749 -0.245254)
(-0.0235576 0.0122211 -0.212341)
(0 0 0)
(0 0 0)
(-0.016791 -0.109751 0.00173075)
(0.0857929 0.126332 -0.201612)
(0 0 0)
(0 0 0)
(-0.0815907 0.102181 -0.0242551)
(0 0 0)
(-0.12516 -0.0443678 -0.000245074)
(-0.0303477 -0.050784 0.047828)
(0.045915 0.00255458 0.0753748)
(0.128693 -0.0407653 -0.0944595)
(0 0 0)
(-0.218712 -0.0228143 0.128748)
(-0.128932 -0.0204416 0.0857719)
(0 0 0)
(0 0 0)
(0 0 0)
(-0.191229 0.00241381 0.161007)
(-0.0788759 0.0237957 0.282575)
(0.0526928 0.00317065 -0.242901)
(0 0 0)
(0.0655683 0.0456803 -0.207965)
(0 0 0)
(0.0872774 0.0555904 -0.228681)
(0 0 0)
(0 0 0)
(0 0 0)
(-0.0286108 -0.138811 0.0752394)
(0.0578287 0.172809 -0.179039)
(0 0 0)
(0 0 0)
(0 0 0)
(-0.146451 -0.0599483 0.0912746)
(-0.0383492 -0.118356 0.111436)
(0.0201403 -0.00820909 0.1244)
(0 0 0)
(0 0 0)
(-0.154628 -0.0113911 0.177287)
(0 0 0)
(0.134464 0.17185 0.225973)
(0 0 0)
(-0.160529 -0.0025418 0.258405)
(-0.0765329 0.0126237 0.320303)
(0.0457868 0.00571981 -0.212025)
(0 0 0)
(-0.012877 0.0710839 -0.240486)
(0.0131255 0.0560532 -0.253235)
(0.0833303 0.0847661 -0.23684)
(0 0 0)
(0 0 0)
(0 0 0)
(0 0 0)
(0.119757 0.18928 -0.227491)
(0 0 0)
(0 0 0)
(0 0 0)
(-0.116091 -0.070957 0.19692)
(-0.0347332 -0.0959793 0.228928)
(0.00130927 -0.125498 0.228746)
(0 0 0)
(0 0 0)
(-0.157165 -0.00855288 0.254369)
(0 0 0)
(0 0 0)
(0 0 0)
(0 0 0)
(-0.101475 0.0475384 0.374414)
(0.0498829 0.0104013 -0.174171)
(0 0 0)
(0.0308394 0.0748199 -0.169282)
(0 0 0)
(0.104896 0.0827174 -0.20932)
(0 0 0)
(0 0 0)
(0.0173061 0.200809 -0.157774)
(0 0 0)
(0 0 0)
(0 0 0)
(0 0 0)
(0 0 0)
(0 0 0)
(-0.0381372 -0.0645669 0.337331)
(0.0148003 -0.120361 0.33991)
(0 0 0)
(0 0 0)
(-0.136764 0.00396003 0.369144)
(-0.0837024 -0.02636 0.379412)
(0.00148415 -0.0593327 0.451448)
(0 0 0)
(0 0 0)
(0 0 0)
(0.0524824 0.00945865 -0.13506)
(0 0 0)
(0 0 0)
(0 0 0)
(0 0 0)
(0 0 0)
(0 0 0)
(0 0 0)
(0 0 0)
(0 0 0)
(0 0 0)
(0 0 0)
(0 0 0)
(0 0 0)
(0 0 0)
(0 0 0)
(0 0 0)
(0 0 0)
(-0.128807 0.00838511 0.444412)
(-0.0882862 -0.0162024 0.44742)
(0 0 0)
(0 0 0)
(0 0 0)
(0 0 0)
(0 0 0)
(0 0 0)
(0 0 0)
(0 0 0)
(0 0 0)
(0 0 0)
(0 0 0)
(0 0 0)
(0 0 0)
(0 0 0)
(0 0 0)
(0 0 0)
(0 0 0)
(0 0 0)
(0 0 0)
(0 0 0)
(0 0 0)
(0 0 0)
(0 0 0)
(-0.0550246 -0.0102061 0.554392)
(0 0 0)
(0 0 0)
(0 0 0)
(0 0 0)
(0 0 0)
(0 0 0)
(0 0 0)
(0 0 0)
(0 0 0)
(0 0 0)
(0 0 0)
(0 0 0)
(0 0 0)
(0 0 0)
(0 0 0)
(0 0 0)
(0 0 0)
(0 0 0)
(0 0 0)
(0 0 0)
(0 0 0)
(0 0 0)
(0 0 0)
(0 0 0)
(0 0 0)
(0 0 0)
(0 0 0)
(0 0 0)
(0 0 0)
(0 0 0)
(0 0 0)
(0 0 0)
(0 0 0)
(0 0 0)
(0 0 0)
(0 0 0)
(0 0 0)
(0 0 0)
(0 0 0)
(0 0 0)
(0 0 0)
(0 0 0)
(0 0 0)
(0 0 0)
(0 0 0)
(0 0 0)
(0 0 0)
(0 0 0)
(0 0 0)
(0 0 0)
(0 0 0)
(0 0 0)
(0 0 0)
(0 0 0)
(0 0 0)
(0 0 0)
(0 0 0)
(0 0 0)
(0 0 0)
(0 0 0)
(0 0 0)
(0 0 0)
(0 0 0)
(0 0 0)
(0 0 0)
(0 0 0)
(0 0 0)
(0 0 0)
(0 0 0)
(0 0 0)
(0 0 0)
(0 0 0)
(0 0 0)
(0 0 0)
(0 0 0)
(0 0 0)
(0 0 0)
(0 0 0)
(0 0 0)
(0 0 0)
(0 0 0)
(0 0 0)
(0 0 0)
(0 0 0)
(0 0 0)
(0 0 0)
(0 0 0)
(0 0 0)
(0 0 0)
(0 0 0)
(0 0 0)
(0 0 0)
(0 0 0)
(0 0 0)
(0 0 0)
(0 0 0)
(0 0 0)
(0 0 0)
(0 0 0)
(0 0 0)
(0 0 0)
(0 0 0)
(0 0 0)
(0 0 0)
(0 0 0)
(0 0 0)
(0 0 0)
(0 0 0)
(0 0 0)
(0 0 0)
(0 0 0)
(0 0 0)
(0 0 0)
(0 0 0)
(0 0 0)
(0 0 0)
(0 0 0)
(0 0 0)
(0 0 0)
(0 0 0)
(0 0 0)
(0 0 0)
(0 0 0)
(0 0 0)
(0 0 0)
(0 0 0)
(0 0 0)
(0 0 0)
(0 0 0)
(0 0 0)
(0 0 0)
(0 0 0)
(0 0 0)
(0 0 0)
(0 0 0)
(0 0 0)
(0 0 0)
(0 0 0)
(0 0 0)
(0 0 0)
(0 0 0)
(0 0 0)
(0 0 0)
(0 0 0)
(0 0 0)
(0 0 0)
(0 0 0)
(0 0 0)
(0 0 0)
(0 0 0)
(0 0 0)
(0 0 0)
(0 0 0)
(0 0 0)
(0 0 0)
(0 0 0)
(0 0 0)
(0 0 0)
(0 0 0)
(0 0 0)
(0 0 0)
(0 0 0)
(0 0 0)
(0 0 0)
(0 0 0)
(0 0 0)
(0 0 0)
(0 0 0)
(0 0 0)
(0 0 0)
(0 0 0)
(0 0 0)
(0 0 0)
(0 0 0)
(0 0 0)
(0 0 0)
(0 0 0)
(0 0 0)
(0 0 0)
(0 0 0)
(0 0 0)
(0 0 0)
(0 0 0)
(0 0 0)
(0 0 0)
(0 0 0)
(0 0 0)
(0 0 0)
(0 0 0)
(0 0 0)
(0 0 0)
(0 0 0)
(0 0 0)
(0 0 0)
(0 0 0)
(0 0 0)
(0 0 0)
(0 0 0)
(0 0 0)
(0 0 0)
(0 0 0)
(0 0 0)
(0 0 0)
(0 0 0)
(0 0 0)
(0 0 0)
(0 0 0)
(0 0 0)
(0 0 0)
(0 0 0)
(0 0 0)
(0 0 0)
(0 0 0)
(0 0 0)
(0 0 0)
(0 0 0)
(0 0 0)
(0 0 0)
(0 0 0)
(0 0 0)
(0 0 0)
(0 0 0)
(0 0 0)
(0 0 0)
(0 0 0)
(0 0 0)
(0 0 0)
(0 0 0)
(0 0 0)
(0 0 0)
(0 0 0)
(0 0 0)
(0 0 0)
(0 0 0)
(0 0 0)
(0 0 0)
(0 0 0)
(0 0 0)
(0 0 0)
(0 0 0)
(0 0 0)
(0 0 0)
(0 0 0)
(0 0 0)
(0 0 0)
(0 0 0)
(0 0 0)
(0 0 0)
(0 0 0)
(0 0 0)
(0 0 0)
(0 0 0)
(0 0 0)
(0 0 0)
(0 0 0)
(0 0 0)
(0 0 0)
(0 0 0)
(0 0 0)
(0 0 0)
(0 0 0)
(0 0 0)
(0 0 0)
(0 0 0)
(0 0 0)
(0 0 0)
(0 0 0)
(0 0 0)
(0 0 0)
(0 0 0)
(0 0 0)
(0 0 0)
(0 0 0)
(0 0 0)
(0 0 0)
(0 0 0)
(0 0 0)
(0 0 0)
(0 0 0)
(0 0 0)
(0 0 0)
(0 0 0)
(0 0 0)
(0 0 0)
(0 0 0)
(0 0 0)
(0 0 0)
(0 0 0)
(0 0 0)
(0 0 0)
(0 0 0)
(0 0 0)
(0 0 0)
(0 0 0)
(0 0 0)
(0 0 0)
(0 0 0)
(0 0 0)
(0 0 0)
(0 0 0)
(0 0 0)
(0 0 0)
(0 0 0)
(0 0 0)
(0 0 0)
(0 0 0)
(0 0 0)
(0 0 0)
(0 0 0)
(0 0 0)
(0 0 0)
(0 0 0)
(0 0 0)
(0 0 0)
(0 0 0)
(0 0 0)
(0 0 0)
(0 0 0)
(0 0 0)
(0 0 0)
(0 0 0)
(0 0 0)
(0 0 0)
(0 0 0)
(0 0 0)
(0 0 0)
(0 0 0)
(0 0 0)
(0 0 0)
(0 0 0)
(0 0 0)
(0 0 0)
(0 0 0)
(0 0 0)
(0 0 0)
(0 0 0)
(0 0 0)
(0 0 0)
(0 0 0)
(0 0 0)
(0 0 0)
(0 0 0)
(0 0 0)
(0 0 0)
(0 0 0)
(0 0 0)
(0 0 0)
(0 0 0)
(0 0 0)
(0 0 0)
(0 0 0)
(0 0 0)
(0 0 0)
(0 0 0)
(0 0 0)
(0 0 0)
(0 0 0)
(0 0 0)
(0 0 0)
(0 0 0)
(0 0 0)
(0 0 0)
(0 0 0)
(0 0 0)
(0 0 0)
(0 0 0)
(0 0 0)
(0 0 0)
(0 0 0)
(0 0 0)
(0 0 0)
(0 0 0)
(0 0 0)
(0 0 0)
(0 0 0)
(0 0 0)
(0 0 0)
(0 0 0)
(0 0 0)
(0 0 0)
(0 0 0)
(0 0 0)
(0 0 0)
(0 0 0)
(0 0 0)
(0 0 0)
(0 0 0)
(0 0 0)
(0 0 0)
(0 0 0)
(0 0 0)
(0 0 0)
(0 0 0)
(0 0 0)
(0 0 0)
(0 0 0)
(0 0 0)
(0 0 0)
(0 0 0)
(0 0 0)
(0 0 0)
(0 0 0)
(0 0 0)
(0 0 0)
(0 0 0)
(0 0 0)
(0 0 0)
(0 0 0)
(0 0 0)
(0 0 0)
(0 0 0)
(0 0 0)
(0 0 0)
(0 0 0)
(0 0 0)
(0 0 0)
(0 0 0)
(0 0 0)
(0 0 0)
(0 0 0)
(0 0 0)
(0 0 0)
(0 0 0)
(0 0 0)
(0 0 0)
(0 0 0)
(0 0 0)
(0 0 0)
(0 0 0)
(0 0 0)
(0 0 0)
(0 0 0)
(0 0 0)
(0 0 0)
(0 0 0)
(0 0 0)
(0 0 0)
(0 0 0)
(0 0 0)
(0 0 0)
(0 0 0)
(0 0 0)
(0 0 0)
(0 0 0)
(0 0 0)
(0 0 0)
(0 0 0)
(0 0 0)
(0 0 0)
(0 0 0)
(0 0 0)
(0 0 0)
(0 0 0)
(0 0 0)
(0 0 0)
(0 0 0)
(0 0 0)
(0 0 0)
(0 0 0)
(0 0 0)
(0 0 0)
(0 0 0)
(0 0 0)
(0 0 0)
(0 0 0)
(0 0 0)
(0 0 0)
(0 0 0)
(0 0 0)
(0 0 0)
(0 0 0)
(0 0 0)
(0 0 0)
(0 0 0)
(0 0 0)
(0 0 0)
(0 0 0)
(0 0 0)
(0 0 0)
(0 0 0)
(0 0 0)
(0 0 0)
(0 0 0)
(0 0 0)
(0 0 0)
(0 0 0)
(0 0 0)
(0 0 0)
(0 0 0)
(0 0 0)
(0 0 0)
(0 0 0)
(0 0 0)
(0 0 0)
(0 0 0)
(0 0 0)
(0 0 0)
(0 0 0)
(0 0 0)
(0 0 0)
(0 0 0)
(0 0 0)
(0 0 0)
(0 0 0)
(0 0 0)
(0 0 0)
(0 0 0)
(0 0 0)
(0 0 0)
(0 0 0)
(0 0 0)
(0 0 0)
(0 0 0)
(0 0 0)
(0 0 0)
(0 0 0)
(0 0 0)
(0 0 0)
(0 0 0)
(0 0 0)
(0 0 0)
(0 0 0)
(0 0 0)
(0 0 0)
(0 0 0)
(0 0 0)
(0 0 0)
(0 0 0)
(0 0 0)
(0 0 0)
(0 0 0)
(0 0 0)
(0 0 0)
(0 0 0)
(0 0 0)
(0 0 0)
(0 0 0)
(0 0 0)
(0 0 0)
(0 0 0)
(0 0 0)
(0 0 0)
(0 0 0)
(0 0 0)
(0 0 0)
(0 0 0)
(0 0 0)
(0 0 0)
(0 0 0)
(0 0 0)
(0 0 0)
(0 0 0)
(0 0 0)
(0 0 0)
(0 0 0)
(0 0 0)
(0 0 0)
(0 0 0)
(0 0 0)
(0 0 0)
(0 0 0)
(0 0 0)
(0 0 0)
(0 0 0)
(0 0 0)
(0 0 0)
(0 0 0)
(0 0 0)
(0 0 0)
(0 0 0)
(0 0 0)
(0 0 0)
(0 0 0)
(0 0 0)
(0 0 0)
(0 0 0)
(0 0 0)
(0 0 0)
(0 0 0)
(0 0 0)
(0 0 0)
(0 0 0)
(0 0 0)
(0 0 0)
(0 0 0)
(0 0 0)
(0 0 0)
(0 0 0)
(0 0 0)
(0 0 0)
(0 0 0)
(0 0 0)
(0 0 0)
(0 0 0)
(0 0 0)
(0 0 0)
(0 0 0)
(0 0 0)
(0 0 0)
(0 0 0)
(0 0 0)
(0 0 0)
(0 0 0)
(0 0 0)
(0 0 0)
(0 0 0)
(0 0 0)
(0 0 0)
(0 0 0)
(0 0 0)
(0 0 0)
(0 0 0)
(0 0 0)
(0 0 0)
(0 0 0)
(0 0 0)
(0 0 0)
(0 0 0)
(0 0 0)
(0 0 0)
(0 0 0)
(0 0 0)
(0 0 0)
(0 0 0)
(0 0 0)
(0 0 0)
(0 0 0)
(0 0 0)
(0 0 0)
(0 0 0)
(0 0 0)
(0 0 0)
(0 0 0)
(0 0 0)
(0 0 0)
(0 0 0)
(0 0 0)
(0 0 0)
(0 0 0)
(0 0 0)
(0 0 0)
(0 0 0)
(0 0 0)
(0 0 0)
(0 0 0)
(0 0 0)
(0 0 0)
(0 0 0)
(0 0 0)
(0 0 0)
(0 0 0)
(0 0 0)
(0 0 0)
(0 0 0)
(0 0 0)
(0 0 0)
(0 0 0)
(0 0 0)
(0 0 0)
(0 0 0)
(0 0 0)
(0 0 0)
(0 0 0)
(0 0 0)
(0 0 0)
(0 0 0)
(0 0 0)
(0 0 0)
(0 0 0)
(0 0 0)
(0 0 0)
(0 0 0)
(0 0 0)
(0 0 0)
(0 0 0)
(0 0 0)
(0 0 0)
(0 0 0)
(0 0 0)
(0 0 0)
(0 0 0)
(0 0 0)
(0 0 0)
(0 0 0)
(0 0 0)
(0 0 0)
(0 0 0)
(0 0 0)
(0 0 0)
(0 0 0)
(0 0 0)
(0 0 0)
(0 0 0)
(0 0 0)
(0 0 0)
(0 0 0)
(0 0 0)
(0 0 0)
(0 0 0)
(0 0 0)
(0 0 0)
(0 0 0)
(0 0 0)
(0 0 0)
(0 0 0)
(0 0 0)
(0 0 0)
(0 0 0)
(0 0 0)
(0 0 0)
(0 0 0)
(0 0 0)
(0 0 0)
(0 0 0)
(0 0 0)
(0 0 0)
(0 0 0)
(0 0 0)
(0 0 0)
(0 0 0)
(0 0 0)
(0 0 0)
(0 0 0)
(0 0 0)
(0 0 0)
(0 0 0)
(0 0 0)
(0 0 0)
(0 0 0)
(0 0 0)
(0 0 0)
(0 0 0)
(0 0 0)
(0 0 0)
(0 0 0)
(0 0 0)
(0 0 0)
(0 0 0)
(0 0 0)
(0 0 0)
(0 0 0)
(0 0 0)
(0 0 0)
(0 0 0)
(0 0 0)
(0 0 0)
(0 0 0)
(0 0 0)
(0 0 0)
(0 0 0)
(0 0 0)
(0 0 0)
(0 0 0)
(0 0 0)
(0 0 0)
(0 0 0)
(0 0 0)
(0 0 0)
(0 0 0)
(0 0 0)
(0 0 0)
(0 0 0)
(0 0 0)
(0 0 0)
(0 0 0)
(0 0 0)
(0 0 0)
(0 0 0)
(0 0 0)
(0 0 0)
(0 0 0)
(0 0 0)
(0 0 0)
(0 0 0)
(0 0 0)
(0 0 0)
(0 0 0)
(0 0 0)
(0 0 0)
(0 0 0)
(0 0 0)
(0 0 0)
(0 0 0)
(0 0 0)
(0 0 0)
(0 0 0)
(0 0 0)
(0 0 0)
(0 0 0)
(0 0 0)
(0 0 0)
(0 0 0)
(0 0 0)
(0 0 0)
(0 0 0)
(0 0 0)
(0 0 0)
(0 0 0)
(0 0 0)
(0 0 0)
(0 0 0)
(0 0 0)
(0 0 0)
(0 0 0)
(0 0 0)
(0 0 0)
(0 0 0)
(0 0 0)
(0 0 0)
(0 0 0)
(0 0 0)
(0 0 0)
(0 0 0)
(0 0 0)
(0 0 0)
(0 0 0)
(0 0 0)
(0 0 0)
(0 0 0)
(0 0 0)
(0 0 0)
(0 0 0)
(0 0 0)
(0 0 0)
(0 0 0)
(0 0 0)
(0 0 0)
(0 0 0)
(0 0 0)
(0 0 0)
(0 0 0)
(0 0 0)
(0 0 0)
(0 0 0)
(0 0 0)
(0 0 0)
(0 0 0)
(0 0 0)
(0 0 0)
(0 0 0)
(0 0 0)
(0 0 0)
(0 0 0)
(0 0 0)
(0 0 0)
(0 0 0)
(0 0 0)
(0 0 0)
(0 0 0)
(0 0 0)
(0 0 0)
(0 0 0)
(0 0 0)
(0 0 0)
(0 0 0)
(0 0 0)
(0 0 0)
(0 0 0)
(0 0 0)
(0 0 0)
(0 0 0)
(0 0 0)
(0 0 0)
(0 0 0)
(0 0 0)
(0 0 0)
(0 0 0)
(0 0 0)
(0 0 0)
(0 0 0)
(0 0 0)
(0 0 0)
(0 0 0)
(0 0 0)
(0 0 0)
(0 0 0)
(0 0 0)
(0 0 0)
(0 0 0)
(0 0 0)
(0 0 0)
(0 0 0)
(0 0 0)
(0 0 0)
(0 0 0)
(0 0 0)
(0 0 0)
(0 0 0)
(0 0 0)
(0 0 0)
(0 0 0)
(0 0 0)
(0 0 0)
(0 0 0)
(0 0 0)
(0 0 0)
(0 0 0)
(0 0 0)
(0 0 0)
(0 0 0)
(0 0 0)
(0 0 0)
(0 0 0)
(0 0 0)
(0 0 0)
(0 0 0)
(0 0 0)
(0 0 0)
(0 0 0)
(0 0 0)
(0 0 0)
(0 0 0)
(0 0 0)
(0 0 0)
(0 0 0)
(0 0 0)
(0 0 0)
(0 0 0)
(0 0 0)
(0 0 0)
(0 0 0)
(0 0 0)
(0 0 0)
(0 0 0)
(0 0 0)
(0 0 0)
(0 0 0)
(0 0 0)
(0 0 0)
(0 0 0)
(0 0 0)
(0 0 0)
(0 0 0)
(0 0 0)
(0 0 0)
(0 0 0)
(0 0 0)
(0 0 0)
(0 0 0)
(0 0 0)
(0 0 0)
(0 0 0)
(0 0 0)
(0 0 0)
(0 0 0)
(0 0 0)
(0 0 0)
(0 0 0)
(0 0 0)
(0 0 0)
(0 0 0)
(0 0 0)
(0 0 0)
(0 0 0)
(0 0 0)
(0 0 0)
(0 0 0)
(0 0 0)
(0 0 0)
(0 0 0)
(0 0 0)
(0 0 0)
(0 0 0)
(0 0 0)
(0 0 0)
(0 0 0)
(0 0 0)
(0 0 0)
(0 0 0)
(0 0 0)
(0 0 0)
(0 0 0)
(0 0 0)
(0 0 0)
(0 0 0)
(0 0 0)
(0 0 0)
(0 0 0)
(0 0 0)
(0 0 0)
(0 0 0)
(0 0 0)
(0 0 0)
(0 0 0)
(0 0 0)
(0 0 0)
(0 0 0)
(0 0 0)
(0 0 0)
(0 0 0)
(0 0 0)
(0 0 0)
(0 0 0)
(0 0 0)
(0 0 0)
(0 0 0)
(0 0 0)
(0 0 0)
(0 0 0)
(0 0 0)
(0 0 0)
(0 0 0)
(0 0 0)
(0 0 0)
(0 0 0)
(0 0 0)
(0 0 0)
(0 0 0)
(0 0 0)
(0 0 0)
(0 0 0)
(0 0 0)
(0 0 0)
(0 0 0)
(0 0 0)
(0 0 0)
(0 0 0)
(0 0 0)
(0 0 0)
(0 0 0)
(0 0 0)
(0 0 0)
(0 0 0)
(0 0 0)
(0 0 0)
(0 0 0)
(0 0 0)
(0 0 0)
(0 0 0)
(0 0 0)
(0 0 0)
(0 0 0)
(0 0 0)
(0 0 0)
(0 0 0)
(0 0 0)
(0 0 0)
(0 0 0)
(0 0 0)
(0 0 0)
(0 0 0)
(0 0 0)
(0 0 0)
(0 0 0)
(0 0 0)
(0 0 0)
(0 0 0)
(0 0 0)
(0 0 0)
(0 0 0)
(0 0 0)
(0 0 0)
(0 0 0)
(0 0 0)
(0 0 0)
(0 0 0)
(0 0 0)
(0 0 0)
(0 0 0)
(0 0 0)
(0 0 0)
(0 0 0)
(0 0 0)
(0 0 0)
(0 0 0)
(0 0 0)
(0 0 0)
(0 0 0)
(0 0 0)
(0 0 0)
(0 0 0)
(0 0 0)
(0 0 0)
(0 0 0)
(0 0 0)
(0 0 0)
(0 0 0)
(0 0 0)
(0 0 0)
(0 0 0)
(0 0 0)
(0 0 0)
(0 0 0)
(0 0 0)
(0 0 0)
(0 0 0)
(0 0 0)
(0 0 0)
(0 0 0)
(0 0 0)
(0 0 0)
(0 0 0)
(0 0 0)
(0 0 0)
(0 0 0)
(0 0 0)
(0 0 0)
(0 0 0)
(0 0 0)
(0 0 0)
(0 0 0)
(0 0 0)
(0 0 0)
(0 0 0)
(0 0 0)
(0 0 0)
(0 0 0)
(0 0 0)
(0 0 0)
(0 0 0)
(0 0 0)
(0 0 0)
(0 0 0)
(0 0 0)
(0 0 0)
(0 0 0)
(0 0 0)
(0 0 0)
(0 0 0)
(0 0 0)
(0 0 0)
(0 0 0)
(0 0 0)
(0 0 0)
(0 0 0)
(0 0 0)
(0 0 0)
(0 0 0)
(0 0 0)
(0 0 0)
(0 0 0)
(0 0 0)
(0 0 0)
(0 0 0)
(0 0 0)
(0 0 0)
(0 0 0)
(0 0 0)
(0 0 0)
(0 0 0)
(0 0 0)
(0 0 0)
(0 0 0)
(0 0 0)
(0 0 0)
(0 0 0)
(0 0 0)
(0 0 0)
(0 0 0)
(0 0 0)
(0 0 0)
(0 0 0)
(0 0 0)
(0 0 0)
(0 0 0)
(0 0 0)
(0 0 0)
(0 0 0)
(0 0 0)
(0 0 0)
(0 0 0)
(0 0 0)
(0 0 0)
(0 0 0)
(0 0 0)
(0 0 0)
(0 0 0)
(0 0 0)
(0 0 0)
(0 0 0)
(0 0 0)
(0 0 0)
(0 0 0)
(0 0 0)
(0 0 0)
(0 0 0)
(0 0 0)
(0 0 0)
(0 0 0)
(0 0 0)
(0 0 0)
(0 0 0)
(0 0 0)
(0 0 0)
(0 0 0)
(0 0 0)
(0 0 0)
(0 0 0)
(0 0 0)
(0 0 0)
(0 0 0)
(0 0 0)
(0 0 0)
(0 0 0)
(0 0 0)
(0 0 0)
(0 0 0)
(0 0 0)
(0 0 0)
(0 0 0)
(0 0 0)
(0 0 0)
(0 0 0)
(0 0 0)
(0 0 0)
(0 0 0)
(0 0 0)
(0 0 0)
(0 0 0)
(0 0 0)
(0 0 0)
(0 0 0)
(0 0 0)
(0 0 0)
(0 0 0)
(0 0 0)
(0 0 0)
(0 0 0)
(0 0 0)
(0 0 0)
(0 0 0)
(0 0 0)
(0 0 0)
(0 0 0)
(0 0 0)
(0 0 0)
(0 0 0)
(0 0 0)
(0 0 0)
(0 0 0)
(0 0 0)
(0 0 0)
(0 0 0)
(0 0 0)
(0 0 0)
(0 0 0)
(0 0 0)
(0 0 0)
(0 0 0)
(0 0 0)
(0 0 0)
(0 0 0)
(0 0 0)
(0 0 0)
(0 0 0)
(0 0 0)
(0 0 0)
(0 0 0)
(0 0 0)
(0 0 0)
(0 0 0)
(0 0 0)
(0 0 0)
(0 0 0)
(0 0 0)
(0 0 0)
(0 0 0)
(0 0 0)
(0 0 0)
(0 0 0)
(0 0 0)
(0 0 0)
(0 0 0)
(0 0 0)
(0 0 0)
(0 0 0)
(0 0 0)
(0 0 0)
(0 0 0)
(0 0 0)
(0 0 0)
(0 0 0)
(0 0 0)
(0 0 0)
(0 0 0)
(0 0 0)
(0 0 0)
(0 0 0)
(0 0 0)
(0 0 0)
(0 0 0)
(0 0 0)
(0 0 0)
(0 0 0)
(0 0 0)
(0 0 0)
(0 0 0)
(0 0 0)
(0 0 0)
(0 0 0)
(0 0 0)
(0 0 0)
(0 0 0)
(0 0 0)
(0 0 0)
(0 0 0)
(0 0 0)
(0 0 0)
(0 0 0)
(0 0 0)
(0 0 0)
(0 0 0)
(0 0 0)
(0 0 0)
(0 0 0)
(0 0 0)
(0 0 0)
(0 0 0)
(0 0 0)
(0 0 0)
(0 0 0)
(0 0 0)
(0 0 0)
(0 0 0)
(0 0 0)
(0 0 0)
(0 0 0)
(0 0 0)
(0 0 0)
(0 0 0)
(0 0 0)
(0 0 0)
(0 0 0)
(0 0 0)
(0 0 0)
(0 0 0)
(0 0 0)
(0 0 0)
(0 0 0)
(0 0 0)
(0 0 0)
(0 0 0)
(0 0 0)
(0 0 0)
(0 0 0)
(0 0 0)
(0 0 0)
(0 0 0)
(0 0 0)
(0 0 0)
(0 0 0)
(0 0 0)
(0 0 0)
(0 0 0)
(0 0 0)
(0 0 0)
(0 0 0)
(0 0 0)
(0 0 0)
(0 0 0)
(0 0 0)
(0 0 0)
(0 0 0)
(0 0 0)
(0 0 0)
(0 0 0)
(0 0 0)
(0 0 0)
(0 0 0)
(0 0 0)
(0 0 0)
(0 0 0)
(0 0 0)
(0 0 0)
(0 0 0)
(0 0 0)
(0 0 0)
(0 0 0)
(0 0 0)
(0 0 0)
(0 0 0)
(0 0 0)
(0 0 0)
(0 0 0)
(0 0 0)
(0 0 0)
(0 0 0)
(0 0 0)
(0 0 0)
(0 0 0)
(0 0 0)
(0 0 0)
(0 0 0)
(0 0 0)
(0 0 0)
(0 0 0)
(0 0 0)
(0 0 0)
(0 0 0)
(0 0 0)
(0 0 0)
(0 0 0)
(0 0 0)
(0 0 0)
(0 0 0)
(0 0 0)
(0 0 0)
(0 0 0)
(0 0 0)
(0 0 0)
(0 0 0)
(0 0 0)
(0 0 0)
(0 0 0)
(0 0 0)
(0 0 0)
(0 0 0)
(0 0 0)
(0 0 0)
(0 0 0)
(0 0 0)
(0 0 0)
(0 0 0)
(0 0 0)
(0 0 0)
(0 0 0)
(0 0 0)
(0 0 0)
(0 0 0)
(0 0 0)
(0 0 0)
(0 0 0)
(0 0 0)
(0 0 0)
(0 0 0)
(0 0 0)
(0 0 0)
(0 0 0)
(0 0 0)
(0 0 0)
(0 0 0)
(0 0 0)
(0 0 0)
(0 0 0)
(0 0 0)
(0 0 0)
(0 0 0)
(0 0 0)
(0 0 0)
(0 0 0)
(0 0 0)
(0 0 0)
(0 0 0)
(0 0 0)
(0 0 0)
(0 0 0)
(0 0 0)
(0 0 0)
(0 0 0)
(0 0 0)
(0 0 0)
(0 0 0)
(0 0 0)
(0 0 0)
(0 0 0)
(0 0 0)
(0 0 0)
(0 0 0)
(0 0 0)
(0 0 0)
(0 0 0)
(0 0 0)
(0 0 0)
(0 0 0)
(0 0 0)
(0 0 0)
(0 0 0)
(0 0 0)
(0 0 0)
(0 0 0)
(0 0 0)
(0 0 0)
(0 0 0)
(0 0 0)
(0 0 0)
(0 0 0)
(0 0 0)
(0.000391439 0.0570802 -0.0249832)
(0.0489679 0.0342512 -0.0299107)
(0.0265812 0.102191 -0.0155286)
(0.0919556 0.111861 -0.0258178)
(0.0538223 0.0456513 -0.0430677)
(0.0885774 0.137024 -0.0296815)
(0.0639147 0.139223 -0.0327343)
(0.0349238 0.0819761 -0.0353242)
(0.00475591 0.0600074 0.00225827)
(-0.0132684 0.0842441 -0.0248581)
(0.0183569 0.161655 -0.0232126)
(0.0275136 0.156961 0.0125148)
(0.0710008 0.28391 0.018835)
(0.0690764 0.231968 0.00360596)
(0.113178 0.264109 0.00651111)
(0.0922167 0.353592 0.0323926)
(0.119703 0.387262 0.0523146)
(0.12306 0.279597 0.00203666)
(0.0777632 0.284406 -0.0078376)
(0.148866 0.430103 0.0496582)
(0.0982405 0.448601 0.033188)
(0.0209952 0.196101 -0.0349509)
(0.0218039 0.112938 -0.039058)
(0.01974 0.369198 0.0021608)
(0.0248697 0.242802 -0.0408466)
(0.0341343 0.16417 -0.0415746)
(0.0177635 -2.23613e-05 0.00433322)
(0.0333889 -0.0839769 -0.00106811)
(0.0697875 -0.0818738 0.0151293)
(0.0541959 0.0764433 0.01472)
(0.0842781 0.17112 0.0325791)
(0.138281 -0.0331137 0.0170188)
(0.180945 0.0161882 0.00953008)
(0.068544 0.220792 0.030497)
(0.0715669 0.206797 0.0285187)
(0.115612 0.102771 0.0105582)
(0.0900312 0.133873 0.0120483)
(0.123874 0.236823 0.0334117)
(0.155723 0.374993 0.0452413)
(0.0843273 0.141292 0.00713843)
(0.110568 0.207131 0.0189667)
(0.0411702 0.469103 0.0676769)
(0.0404266 0.34377 0.0481781)
(0.114457 0.302897 0.0702265)
(0.0815414 0.244827 0.0850225)
(0.0194963 0.194492 0.0217619)
(0.0383389 0.122552 0.0344823)
(0.0155484 0.0394997 0.00721826)
(0.0271278 -0.0772603 -0.0149442)
(0.0940362 -0.096392 -0.0044243)
(0.0973129 -0.0175646 -0.0142248)
(0.235498 -0.120566 0.0247284)
(0.319109 -0.172727 -0.0083551)
(0.171338 -0.0754976 0.034524)
(0.190843 -0.148411 -0.0266949)
(0.275842 -0.179959 -0.0589934)
(0.329061 -0.0850494 -0.0384755)
(0.253539 -0.13664 -0.0594474)
(0.287849 -0.0638853 0.0252193)
(0.138943 0.0783786 0.0394072)
(0.110239 0.130378 0.035895)
(0.169297 0.0397074 0.0641647)
(0.093671 0.0614512 0.0328478)
(0.102651 0.16038 0.0597311)
(0.0795552 0.120895 0.0484046)
(0.0581253 0.0631203 0.0248021)
(0.0283873 0.0422148 0.0112572)
(0.0445117 0.0547447 0.0182598)
(0.0126285 0.0291533 0.0120562)
(0.021616 0.00944123 -0.000327153)
(0.0435192 0.00750396 0.000377096)
(0.0710048 -0.0157018 0.0291483)
(0.128645 -0.0451739 -0.000339182)
(0.0471498 0.0158105 0.00148125)
(0.144124 0.0769204 -0.00519151)
(0.243064 -0.0178579 -0.00575653)
(0.294529 0.0199794 0.0644104)
(0.263731 0.106036 0.0597493)
(0.244124 0.098269 0.0972952)
(0.164379 0.0511009 0.0598886)
(0.0775954 0.0303637 0.0242334)
(0.117824 0.0523369 0.0435898)
(0.0505621 0.0171757 0.01375)
(0.0359058 0.0234781 0.0144555)
(0.0135758 0.0129171 0.00647116)
(0.01776 0.0064185 0.00736039)
(0.00480512 0.00158056 0.00261369)
(0.00513763 0.00526781 0.00117956)
(0.155105 0.0773402 -0.00999098)
(0.225721 0.0739816 0.051296)
(0.160685 0.069904 0.0598563)
(0.085643 0.0347012 0.0388248)
(0.054999 0.0243403 0.0224221)
(0.0191714 0.00510832 0.00691183)
(0.0384675 0.0108311 0.0214213)
(0.0102397 0.00320315 0.00381297)
(0.00495516 0.0356711 -0.0570169)
(0.0169157 0.0209447 -0.116667)
(0.0154498 0.0370542 0.00198112)
(0.0248331 0.0699835 -0.0388709)
(0.0424316 0.107336 -0.0130905)
(-0.00775845 0.0228935 -0.0677363)
(0.0243003 0.0615094 -0.0956965)
(0.0121577 0.106337 -0.0679779)
(0.0371168 0.120896 -0.0266869)
(0.0284187 0.0853006 -0.0788439)
(-0.0107566 0.0216744 -0.0932152)
(-0.0120626 0.104517 -0.100136)
(-0.0221379 0.0624638 -0.156745)
(0.0218488 0.0498577 -0.103189)
(-0.00895612 0.0300343 -0.190104)
(-0.0168855 0.0625518 -0.0290891)
(0.000282988 0.0268571 -0.090924)
(0.0366816 0.100395 -0.0647278)
(0.0127514 0.104491 -0.0375279)
(0.0792946 0.184391 0.00274454)
(0.0194614 0.0201871 -0.130949)
(0.0591463 0.0644719 -0.121014)
(0.0438604 0.0527485 -0.108591)
(0.105951 0.0846321 -0.0332479)
(0.0180395 0.0862161 -0.142152)
(-0.0100501 0.307385 -0.0410025)
(0.00148293 0.213712 -0.141838)
(-0.0386254 0.115415 -0.233657)
(-0.0119267 0.0432968 -0.249364)
(-0.0302586 0.245076 -0.104611)
(-0.0412469 0.1322 -0.267546)
(0.036158 0.13738 -0.13971)
(0.00713161 0.0742345 -0.289016)
(0.0108453 0.0630288 0.0524938)
(0.0331226 -0.0448206 0.0196874)
(0.0732723 -0.0788611 0.0501241)
(0.0102091 0.0604334 0.0427945)
(-0.00186026 0.0682145 0.00483187)
(0.0229542 0.0595786 0.0253013)
(0.0784697 0.220322 0.107253)
(0.0333624 0.101107 -0.00168766)
(-0.00980198 0.0306205 -0.322854)
(0.158539 0.26791 0.0971414)
(0.119612 0.017432 -0.254413)
(0.0724963 -0.0465826 -0.0574581)
(0.0699477 -0.0139558 -0.0818499)
(0.00942343 0.0510947 -0.0901247)
(0.0479155 0.0214995 -0.100343)
(0.0651407 0.0100762 -0.164814)
(-0.125184 0.0912229 -0.118601)
(0.148627 0.100074 -0.179328)
(0.289267 0.361168 -0.00759208)
(0.10518 0.1771 -0.130174)
(0.271984 0.308337 -0.106698)
(0.0487384 0.0251095 -0.0485832)
(0.0583433 0.046947 -0.140408)
(0.104537 0.0139427 -0.0426297)
(0.0682499 0.0311878 -0.0519848)
(0.161758 0.0657125 -0.0739445)
(0.106961 0.0249295 -0.0306675)
(0.0567968 0.0313908 -0.0814495)
(0.0765186 0.0449688 -0.0993228)
(0.110717 0.0437958 -0.152722)
(0.0178358 0.020251 0.00209794)
(0.045333 -0.0119906 -0.0213856)
(0.0103322 -0.0113714 -0.00833005)
(0.133741 0.065832 -0.260656)
(0.146901 0.470416 -0.0341864)
(0.120461 0.00451346 -0.356042)
(4.30343e-15 -9.50428e-15 -4.10378e-14)
(0.0303285 -0.022667 -0.371838)
(0.18495 0.0799554 -0.0646577)
(0.149818 0.0555953 -0.152282)
(0.302726 0.139937 0.148563)
(0.316699 0.103544 0.162769)
(0.213819 0.0570679 -0.0392335)
(0.336192 0.177593 0.158524)
(0.374651 0.0887327 0.192514)
(0.0287198 0.00942277 -0.0420428)
(0.16904 0.0840914 0.10194)
(0.392069 0.231694 0.211484)
(0.113476 -0.015409 -0.351608)
(0.474938 0.287578 0.190932)
(0.103666 -0.0514566 -0.38325)
(0.0207894 0.0213933 -0.179793)
(0.0188738 0.0203244 -0.263287)
(-0.0213253 0.0223974 -0.14559)
(0.0229576 0.0662069 -0.154472)
(-0.00376122 0.106145 -0.125859)
(-0.0272398 0.0282058 -0.213558)
(0.0236141 0.0660635 -0.223473)
(-0.0211255 0.109325 -0.192589)
(-0.0479174 0.0996797 -0.179244)
(-0.0439562 0.0490098 -0.234428)
(-0.0441048 0.0178418 -0.230524)
(-0.0727603 0.0816103 -0.252128)
(-0.0637055 0.0347964 -0.302677)
(-0.0369176 0.00618551 -0.261758)
(-0.0474437 -0.00182213 -0.322196)
(0.00921799 0.0277097 -0.171116)
(-0.00117057 0.0367464 -0.265528)
(0.0677843 0.0625822 -0.169217)
(0.051665 0.0323126 -0.161702)
(0.111141 0.030945 -0.0451116)
(0.0188452 0.0143036 -0.24644)
(0.0635164 0.0528419 -0.225822)
(0.0127551 -0.0120813 -0.217177)
(0.0656219 -0.0644385 -0.0426988)
(-0.0325006 0.00932695 -0.33053)
(-0.0656147 0.157194 -0.264767)
(-0.0484317 0.0498984 -0.381308)
(-0.0624771 0.0307363 -0.384117)
(-0.0354437 -0.0151782 -0.394528)
(-0.00612123 0.047788 -0.309341)
(-0.0372377 -0.0176539 -0.449652)
(-0.0189573 -0.00750145 -0.420744)
(-0.0390032 -0.0719108 -0.480206)
(0.0342604 0.0693143 -0.0272084)
(-0.00308684 0.142863 -0.101372)
(0.0383278 0.136052 -0.0494918)
(0.0338134 0.0366916 -0.140398)
(0.0122469 0.15106 -0.294285)
(0.0434242 0.111669 -0.197588)
(0.252963 0.2627 0.0324545)
(0.0404173 0.0303251 -0.233142)
(-0.039824 -0.0589707 -0.393135)
(0.0897542 0.0567237 -0.123322)
(0.00252867 -0.0238801 -0.215539)
(0.0504266 0.0658116 -0.23864)
(0.0707049 0.036533 -0.261788)
(0.011366 0.108593 -0.47861)
(0.0258997 0.059678 -0.430558)
(0.0456338 0.0523309 -0.389358)
(0.141852 0.133018 -0.102175)
(0.0794621 0.0133974 -0.248367)
(0.105059 0.0381163 -0.132132)
(0.0609546 -0.0202158 -0.212513)
(0.0836528 -0.00976077 -0.20936)
(0.0719762 0.0571215 -0.2535)
(0.0553962 0.0799434 -0.388926)
(-0.0458393 0.0341715 -0.242145)
(0.0969682 0.0529961 -0.204336)
(-0.00155029 -0.00663219 -0.319609)
(0.0406472 0.0787575 -0.402562)
(-0.0720766 0.0312121 -0.480378)
(0.0613766 0.069229 -0.434139)
(-0.0841185 -0.0202697 -0.459618)
(0.112637 -0.0293823 -0.278359)
(0.113707 0.00109417 -0.312132)
(0 0 0)
(0.101836 0.0023581 -0.219976)
(0.0902952 -0.0373852 -0.193386)
(0.109595 0.000364662 -0.252246)
(0.0214709 -0.0838719 -0.197925)
(0.0201097 -0.0308564 -0.254782)
(0.039815 -2.78811e-05 -0.302319)
(-0.0586137 -0.0382237 -0.417114)
(0.0861739 0.0363863 -0.219598)
(0 0 0)
(0 0 0)
(0.0762237 0.0342298 -0.216383)
(0.083426 0.0396644 -0.212369)
(0.105524 -0.0170899 -0.293504)
(0 0 0)
(0.0927207 0.016722 -0.212017)
(0.0999793 -0.0234417 -0.25026)
(0.083426 0.0396644 -0.212369)
(0.104576 -0.0451389 -0.27404)
(0.0241545 0.0155238 -0.344537)
(0.00832722 0.00133772 -0.45135)
(-0.017043 0.0293267 -0.305117)
(0.0160926 0.0419046 -0.344689)
(-0.0215471 0.0654755 -0.33596)
(0.0152006 0.000351978 -0.466348)
(0.000251391 0.00385252 -0.470955)
(-0.0103627 0.0019556 -0.457223)
(-0.0933976 0.0504685 -0.338257)
(-0.0632265 0.00858754 -0.353511)
(-0.0271639 0.00932529 -0.410464)