/*--------------------------------*- C++ -*----------------------------------*\
| =========                 |                                                 |
| \\      /  F ield         | OpenFOAM: The Open Source CFD Toolbox           |
|  \\    /   O peration     | Version:  5.x                                   |
|   \\  /    A nd           | Web:      www.OpenFOAM.org                      |
|    \\/     M anipulation  |                                                 |
\*---------------------------------------------------------------------------*/
FoamFile
{
    version     2.0;
    format      ascii;
    class       volScalarField;
    location    "0.3";
    object      Ksl;
}
// * * * * * * * * * * * * * * * * * * * * * * * * * * * * * * * * * * * * * //

dimensions      [1 -3 -1 0 0 0 0];

internalField   nonuniform List<scalar> 
10571
(
1829.34
2589
4349.79
2979.08
3655.26
2972.76
1551.95
997.183
5240.43
5775.43
1516.08
1714.91
4140.89
812.28
4483.69
5540.08
3018.53
2810.54
1984.93
4166.35
5508.48
1400.46
3282.56
3676.28
41.3159
72.3773
35.3483
24.0116
44.6757
8.37544
135.151
62.4734
50.202
165.675
20.4193
1.15402
81.0347
49.6247
66.606
576.384
63.7068
20.7053
19.1846
158.84
75.8449
152.547
39.5107
102.969
30.3269
118.798
29.8091
13.1247
29.982
5.02972
12.697
11.6351
28.5765
91.4398
20.9397
5.16557
12.5738
1.41118
23.7671
741.62
64.8902
12.9622
7.53092
0
26.0102
57.329
9.52136
122.395
0
94.2305
45.7205
59.0611
129.401
8.84097
10.3706
9.12258
19.3492
117.212
0
3.55655
10.2285
2.0469
17.7008
692.813
96.6498
5.0583
2.55344
0
134.243
75.2994
10.5803
198.288
0
124.601
63.6481
58.9438
76.9491
14.7246
19.0575
3.82002
21.4578
102.414
1.37188
42.4362
9.69902
8.27922
17.1613
597.342
29.009
10.3275
0.143469
0
75.6841
49.5048
8.89908
276.867
0
141.117
44.6313
60.3432
93.4118
0
5.58504
7.14832
11.8695
75.618
5771.98
19.6041
18.6375
6.45076
22.8841
15.9738
867.291
10831.1
15.8612
16.981
3.20395
3.81085
126.649
42.4994
55.8988
295.231
0
72.5628
91.4501
82.7509
92.6719
0.224957
1.37199
0.182285
13.1057
115.766
1.78085
0
178.397
7.95717
12.2152
43.2774
615.355
0
46.3889
10.4181
8.61294
0
121.071
0
30.8767
25.246
172.428
-1.76392e-14
37.7094
56.6499
32.5822
73.5992
37.9419
0.014194
58.8394
10.3962
156.788
0
0.973694
89.7566
2.20753
222.523
37.491
651.734
0
33.9354
8.5651
38.4627
0
82.2721
0
103.226
54.6881
176.194
0
84.7093
177.433
25.2453
84.5365
15.6184
0.878053
21.6445
9.59486
50.4884
0
15.0169
48.3533
2.23322
73.818
10.7986
447.54
0
5.42172
7.78833
34.8786
5.50617
139.766
46.1413
47.3676
211.446
0
74.4543
36.9717
51.6287
77.3085
10.3215
3.9232
42.1211
7.96581
86.3384
-5.83026e-15
347.155
7.81767
68.8018
11.4539
722.021
29.3179
15.8932
68.9759
4.06658
332.759
92.1074
101.294
244.588
1.83513
47.8134
24.7982
69.7848
15.687
18.2752
18.8335
66.0793
9.44282
73.3779
19.6654
109.715
25.5228
58.8812
4.26703
846.527
28.5738
49.8204
91.0782
10.8454
500.371
68.3616
124.947
379.845
21.6818
75.7033
21.0771
79.5706
48.6887
56.1482
59.7995
36.7264
20.8882
41.3657
72.6326
72.0073
40.8296
21.9918
15.1419
1787.33
14.931
121.457
217.846
12.5142
2004.3
80.1475
136.975
719.863
8.58886
37.8563
11.1849
79.9981
41.0905
6.16163
66.2938
57.7693
112.086
69.7658
24.8135
21.0945
160.665
141.42
615.389
5034.24
9.79826
162.957
482.719
74.0952
4487.43
35.1507
209.965
1132.45
25.5339
25.0476
19.0515
62.3774
67.8656
40.3373
121.687
24.0699
30.4947
61.5473
3.34305
16.3822
119.206
316.59
1305.31
10041.8
12.2746
168.204
481.763
1049.14
5529.66
49.2973
119.861
3030.58
0
53.3129
56.4287
17.4348
50.7568
0.247158
191.207
11.9807
5.35651
58.6784
65.77
21.0379
109.114
87.9068
1351.57
8497.48
5.39132
158.763
314.586
6751.3
5042.35
53.1051
123.292
3425.99
0
29.4095
16.8318
54.0664
56.4223
21.0564
82.6676
82.7886
1.3951
100.057
169.521
2.27875
92.9632
47.0915
1031.92
10215.7
27.6867
78.5803
198.895
6160.52
4643.69
39.8268
85.31
3663.38
24.0866
36.3665
22.5028
36.4404
96.0104
19.4237
28.8364
103.039
16.5304
210.593
16.5126
6.02148
21.6658
43.3843
767.914
9246.93
14.5313
34.4477
144.372
5002.96
5587.01
27.8271
41.7095
4319.2
0
5.52091
6.38943
35.1622
116.589
32.4683
0.631169
31.205
71.6405
197.546
0
1.1531
3.11013
44.4863
541.633
5889.06
12.9921
27.0452
127.537
4484.1
4694.48
23.4057
23.9601
3785.12
22.9942
36.1306
58.4334
8.87926
5.88847
49.3388
0.635664
0.159631
3.42482
5.01548
18.0206
0
4.80692
6.87624
402.597
5341.32
21.9349
23.5925
123.773
3038.33
4040.04
7.38914
4.012
4507.77
22.7895
23.7439
12.2639
10.2215
18.6186
29.3737
0
0
2.01705
20.0422
47.5889
13.3017
0.61507
1.52145
341.732
1807.64
40.6524
21.2524
95.4795
2816.3
5260.76
6.79096
8.19731
4609.73
0
3.01503
32.0752
13.7633
2.35777
31.3197
5.95276
0
6.67795
40.4045
-8.76169e-16
57.7454
0
0
229.707
722.864
13.7874
14.602
49.9101
1817.49
4594.75
20.5246
12.098
4609.64
0
21.7441
26.1309
-3.40951e-15
15.5132
36.8515
6.84709
0
2.03426
60.7283
-1.80071e-15
21.5744
0.62462
1.0276
196.705
182.793
10.3201
11.879
8.35559
1077.17
4271.29
52.5247
5.98028
3591.58
12.8627
17.2195
24.5559
5.82324
26.3856
33.2832
18.0815
0.654474
1.98679
30.3813
19.5132
7.87729
0.62443
0
184.191
15.2574
10.2867
7.01045
2.58559
943.724
4491.63
70.7875
2.83356
1299.51
37.2592
37.4517
52.8964
14.6926
27.6886
82.5485
18.1632
0
0.65008
35.702
0
6.42771
0.623069
1.10075
148.972
42.8902
0
8.21594
3.23547
1060.03
11738.7
29.9467
10.76
489.916
-3.97551e-15
53.4354
51.5481
14.9512
11.768
54.5989
15.4907
0.653773
1.36192
25.1351
0
20.7644
1.13875
1.70466
116.126
28.3404
5.18543
3.41335
1.63243
1073.47
6242.88
27.0942
32.9987
313.485
105.862
31.3381
55.2518
13.7701
22.6425
64.9481
20.3704
4.52623
1.39548
28.7071
0
4.92481
16.1286
3.49004
54.9924
39.2732
16.8565
4.03388
2.97216
1015.08
4821.91
63.3735
20.2752
242.646
19.6784
22.2061
52.9054
10.6893
29.4814
26.6978
10.9398
5.92683
2.77015
20.6758
0
11.781
16.1026
3.60919
28.909
41.1666
13.7452
3.5392
6.56941
878.911
2187.03
53.9601
60.53
339.245
39.2187
31.8918
39.0908
14.8561
39.6111
24.5733
5.74991
7.97881
2.28952
15.3482
19.8026
0.167312
14.9368
2.41097
28.5006
61.4717
18.8013
6.44975
13.4119
528.683
2063.51
69.7435
103.831
657.725
67.6256
46.6943
69.2629
23.2233
51.8128
76.5321
10.6441
13.5854
3.0955
55.3171
20.2746
2.72079
4.51591
7.29352
37.1562
94.8684
10.4924
4.62089
26.6165
173.895
1841
87.5941
115.943
852.148
17.5713
183.958
34.0048
28.3878
44.0171
56.3524
9.1992
9.29983
9.24377
109.757
38.7465
4.5087
4.70423
9.23288
38.0672
119.815
5.2084
5.96992
29.2983
115.821
2422.46
116.283
144.194
874.593
116.733
289.895
26.6375
5.52428
51.8331
37.5379
8.32943
6.18055
14.5354
199.632
36.9164
19.6892
4.92477
13.1395
17.5875
149.765
26.039
7.11821
20.191
75.8201
2802.28
169.398
188.048
1034.61
511.174
2176.71
337.5
0
481.333
133.859
2.44707
8.36886
9.9036
711.894
47.8891
10.7944
2.76109
11.8222
30.6521
100.889
28.2189
4.01607
13.6994
106.32
1872.02
595.842
150.941
473.647
1478.32
632.193
102.2
1.26271
4461.02
1484.56
4.31062
9.36405
3.87477
594.59
87.6645
42.4711
1.42088
8.78988
42.6785
101.554
25.1261
10.2576
20.0073
65.7779
881.292
1520.84
130.72
223.118
0.0720245
20.3661
14.8035
-1.22336e-15
0
8.1104
9.6852
6.62396
6.47643
156.503
97.3424
729.254
19.5524
11.5262
45.9829
127.381
1038.89
59.0884
34.4261
70.0474
385.997
298.663
65.9458
114.916
7.80328
43.6337
59.0454
0
0
5.11125
5.55493
1.46557
7.25121
73.4808
18.2389
76.9521
41.0496
2.22648
43.4684
65.045
115.609
44.0278
29.9075
75.3273
362.65
71.7739
60.6794
70.56
0
0
322.455
0
2.55049
15.429
6.12857
0
2.66379
43.3768
40.6969
2.49322
16.7258
2.71499
31.2053
48.4573
1.86211
19.5418
23.4339
32.7484
319.192
28.2057
90.8214
82.3255
0
0
0.139439
0
2.98516
0
1.99191
0
2.75278
41.527
14.5763
15.7379
14.5438
2.89118
12.1533
97.0374
0
9.20875
11.5619
25.6323
420.325
62.5032
66.1356
127.06
0
0
0
5.94342
16.7336
0
7.03479
0
0
56.6238
0
0.332355
3.9384
0.719069
3.70655
59.3455
0
9.18891
0.704181
10.7138
445.62
24.8278
42.4928
117.541
0
0
0
28.1405
24.1405
0
196.761
13.3983
0
51.8629
0
0
8.24291
1.99148
0.851745
51.6987
0
45.9124
5.46121
0
484.616
2.53087
124.728
161.366
0
0
0
0
0
0
26.2546
142.756
55.5145
74.0368
0
0
83.4175
102.077
151.729
82.1209
0
66.9607
84.43
13.8094
445.285
0
22.0485
146.562
0
0
0
0
0
0
0
27.0659
72.7798
0
0
0
3.31868
28.4883
48.0583
0
0
0.923352
54.1511
39.143
0
0
0
0
0
0
0
0
0
0
0
0
0
0
0
0
0
0
0
0
0
0
0
0
0
0
0
0
0
0
0
0
0
0
0
0
0
0
0
0
0
0
0
0
0
0
0
0
0
0
0
0
0
0
0
0
0
0
0
0
0
0
0
0
0
0
0
0
0
0
0
0
0
0
0
0
0
0
0
0
0
0
0
0
0
0
0
0
0
0
0
0
0
0
0
0
0
0
0
0
0
0
0
0
0
0
0
0
0
0
0
0
0
0
0
0
0
0
0
0
0
0
0
0
0
0
0
0
0
0
0
0
0
0
0
0
0
0
0
0
0
0
0
0
0
0
0
0
0
0
0
0
0
0
0
0
0
0
0
0
0
0
0
0
0
0
0
0
0
0
0
0
0
0
0
0
0
0
0
0
0
0
0
0
0
0
0
0
0
0
0
0
0
0
0
0
0
0
0
0
0
0
0
0
0
0
0
0
0
0
0
0
0
0
0
0
0
0
0
0
0
0
0
0
0
0
0
0
0
0
0
0
0
0
0
0
0
0
0
0
0
0
0
0
0
0
0
0
0
0
0
0
0
0
0
0
0
0
0
0
0
0
0
0
0
0
0
0
0
0
0
0
0
0
0
0
0
0
0
0
0
0
0
0
0
0
0
0
0
0
0
0
0
0
0
0
0
0
0
0
0
0
0
0
0
0
0
0
0
0
0
0
0
0
0
0
0
0
0
0
0
0
0
0
0
0
0
0
0
0
0
0
0
0
0
0
0
0
0
0
0
0
0
0
0
0
0
0
0
0
0
0
0
0
0
0
0
0
0
0
0
0
0
0
0
0
0
0
0
0
0
0
0
0
0
0
0
0
0
0
0
0
0
0
0
0
0
0
0
0
0
0
0
0
0
0
0
0
0
0
0
0
0
0
0
0
0
0
0
0
0
0
0
0
0
0
0
0
0
0
0
0
0
0
0
0
0
0
0
0
0
0
0
0
0
0
0
0
0
0
0
0
0
0
0
0
0
0
0
0
0
0
0
0
0
0
0
0
0
0
0
0
0
0
0
0
0
0
0
0
0
0
0
0
0
0
0
0
0
0
0
0
0
0
0
0
0
0
0
0
0
0
0
0
0
0
0
0
0
0
0
0
0
0
0
0
0
0
0
0
0
0
0
0
0
0
0
0
0
0
0
0
0
0
0
0
0
0
0
0
0
0
0
0
0
0
0
0
0
0
0
0
0
0
0
0
0
0
0
0
0
0
0
0
0
0
0
0
0
0
0
0
0
0
0
0
0
0
0
0
0
0
0
0
0
0
0
0
0
0
0
0
0
0
0
0
0
0
0
0
0
0
0
0
0
0
0
0
0
0
0
0
0
0
0
0
0
0
0
0
0
0
0
0
0
0
0
0
0
0
0
0
0
0
0
0
0
0
0
0
0
0
0
0
0
0
0
0
0
0
0
0
0
0
0
0
0
0
0
0
0
0
0
0
0
0
0
0
0
0
0
0
0
0
0
0
0
0
0
0
0
0
0
0
0
0
0
0
0
0
0
0
0
0
0
0
0
0
0
0
0
0
0
0
0
0
0
0
0
0
0
0
0
0
0
0
0
0
0
0
0
0
0
0
0
0
0
0
0
0
0
0
0
0
0
0
0
0
0
0
0
0
0
0
0
0
0
0
0
0
0
0
0
0
0
0
0
0
0
0
0
0
0
0
0
0
0
0
0
0
0
0
0
0
0
0
0
0
0
0
0
0
0
0
0
0
0
0
0
0
0
0
0
0
0
0
0
0
0
0
0
0
0
0
0
0
0
0
0
0
0
0
0
0
0
0
0
0
0
0
0
0
0
0
0
0
0
0
0
0
0
0
0
0
0
0
0
0
0
11232.2
11790.4
12316.7
12346.1
10736.8
11652.5
12338.4
14001.5
11149.2
11652.7
12772.4
11697.4
10582.1
10969
11055.6
9166.05
8196.01
11679.6
11790.7
8791.95
10417
11998.5
12439.2
9158.05
10904.3
11493.6
12166.2
10996.3
11265.7
10889.2
7343.15
11147.8
9774.73
9344.6
8874.26
7926.4
10336.4
8431.58
8409.08
10490.1
9174.57
7968.03
9393.59
9864.63
8677.54
11192
10153.3
13034
11236.9
12359.5
11975.3
11844.4
9212.46
11647.5
11042.2
7533.14
9188.72
10631.8
10405.1
10691.1
9133.46
11121.8
9709.58
9142.65
8430.35
8109.27
9303.15
9952.71
12254.9
10933.5
12188.2
11716.5
10572
11776.9
11144
10071.2
11215
9480.25
11934.9
11696.1
11243.4
11504.6
10716.9
9146.45
10641.2
11523.5
11578.3
11967.9
10308.3
10810.9
11942.8
10717.8
11844.3
11413.4
11085.2
11839.2
1788.64
72.1961
1778.45
1770.58
1306.31
46.2426
116.668
124.554
3051.02
1576.73
389.625
287.926
180.412
3211.09
97.8944
1292.58
126.403
3087.88
3202.81
1717.98
82.1548
103.692
307.456
239.505
3465.62
3583.62
4729.69
1021.16
209.143
4546.45
471.289
5550.16
182.959
1152.29
2613.36
1408.18
92.1664
45.0544
67.2692
5047.18
5547.27
264.953
692.848
314.747
1642.12
1656.46
107.475
131.837
124.517
5710.08
5872.4
683.554
348.876
181.238
1681.5
73.8952
3362.53
2832.05
3323.55
266.84
475
171.161
182.157
4335.24
3716.12
3488.78
5710.17
465.192
405.771
232.445
101.782
1727.1
243.715
2733.9
3005.85
110.966
236.359
732.716
3611.3
3106.98
1023.9
542.892
1957.27
333.209
60.1774
46.2767
30.145
53.8811
45.7568
17.6848
37.6887
27.0312
41.7185
44.5929
20.9685
48.417
31.5943
57.1277
23.2868
42.1079
26.8143
34.75
25.3232
92.3869
66.8725
61.9142
48.9455
62.6895
167.963
72.7536
43.8211
24.7869
51.3612
4.55625
59.8159
139.799
139.562
41.8476
0
34.1644
37.969
0
39.6626
353.173
121.54
114.163
278.39
148.431
51.7671
40.1263
3.01186
44.778
40.2685
189.52
156.64
686.317
162.767
103.217
44.717
82.911
40.6355
119.8
126.966
73.9884
5.07405
119.782
66.8857
61.0444
66.5254
126.188
3.64116
22.4367
71.5249
152.94
63.2685
274.394
214.329
24.8268
0
101.293
8.60053
0
95.551
0.43186
57.1901
88.3853
3.2655
114.404
75.6351
78.0736
-1.65341e-14
69.1469
54.3967
19.9509
37.9952
73.3636
42.7474
56.338
0.4547
44.4242
31.3084
39.4107
74.4719
69.3221
53.3265
49.6384
30.981
26.437
75.7639
65.1372
29.3888
21.1037
132.415
34.3212
90.8724
66.1065
108.716
25.3024
82.0559
88.8876
63.8199
25.8939
18.4696
30.9633
52.1061
0
41.3887
219.272
168.187
68.5067
335.049
141.459
28.217
29.5997
0
50.3088
39.6518
290.509
79.22
589.9
253.826
130.385
41.0868
52.3124
14.6623
110.356
90.5882
28.8482
19.4764
76.469
42.8696
23.9748
71.2895
75.2966
0
27.1044
81.3107
94.5147
94.3971
261.868
183.05
30.2133
0
79.3792
27.9612
0
91.7871
15.2707
9.46166
78.4382
0
152.155
100.627
64.9297
38.744
32.5451
51.2512
21.201
48.051
25.236
38.1294
28.7299
0
35.886
15.6949
76.103
24.2209
48.2324
27.9227
121.894
40.6959
36.7738
116.691
96.0538
41.1521
25.6321
82.365
37.9843
47.9395
77.1583
59.6539
9.51453
44.9893
24.2602
42.0718
44.0376
0
24.8323
31.7158
17.0516
26.2444
317.957
183.994
94.9012
364.339
304.52
42.4174
12.8828
4.01903
27.4229
12.4876
379.36
138.136
602.969
468.892
117.866
32.4749
29.3674
-1.04075e-14
64.8594
56.8763
46.7082
6.13727
36.3162
59.3887
53.1076
77.8893
104.667
5.17735
52.9478
57.7697
89.8951
110.881
183.728
227.519
20.3222
0
71.1614
5.21858
0
61.15
7.50222
5.72532
106.35
-1.13105e-15
233.748
92.6862
53.4108
-1.78733e-14
36.2381
28.169
19.8212
39.0285
59.6331
51.2183
77.8417
31.0655
68.3487
31.1471
65.375
28.1026
23.157
80.7628
152.324
40.7488
60.1241
138.416
115.706
30.102
100.319
135.351
37.5706
26.767
66.1132
63.1161
57.0024
32.7259
34.3137
42.969
11.2744
2.64309
24.4222
49.8037
0
21.9475
302.501
389.691
71.0842
239.33
200.842
28.4847
9.93671
0
31.8035
6.16787
729.836
90.548
635.464
803.029
124.875
19.9343
28.3519
15.4515
76.5238
75.2969
28.4697
7.37633
83.0369
124.066
28.261
74.3695
63.3424
0
17.3232
43.0953
62.4153
106.664
205.07
235.765
11.1878
0
49.003
13.6338
0
113.33
18.2323
17.1127
145.035
10.8746
154.737
97.3883
24.2739
0
55.7632
13.4964
0
29.0858
27.0252
26.4795
27.2991
0
27.0415
20.1302
8.44027
34.1165
80.7824
49.9892
92.4986
42.449
108.894
121.927
96.0751
50.5651
67.8325
66.4184
31.4265
26.8496
165.119
68.109
20.0986
52.1949
38.3005
43.4723
31.8567
0
27.0935
18.3447
0
9.75257
277.132
187.352
3981.2
95.0382
54.1172
132.313
159.379
7840.14
10742.1
16052.1
35.2642
380.681
167.217
1094.36
35.2969
9.3071
0.481973
17.0848
13.5287
7007.86
105.933
267.453
736.101
422.321
122.154
61.3537
15355.9
7221.28
13882.1
180.215
988.322
53.8656
361.549
10.1062
-9.11503e-15
1.08811
80.1653
113.813
27.2611
5.64792
97.0298
136.023
38.3665
100.708
93.5626
0
42.3136
68.7149
64.3153
103.356
267.578
208.923
20.8632
20.1946
56.2354
23.7168
0
101.936
53.8887
95.4081
157.124
32.4464
294.666
55.7933
124.881
0
47.9145
28.3355
27.3251
41.0484
39.0737
10.1719
19.9682
25.0963
14.9936
19.5238
73.3025
38.2656
76.1949
34.0614
106.628
66.7781
88.184
104.139
123.602
43.3155
103.156
63.1304
61.7518
27.7279
66.8485
28.2234
67.7341
20.9673
13.1343
0
30.0897
0.11267
0
0
0
0
25.3889
0
46.8469
21.5179
41.7396
27.7659
37.6513
154.007
116.576
97.7662
54.5359
140.65
125.139
0
0
0
0
-8.22078e-17
0
0
12.9379
30.7335
41.3857
21.3552
38.6119
387.641
153.247
38.1311
674.797
355.844
246.076
115.374
0
0
2.13522
0
0
2.21937
0
31.9465
59.6132
5.64592
61.0364
81.3122
39.6015
0
37.9534
85.933
54.0466
60.843
83.0251
6.29436
50.9006
85.0049
53.9156
0
94.1411
9.36802
0
0
0
152.589
234.316
9.75284
0
84.1506
17.5722
0
184.812
0
63.7624
166.778
58.1354
179.703
108.16
89.7795
33.5238
50.0114
84.1754
0
13.6472
70.0182
5.03286
34.5274
0
20.559
45.3188
3.91299
53.2044
29.5029
43.594
115.599
31.4916
94.503
58.7556
149.813
47.6682
144.573
50.4334
6.27822
28.5626
68.7725
31.9629
2.33006
34.6219
54.9334
0
30.5644
0
0
0
0
0
39.2347
20.0666
45.6004
12.2248
0
66.8933
95.0263
146.402
154.328
84.2188
75.9924
122.105
189.764
2.04253
0
0
0
0
0
0
25.1477
28.4095
26.5705
31.0815
44.4439
348.146
249.883
118.542
669.117
451.331
268.502
103.296
0
0
0
0
0
0
0
46.0874
63.0015
11.6187
68.5352
72.8547
13.1312
22.8344
95.7926
74.1953
62.5988
56.4606
55.0466
5.83189
66.5948
50.2415
44.6958
-3.57277e-15
174.807
0
0
0
0
246.501
273.415
10.1296
0
61.2682
23.2298
19.8118
220.893
0
41.7395
185.492
27.5006
212.099
61.6883
78.6239
20.2706
42.562
51.8923
45.1037
31.1424
59.1443
19.5835
64.5162
20.4136
51.8363
87.0396
71.9641
36.7039
61.1981
0.338738
119.518
36.423
156.19
50.2133
34.2531
31.917
197.408
18.7106
17.4015
21.19
85.612
67.5569
8.82584
0.859685
22.1332
16.0225
66.8675
20.3661
51.3937
46.0817
0
94.2772
42.6415
99.8741
241.455
95.7416
60.9594
173.488
281.97
0
0
0
0
0
0
0
59.0115
20.9521
45.5749
106.178
48.1961
668.783
293.396
196.171
720.168
702.247
384.637
170.408
0
0
0
0
0
0
0
53.4074
67.8967
22.806
85.5982
122.685
33.5773
40.4382
85.0575
131.35
83.8798
42.3995
65.1373
6.16429
82.5919
45.889
124.554
187.637
204.674
310.365
26.4667
19.6982
102.134
28.9549
4.08059
183.723
18.0979
66.0104
214.348
2.6381
248.388
54.4713
57.7393
24.8227
27.7135
22.185
20.0282
8.58249
28.533
63.0621
91.7582
5.55152
35.6608
36.3555
76.1376
71.1752
36.7876
22.2282
40.049
56.6317
196.877
91.7682
76.5477
71.4157
139.619
52.4525
10.308
41.2607
50.4989
15.37
58.4924
28.8221
8.88858
48.1945
32.2491
0
56.8029
10.9278
0
31.8541
166.024
384.695
79.0042
146.516
940.764
76.2235
53.6374
38.0899
40.8136
55.0598
878.902
409.971
671.863
2126.31
509.16
101.556
56.8057
39.3262
142.526
145.334
29.2282
58.7855
94.2364
277.108
100.568
33.4489
90.4673
-4.30652e-15
80.0391
70.2117
95.7323
422.311
203.034
206.93
20.3615
0
111.217
24.1839
47.5166
189.917
25.0501
113.363
177.185
30.8086
342.834
114.722
61.8048
63.039
46.3428
28.7841
58.4375
33.6954
41.4207
16.2706
16.1621
21.0527
30.9873
44.6191
37.0045
93.5968
73.2837
26.6986
65.8175
65.731
122.603
102.187
35.2772
40.1699
110.558
48.5319
28.675
22.1077
34.2744
51.5484
9.82151
24.9082
36.7241
5.4158
24.6307
0
39.3487
17.9149
0.887816
19.8913
170.557
1148.41
72.1455
176.915
1154.32
28.2462
33.3647
77.9717
75.1966
49.0271
3999.29
670.817
1198.83
4728.44
1258.43
35.604
50.1297
35.152
96.2848
235.231
32.0781
23.014
98.2548
254.774
90.2535
63.0566
251.598
8.84661
110.541
94.2312
324.991
1167.75
107.973
146.137
38.6571
16.8365
47.5545
60.2528
38.8643
160.708
45.0046
78.7293
126.145
100.831
424.519
34.0567
38.92
40.178
30.8266
39.2518
60.0867
45.8932
27.6902
21.3628
31.5691
40.4031
30.5714
41.1745
108.938
37.3336
97.6548
38.3565
38.8869
52.7935
88.2685
59.1898
45.0376
46.1621
29.7007
53.2638
3.73851
13.0182
47.1939
46.4371
5.59119
45.9164
0.67135
76.4689
16.9756
0
28.1459
30.8982
0
18.4102
188.944
1007.44
93.6827
246.035
962.592
36.6579
67.6727
40.2722
12.5759
7.5971
3948.36
2499.12
2732.81
4239.3
3173.07
33.7269
40.018
61.4585
59.3741
196.125
21.7416
103.165
36.9311
219.674
221.501
160.654
512.479
19.6632
522.529
248.246
1452.96
3477.89
153.556
124.939
117.098
28.7694
47.8907
178.395
35.6842
156.164
55.7721
152.228
114.823
111.982
728.416
19.8481
21.6668
19.4171
30.6998
27.3279
19.792
45.8283
45.628
15.9588
54.3358
14.3373
15.7282
42.9585
64.0544
100.043
27.3955
67.663
33.2053
16.6232
34.388
52.8578
42.9496
42.8011
16.1131
48.858
0
25.6952
42.77
56.0622
0
34.8452
22.3605
60.5074
37.006
22.4126
50.7605
33.8811
50.1416
40.1593
235.142
853.566
90.963
227.153
1106.79
6.49059
18.9134
40.0714
0
26.0265
5607.89
5511.41
7167.53
5571.33
8255.3
49.4126
124.257
50.7251
59.9418
274.757
15.6439
34.6075
69.0861
139.144
1584.22
544.517
3672.35
139.884
4429.49
1114.8
4881.11
4544.7
227.168
253.354
98.0965
124.024
48.6331
47.7405
80.1015
131.284
163.66
205.923
136.866
83.3288
1755.74
100.597
81.6608
55.4604
81.487
6.65455
44.7755
25.5849
36.2945
16.5749
25.188
-1.97245e-14
16.0254
33.0006
109.059
75.0365
11.8439
39.9739
62.7398
58.3572
26.2432
63.5511
64.7201
51.5959
28.1425
66.8136
0
6.7715
11.9007
57.6107
0
19.4484
0.441783
0
17.9713
40.0338
28.7404
39.6239
21.2761
16.7979
221.02
1019.09
47.4713
252.652
834.733
19.4795
13.3556
28.1012
29.2856
8.99396
5135.15
9472.94
11097.5
4821.39
9758.06
89.4995
63.5308
36.1036
47.3741
149.787
15.9586
12.4549
41.812
110.742
8426.77
3877.92
5552.27
4600.82
11027.2
10135.4
5124.73
5136.36
82.3673
154.875
22.1199
118.365
15.8041
18.7656
139.006
161.509
141.997
98.214
317.937
122.677
5088.56
80.5813
54.5919
74.0348
27.3721
37.5903
44.6316
36.2296
49.6053
12.9544
28.2945
0
17.8861
55.151
90.907
51.6579
57.2228
38.0468
62.4963
69.4791
40.2074
58.3667
32.8437
46.8896
42.4142
91.6951
2.86472
38.7896
28.9123
99.7474
9.50864
11.4573
31.054
17.6682
39.2183
0.84629
35.9261
46.0401
21.55
36.2254
260.306
986.837
43.2576
233.668
1154.82
33.8446
19.0616
124.438
11.6611
2.20993
4663.29
9517.53
9275.77
3251.06
14575.4
85.7702
58.0063
1.29677
65.4768
44.8244
13.9864
0
34.7739
43.8942
13726.5
12924.1
4418.83
7821.96
5965.24
5976.8
5023.1
4116.41
107.518
73.8216
33.5562
217.895
27.7853
44.1424
138.486
560.547
92.2122
82.1552
818.774
321.116
7089.09
28.9538
9.2397
99.8597
48.6855
89.212
23.8228
45.8715
32.3927
38.8091
30.6728
30.3726
40.2139
31.5828
233.036
228.389
82.9805
55.3451
29.9784
50.5068
64.4616
54.3298
25.5005
88.4376
32.7206
121.803
-5.4031e-15
10.8106
56.2143
142.854
5.8849
22.4035
12.1087
33.7001
13.561
44.3178
11.9894
26.329
-6.7432e-15
22.8574
229.577
1171.29
58.9065
272.53
977.801
40.1073
13.6023
18.3725
52.6614
26.8199
3069.36
8408.76
11043.5
7003.72
7819.49
19.9364
27.4774
0
56.0854
49.2223
23.7892
0
60.751
55.8159
7546.83
10626.3
5159.09
5276.12
11867.4
9516.22
5623.02
4490.9
93.429
24.0948
62.8324
113.04
40.0157
17.5037
29.3458
1018.36
329.051
85.7562
1123.32
58.5892
5503.72
45.4476
34.0418
20.1454
24.6051
29.0005
19.915
29.1072
11.1084
22.7752
30.0828
22.3937
16.4052
44.5517
223.147
159.52
68.9433
28.4947
31.3422
28.162
29.3897
45.7069
41.0708
63.9845
27.1875
172.919
19.0574
44.9591
178.978
698.649
58.9445
206.752
178.196
644.83
19.8913
0
35.4348
35.0681
0
36.6829
227.001
585.49
275.489
179.742
188.311
18.7587
22.7745
36.7116
15.9884
7.63955
2738.7
9691.34
9547.56
1698.94
4978.21
44.2483
102.812
1.4684
44.8114
56.54
29.2183
4.63334
2.94315
58.0386
9087.77
9586.87
6079.04
4747.47
8928.95
9561.01
5423.35
4917.91
69.6158
34.0952
24.0093
0
22.7136
24.2652
0
1236.22
17.8009
48.1639
1094.17
13.427
3982.55
26.7079
52.6645
14.9622
13.1139
14.4048
6.82894
49.4344
18.4801
27.8662
50.5392
0
24.4006
39.7071
107.955
76.0757
49.5462
34.0304
48.5792
59.7808
16.4362
8.83116
20.0311
62.5003
18.8632
369.934
82.0889
381.461
17.0933
15.3117
5.04419
15.1591
330.652
17.6638
37.838
22.0053
40.4284
39.4237
44.1961
10.9806
114.714
71.6514
18.9387
71.6662
51.402
15.0249
14.276
0.76385
-9.67783e-16
25.7095
1578.47
7591.36
4513.1
1029.95
7840.95
84.3293
35.3737
0
11.5148
52.0759
10.8604
13.2308
29.35
12.5205
12704.8
7386.39
5494.13
4200.84
7021.21
5523.66
5223.56
2894.7
28.2289
53.4603
3.46411
0
7.33308
0
0
1074.71
-1.23125e-15
7.43566
993.411
0
3713.37
11.3101
0
0
54.8305
27.933
0
16.4978
26.9868
12.0339
31.5366
0
6.54533
10.5376
119.652
48.4468
48.9792
69.1165
27.2098
37.1963
32.0747
26.7738
39.056
45.8958
19.332
46.8453
0
13.8763
18.7857
19.5686
0
18.3582
8.66648
31.0748
61.0098
0
60.6709
21.4707
0
37.9154
13.8131
55.4384
22.0933
11.7187
72.4443
11.029
16.2466
0
16.3452
20.5062
573.631
5153.41
2474.32
488.389
8062.65
-2.15476e-15
11.5273
9.86534
34.6983
52.5371
14.3763
9.19379
9.76533
53.5703
7203.94
7145.36
5143.25
2862.81
8876.58
5904.32
5154.62
5102.42
47.3704
39.3676
5.16621
0
5.66181
0
0
724.484
0
12.1656
615.201
0
5059.46
15.0583
54.632
19.9042
23.3422
10.4609
24.3662
58.6839
40.8714
24.5867
6.05605
0
10.8986
24.7198
17.7623
16.9462
75.0669
35.877
17.8307
25.5266
10.0877
12.1772
11.4037
34.0666
4.47218
27.7726
0
17.4114
7.80951
19.9897
7.82384
27.1228
8.06163
27.3574
8.71948
0
25.4075
16.1496
0
7.79117
15.5398
33.0518
23.129
15.4342
10.3012
33.9902
6.94401
19.2023
18.0307
0
271.855
6704.03
1330.96
146.984
4916.28
20.7539
2.81676
16.948
39.0786
35.7191
51.3928
5.59859
19.0915
35.7432
9006.82
4408.58
6590.67
2285.82
10800.1
10111.5
4971.57
4699.15
69.5693
33.4323
0
0
13.4615
0
17.2674
404.761
24.4064
5.86024
261.379
11.1139
5302.44
45.7219
21.8207
15.8491
90.6927
30.3929
26.4972
29.6022
58.781
-1.48634e-16
12.1274
0
10.9349
8.10689
41.6153
8.88644
32.1079
38.3605
17.4531
79.2821
26.0756
23.6254
17.1017
38.8899
10.7514
47.1707
6.04217
50.9367
12.4529
20.4969
0
31.1623
62.168
57.8422
24.386
21.9449
15.2191
27.736
23.5626
51.8935
23.5747
21.4665
21.9456
9.4776
35.0104
26.7575
8.67602
10.8034
17.4703
0
37.3849
4462.76
312.291
29.834
3969.06
7.48296
11.4587
2.53676
25.8038
33.2914
16.7052
27.5718
27.7563
13.0413
7456.7
8763.1
5020.61
1485.14
5915.72
6305.76
4563.32
3707.97
40.5379
54.9645
0
3.41402
32.2384
5.05119
0
174.01
0
11.8864
85.8961
25.4877
2107.38
27.496
40.4052
71.6147
42.0999
36.637
19.628
42.99
54.5005
6.56725
14.2874
0
26.9422
20.1312
26.9738
38.5577
57.7437
34.8128
31.2229
30.4386
5.36405
14.471
38.8595
40.9057
20.2821
14.4719
1.2315
6.8982
20.3031
27.193
6.10012
26.1261
71.1686
63.4528
13.1562
22.0811
42.1073
35.3893
21.134
17.1056
22.6456
26.1125
13.296
10.8583
53.5893
13.3519
3.02623
0
15.5002
7.14474
51.3042
6843.95
67.7832
54.5509
6865.99
-3.49745e-16
11.5896
18.1302
26.0938
31.2369
0
14.7768
8.59248
15.5704
9961.15
5919.97
5450.35
972.823
10819.2
7781.73
5937.4
5091.59
58.0685
47.599
25.0897
0
40.7355
31.0427
15.4028
29.5068
1.4633
5.57908
17.3221
21.9992
2743.21
33.463
33.4004
0
17.4812
56.5544
24.5764
36.8088
41.0241
42.1731
6.20424
21.8842
22.8457
6.27787
24.7794
18.4037
9.93971
36.3933
12.6854
24.7493
36.5176
7.32225
17.9229
24.6069
20.7108
7.50909
-2.26658e-16
11.0544
10.0493
8.4722
4.4331
1.43468
26.0812
0
44.4216
16.7702
24.9915
22.3267
46.0208
23.9635
9.00127
53.7703
27.0396
23.5845
61.4979
8.917
31.4905
0
0
20.7314
53.349
5633.21
19.9996
62.8427
1405.08
0
0
14.5572
0
21.8548
-1.56797e-15
9.00391
0
10.9307
21216
3761.8
5985.77
919.585
3007.32
4142.18
4091.85
7803.41
61.2196
39.1705
23.2443
62.3701
83.0504
36.8476
63.501
1.25379
10.7663
8.67378
18.6099
0
758.276
38.3846
44.0694
60.102
40.2347
16.7031
0
51.1607
30.9455
13.5343
0
21.4039
14.4006
23.3352
37.2071
27.5429
22.6131
33.9581
23.2794
33.7048
10.3977
27.4415
17.4623
29.0322
10.205
19.1867
13.6785
7.79701
14.8207
20.7552
2.2569
7.59175
39.9599
28.581
20.0535
0
25.5973
44.5611
0
30.4457
28.28
74.1771
12.4934
19.2097
122.598
7.15737
32.6843
19.5257
7.1403
63.8737
117.385
825.791
29.1525
147.127
365.241
14.3498
35.9344
13.9769
8.48173
4.88039
4.21498
13.6055
8.76735
4.24862
16319.9
3973.54
3503.79
1044.27
7807.65
2351.37
7181.16
11172.2
13.2842
40.403
38.8115
15.4342
60.6683
46.8616
15.0094
14.9843
25.7111
21.2
42.735
51.2192
412.799
6.40154
29.5374
0
31.8379
20.1271
145.111
32.129
39.9918
34.2265
11.5147
99.6181
61.2542
12.1939
9.30074
47.1676
29.3647
13.6212
23.2623
37.6841
9.53329
3.04775
20.4113
38.3404
16.4017
32.1628
3.79112
4.47808
18.4621
34.9477
2.21901
8.53016
26.6709
16.3711
13.1184
0
14.0556
35.8053
0
29.8164
27.156
82.5282
36.1208
36.4038
82.4731
32.9422
14.7834
0
39.0851
10.3799
104.503
202.084
34.4348
88.5063
147.537
11.5457
13.9503
13.5431
14.0936
13.0548
0.396344
0.428098
21.8314
10.9255
10747.9
1758.86
7602.45
1015.56
20147.5
954.563
6922.79
6638.46
24.612
9.61369
49.559
97.5293
80.4739
46.8064
103.331
21.0775
86.7893
4.65497
39.8792
47.0039
192.862
19.3323
38.0806
85.2861
55.3486
39.9861
35.4269
23.6777
45.0655
63.4677
23.5623
0
55.2474
22.5921
21.8834
9.23038
0.645888
9.03319
24.5584
29.6732
25.9169
24.3652
27.7722
30.7249
32.471
9.36114
9.04934
0.590783
4.66592
61.3035
5.72468
3.77306
0
17.0981
32.9557
40.4131
21.0835
33.9611
39.7511
20.687
9.57294
96.2571
10.6261
25.1274
202.575
16.6196
4.34228
0
12.6772
6.59117
127.267
118.5
42.6782
197.638
132.988
9.09957
22.9496
5.38809
14.2292
12.7901
12.0141
0
21.4255
4.22937
2049.35
844.516
6343.56
885.553
3122.66
650.222
8254.81
2918.49
33.226
28.9798
29.5693
61.4885
57.987
73.5697
75.683
73.4411
31.9524
61.1184
113.231
247.26
321.04
38.194
24.0595
17.1041
40.7277
32.7756
16.648
40.2701
34.5928
49.3618
24.3327
81.5317
15.1441
48.717
45.6634
29.5243
37.3403
20.3297
38.273
68.6475
33.5584
39.015
40.5094
70.7601
13.5348
41.9123
6.75043
9.00242
28.5009
20.0056
11.3259
17.6203
8.31697
27.7245
25.3369
0
13.6909
15.2808
0
4.77854
10.1411
192.311
19.4082
27.0886
127.766
20.5947
0
19.1139
7.18608
11.4015
195.26
125.254
66.0404
298.585
150.916
28.1231
17.967
0
0
13.1272
12.1258
1.00604
2.17834
16.5991
15637.2
594.542
6842.51
666.226
5151.39
606.634
8420.22
2186.36
0
18.7712
76.9864
172.947
82.6724
84.631
288.621
107.586
159.927
71.5472
143.922
280.658
519.257
18.0632
29.6949
49.6832
71.3786
33.9118
18.6441
77.1443
34.03
8.16635
56.4457
59.5161
47.8055
20.5205
13.8958
64.7578
28.0485
31.2988
33.9374
58.0424
26.0854
33.117
38.7323
66.2063
36.4315
52.5648
9.2867
8.92916
39.3773
42.5687
1.93465
34.2545
6.79608
29.6931
28.1728
0
14.7186
27.0866
0
0.153513
51.1522
88.7811
31.4721
34.0848
242.71
20.8296
1.52135
0
4.82202
11.592
405.274
182.48
63.2265
533.561
220.909
11.7399
18.9519
10.8818
8.7771
10.7866
5.15436
5.29788
0.281143
2.84502
4585.22
603.784
8148.25
293.998
2422.56
630.944
6922.64
2184.4
39.4566
31.2772
96.0298
161.18
28.2385
75.1906
233.569
224.672
255.662
87.278
175.063
493.948
781.171
105.002
86.2459
15.8307
54.6412
27.809
-4.93835e-16
46.4804
46.7728
14.1521
61.9435
29.133
53.1441
43.134
64.2259
31.3999
61.1292
89.9491
42.2902
49.821
26.1187
100.57
125.143
73.5108
3.46035
81.8676
22.9847
34.2455
58.073
63.6105
3.5466
30.6732
29.739
87.2271
40.5
39.1941
48.9955
23.8043
19.0917
26.2942
43.5142
186.036
52.7663
75.635
289.258
25.7393
21.1423
19.4366
37.4876
19.2843
551.887
262.417
90.9244
617.637
289.591
49.6982
11.0064
0
34.937
8.31403
13.6502
7.44977
17.3316
4.18052
1357.65
558.096
9827.81
131.784
974.143
470.889
4404.67
2038.98
16.2392
16.4319
67.4872
292.729
51.9409
134.906
384.849
281.331
496.242
122.913
308.136
931.442
779.056
128.705
180.368
15.8182
86.8157
55.7456
39.806
154.178
95.5336
50.9113
86.743
53.6443
51.9062
77.2923
92.923
121.753
69.3175
73.1536
124.62
121.353
23.437
237.671
180.973
166.528
17.6359
84.6045
29.8488
48.6388
55.5436
124.23
5.82124
28.1062
46.7548
140.552
34.7727
38.7356
18.3244
58.6972
-1.11123e-14
22.5987
57.6451
609.092
118.062
109.184
599.618
10.0293
0
40.5503
9.27931
27.2907
1091.48
299.229
154.221
1775.44