/*--------------------------------*- C++ -*----------------------------------*\
| =========                 |                                                 |
| \\      /  F ield         | OpenFOAM: The Open Source CFD Toolbox           |
|  \\    /   O peration     | Version:  5.x                                   |
|   \\  /    A nd           | Web:      www.OpenFOAM.org                      |
|    \\/     M anipulation  |                                                 |
\*---------------------------------------------------------------------------*/
FoamFile
{
    version     2.0;
    format      ascii;
    class       volScalarField;
    location    "0.3";
    object      voidfraction;
}
// * * * * * * * * * * * * * * * * * * * * * * * * * * * * * * * * * * * * * //

dimensions      [0 0 0 0 0 0 0];

internalField   nonuniform List<scalar> 
10571
(
0.801638
0.789127
0.700509
0.792531
0.740498
0.77902
0.839332
0.884195
0.651776
0.632384
0.834842
0.823259
0.708577
0.900672
0.701102
0.644128
0.771665
0.798707
0.802738
0.716538
0.62754
0.846221
0.763661
0.732693
0.99196
0.986239
0.993846
0.995635
0.991996
0.998197
0.979187
0.990423
0.991747
0.972535
0.996677
0.999813
0.986788
0.992342
0.988513
0.872281
0.988857
0.996656
0.997033
0.966832
0.992437
0.974997
0.993294
0.979711
0.994749
0.97395
0.994183
0.997589
0.99396
0.99904
0.997899
0.998138
0.995276
0.981556
0.99639
0.999042
0.997873
0.999779
0.995827
0.83531
0.987943
0.997778
0.998764
1
0.995625
0.987863
0.998265
0.96959
1
0.977565
0.991133
0.989743
0.974359
0.998352
0.998321
0.998564
0.9968
0.973848
1
0.999361
0.99833
0.999687
0.996844
0.825683
0.980859
0.999143
0.999581
1
0.974945
0.982088
0.998221
0.947786
1
0.969704
0.987832
0.989726
0.983924
0.997266
0.996967
0.999412
0.996389
0.975162
0.99978
0.992703
0.998473
0.998735
0.996997
0.835036
0.993808
0.998311
0.999972
1
0.983474
0.987262
0.998551
0.927952
1
0.966002
0.991463
0.989503
0.98067
1
0.999122
0.9989
0.998009
0.981582
0.538967
0.996811
0.99672
0.998999
0.996527
0.997172
0.808105
0.425981
0.996812
0.997256
0.999483
0.999358
0.970007
0.989081
0.990426
0.916342
1
0.982132
0.982381
0.98564
0.980995
0.999932
0.999789
0.999977
0.997745
0.97042
0.999284
1
0.969452
0.998766
0.998107
0.992358
0.833984
1
0.990797
0.998244
0.998622
1
0.969178
1
0.992488
0.995289
0.946499
1
0.990814
0.989233
0.994177
0.984226
0.993511
0.999996
0.991097
0.998249
0.959476
1
0.99978
0.983389
0.999663
0.9644
0.993308
0.822974
1
0.993323
0.998624
0.993813
1
0.976441
1
0.97762
0.990095
0.945819
1
0.981292
0.967263
0.99553
0.982277
0.997364
0.99985
0.996701
0.998382
0.988011
1
0.997361
0.990257
0.999664
0.987784
0.998094
0.873197
1
0.999368
0.998705
0.994363
0.999015
0.95774
0.9897
0.991271
0.937358
1
0.98359
0.992477
0.991068
0.983562
0.998311
0.999402
0.993629
0.998672
0.980548
1
0.934891
0.998841
0.988072
0.997931
0.824644
0.994527
0.997419
0.988637
0.999227
0.901102
0.980756
0.981186
0.931624
0.99956
0.989751
0.995245
0.988001
0.996635
0.996994
0.997294
0.989877
0.99844
0.982365
0.996811
0.977615
0.996258
0.989488
0.999167
0.793504
0.994678
0.991922
0.984431
0.998062
0.847238
0.986488
0.97515
0.887423
0.996812
0.985048
0.996089
0.985843
0.990329
0.991185
0.991335
0.994271
0.996629
0.990316
0.988674
0.985531
0.993907
0.996022
0.996803
0.698409
0.997354
0.980533
0.961645
0.997731
0.678511
0.985365
0.971888
0.80672
0.998791
0.992384
0.998045
0.986115
0.992099
0.999021
0.990346
0.991211
0.982306
0.985659
0.996811
0.996045
0.976321
0.975415
0.884474
0.54534
0.998256
0.972586
0.908842
0.98421
0.58525
0.993689
0.95685
0.76742
0.996811
0.995072
0.996764
0.988987
0.987652
0.993718
0.982113
0.996273
0.994972
0.987595
0.99934
0.997059
0.981275
0.940499
0.775398
0.507353
0.997655
0.970577
0.899078
0.789498
0.547783
0.991637
0.975511
0.622347
1
0.989808
0.990662
0.996926
0.991167
0.999932
0.970703
0.998108
0.99912
0.988874
0.989774
0.996383
0.982414
0.981531
0.753886
0.502515
0.999128
0.970391
0.921349
0.513253
0.552
0.991134
0.975118
0.601912
1
0.994568
0.997236
0.990912
0.990206
0.996724
0.986475
0.987167
0.999766
0.980229
0.973061
0.999662
0.984145
0.989825
0.774722
0.497951
0.99561
0.98441
0.942881
0.530476
0.538831
0.993418
0.98158
0.59274
0.996591
0.993336
0.996427
0.993785
0.983145
0.99713
0.995094
0.983498
0.99727
0.961227
0.997251
0.99902
0.996138
0.990301
0.80234
0.506825
0.997685
0.992946
0.95574
0.542802
0.543934
0.995432
0.990004
0.574184
1
0.998992
0.998989
0.994123
0.97882
0.995205
0.999889
0.994808
0.987804
0.959987
1
0.999797
0.999442
0.989844
0.838056
0.548581
0.997926
0.994311
0.959088
0.577824
0.56285
0.996207
0.993901
0.588329
0.996812
0.993504
0.990663
0.998514
0.998708
0.992301
0.999889
0.999973
0.999414
0.998876
0.997032
1
0.999111
0.998397
0.865427
0.613205
0.996453
0.994993
0.959229
0.61204
0.55683
0.998723
0.998823
0.559349
0.996812
0.995688
0.998045
0.998345
0.996516
0.995509
1
1
0.999649
0.995388
0.992305
0.997905
0.999885
0.999648
0.889458
0.700593
0.993297
0.995365
0.967662
0.646056
0.54535
0.998877
0.997555
0.539119
1
0.99944
0.994775
0.997703
0.999399
0.995138
0.998966
1
0.998829
0.990735
1
0.990875
1
1
0.913724
0.81564
0.997685
0.996863
0.982293
0.702504
0.5443
0.996593
0.996528
0.579649
1
0.99608
0.995719
1
0.997116
0.994125
0.998802
1
0.999608
0.985773
1
0.996485
0.999888
0.999775
0.928466
0.930416
0.998256
0.99744
0.996685
0.759753
0.56775
0.990979
0.998249
0.610309
0.998131
0.996808
0.995854
0.99902
0.995194
0.994631
0.996849
0.999889
0.999649
0.992557
0.996812
0.998682
0.999888
1
0.935064
0.993652
0.998256
0.998579
0.999058
0.774174
0.53114
0.987689
0.999124
0.756469
0.994722
0.993001
0.990797
0.997534
0.994893
0.985852
0.996795
1
0.999883
0.991395
1
0.998952
0.999888
0.999775
0.949169
0.984886
1
0.998316
0.999062
0.749906
0.52302
0.994502
0.997011
0.84327
1
0.989866
0.990494
0.9975
0.997807
0.990242
0.99728
0.999889
0.999725
0.993953
1
0.99662
0.9998
0.999663
0.962751
0.990146
0.999128
0.999318
0.999531
0.752509
0.55501
0.994735
0.991486
0.89339
0.983945
0.993841
0.989349
0.997703
0.995764
0.987607
0.996387
0.999221
0.999725
0.993061
1
0.999189
0.997146
0.999322
0.982636
0.987183
0.997084
0.999184
0.99922
0.768265
0.61045
0.986913
0.994898
0.91124
0.996811
0.995521
0.98928
0.998176
0.994473
0.994496
0.998054
0.998975
0.999479
0.995116
1
0.99804
0.997161
0.999319
0.991959
0.987244
0.997655
0.999277
0.998427
0.785056
0.68059
0.988193
0.984512
0.88765
0.993732
0.993449
0.991607
0.997399
0.992371
0.994563
0.998978
0.998634
0.999592
0.99624
0.996812
0.999966
0.997377
0.999551
0.992712
0.981259
0.996843
0.998768
0.996835
0.848949
0.70782
0.983896
0.973158
0.818
0.988676
0.990033
0.984191
0.996048
0.989968
0.982408
0.9981
0.99769
0.999447
0.986588
0.996702
0.999561
0.999211
0.998726
0.991278
0.971193
0.998226
0.999063
0.994191
0.944053
0.7214
0.978902
0.967841
0.793429
0.996812
0.958792
0.991944
0.994933
0.990989
0.985987
0.998417
0.998438
0.998393
0.973945
0.993624
0.999223
0.999196
0.998432
0.991914
0.965057
0.999128
0.998873
0.99411
0.967587
0.68304
0.970192
0.958937
0.795179
0.977789
0.923333
0.993494
0.99902
0.988702
0.990579
0.998569
0.998983
0.997476
0.953085
0.993514
0.996553
0.999158
0.997855
0.996405
0.96073
0.99558
0.9987
0.996123
0.980238
0.668474
0.954358
0.946678
0.776279
0.892463
0.665666
0.926715
1
0.89255
0.966437
0.999584
0.998664
0.998385
0.839636
0.991643
0.99804
0.999554
0.998052
0.994208
0.97343
0.994889
0.999293
0.997417
0.975231
0.730566
0.859126
0.958786
0.87071
0.768187
0.851292
0.974617
0.999291
0.637236
0.772792
0.999298
0.998553
0.999374
0.85185
0.985379
0.989996
0.999785
0.998629
0.992356
0.976059
0.994438
0.99826
0.996459
0.986213
0.811557
0.738461
0.967086
0.93469
0.99989
0.991711
0.996089
1
1
0.996995
0.998455
0.998991
0.998942
0.954946
0.984054
0.860074
0.996946
0.998242
0.99191
0.971767
0.817756
0.990249
0.994158
0.985646
0.894438
0.925666
0.984479
0.96766
0.996811
0.982641
0.984089
1
1
0.998143
0.999111
0.999777
0.998821
0.979373
0.996812
0.982122
0.993654
0.999667
0.992485
0.984705
0.96675
0.99251
0.995032
0.985913
0.892758
0.979518
0.986382
0.981588
1
1
0.924524
1
0.999129
0.994766
0.999004
1
0.999572
0.98957
0.992524
0.99902
0.997292
0.999574
0.994642
0.988361
0.999699
0.996544
0.996042
0.993524
0.906759
0.992258
0.97992
0.97844
1
1
0.999966
1
0.999129
1
0.999668
1
0.999515
0.988252
0.996812
0.996891
0.997646
0.999551
0.997872
0.976628
1
0.998272
0.998035
0.99516
0.876784
0.982499
0.985083
0.96584
1
1
1
0.998243
0.995944
1
0.998829
1
1
0.984142
1
0.999932
0.999331
0.999888
0.999287
0.984791
1
0.99832
0.999883
0.99803
0.877274
0.992916
0.989673
0.96486
1
1
1
0.993109
0.994113
1
0.965781
0.997916
1
0.985421
1
1
0.9986
0.999686
0.999858
0.986426
1
0.991408
0.999074
1
0.862168
0.999264
0.971978
0.94897
1
1
1
1
1
1
0.995162
0.97705
0.990853
0.981433
1
1
0.985272
0.983796
0.972901
0.979717
1
0.986663
0.985462
0.997029
0.878689
1
0.994897
0.959535
1
1
1
1
1
1
1
0.995414
0.987448
1
1
1
0.999385
0.995265
0.99097
1
1
0.99981
0.990241
0.992289
1
1
1
1
1
1
1
1
1
1
1
1
1
1
1
1
1
1
1
1
1
1
1
1
1
1
1
1
1
1
1
1
1
1
1
1
1
1
1
1
1
1
1
1
1
1
1
1
1
1
1
1
1
1
1
1
1
1
1
1
1
1
1
1
1
1
1
1
1
1
1
1
1
1
1
1
1
1
1
1
1
1
1
1
1
1
1
1
1
1
1
1
1
1
1
1
1
1
1
1
1
1
1
1
1
1
1
1
1
1
1
1
1
1
1
1
1
1
1
1
1
1
1
1
1
1
1
1
1
1
1
1
1
1
1
1
1
1
1
1
1
1
1
1
1
1
1
1
1
1
1
1
1
1
1
1
1
1
1
1
1
1
1
1
1
1
1
1
1
1
1
1
1
1
1
1
1
1
1
1
1
1
1
1
1
1
1
1
1
1
1
1
1
1
1
1
1
1
1
1
1
1
1
1
1
1
1
1
1
1
1
1
1
1
1
1
1
1
1
1
1
1
1
1
1
1
1
1
1
1
1
1
1
1
1
1
1
1
1
1
1
1
1
1
1
1
1
1
1
1
1
1
1
1
1
1
1
1
1
1
1
1
1
1
1
1
1
1
1
1
1
1
1
1
1
1
1
1
1
1
1
1
1
1
1
1
1
1
1
1
1
1
1
1
1
1
1
1
1
1
1
1
1
1
1
1
1
1
1
1
1
1
1
1
1
1
1
1
1
1
1
1
1
1
1
1
1
1
1
1
1
1
1
1
1
1
1
1
1
1
1
1
1
1
1
1
1
1
1
1
1
1
1
1
1
1
1
1
1
1
1
1
1
1
1
1
1
1
1
1
1
1
1
1
1
1
1
1
1
1
1
1
1
1
1
1
1
1
1
1
1
1
1
1
1
1
1
1
1
1
1
1
1
1
1
1
1
1
1
1
1
1
1
1
1
1
1
1
1
1
1
1
1
1
1
1
1
1
1
1
1
1
1
1
1
1
1
1
1
1
1
1
1
1
1
1
1
1
1
1
1
1
1
1
1
1
1
1
1
1
1
1
1
1
1
1
1
1
1
1
1
1
1
1
1
1
1
1
1
1
1
1
1
1
1
1
1
1
1
1
1
1
1
1
1
1
1
1
1
1
1
1
1
1
1
1
1
1
1
1
1
1
1
1
1
1
1
1
1
1
1
1
1
1
1
1
1
1
1
1
1
1
1
1
1
1
1
1
1
1
1
1
1
1
1
1
1
1
1
1
1
1
1
1
1
1
1
1
1
1
1
1
1
1
1
1
1
1
1
1
1
1
1
1
1
1
1
1
1
1
1
1
1
1
1
1
1
1
1
1
1
1
1
1
1
1
1
1
1
1
1
1
1
1
1
1
1
1
1
1
1
1
1
1
1
1
1
1
1
1
1
1
1
1
1
1
1
1
1
1
1
1
1
1
1
1
1
1
1
1
1
1
1
1
1
1
1
1
1
1
1
1
1
1
1
1
1
1
1
1
1
1
1
1
1
1
1
1
1
1
1
1
1
1
1
1
1
1
1
1
1
1
1
1
1
1
1
1
1
1
1
1
1
1
1
1
1
1
1
1
1
1
1
1
1
1
1
1
1
1
1
1
1
1
1
1
1
1
1
1
1
1
1
1
1
1
1
1
1
1
1
1
1
1
1
1
1
1
1
1
1
1
1
1
1
1
1
1
1
1
1
1
1
1
1
1
1
1
1
1
1
1
1
1
1
1
1
1
1
1
1
1
1
1
1
1
1
1
1
1
1
1
1
1
1
1
1
1
1
1
1
1
1
1
1
1
1
1
1
1
1
1
1
1
1
1
1
1
1
1
1
1
1
1
1
1
1
1
1
1
1
1
1
1
1
1
1
1
1
0.432544
0.424369
0.411896
0.413128
0.434523
0.421799
0.41092
0.390998
0.43392
0.423545
0.40953
0.423522
0.44275
0.438034
0.433754
0.472229
0.497342
0.420234
0.418216
0.473724
0.448607
0.42224
0.42223
0.479491
0.444706
0.433417
0.41864
0.430769
0.427208
0.434985
0.513441
0.426362
0.455425
0.458846
0.466539
0.49684
0.437413
0.477906
0.490317
0.434344
0.474764
0.517292
0.48406
0.468804
0.491203
0.444646
0.463024
0.416455
0.427708
0.410197
0.417621
0.416048
0.478224
0.422094
0.429516
0.518396
0.463841
0.43646
0.439192
0.431599
0.479762
0.425844
0.46539
0.487201
0.498365
0.512502
0.486285
0.478733
0.419574
0.449187
0.414266
0.423941
0.444651
0.422874
0.432943
0.452699
0.425601
0.471791
0.422267
0.41671
0.428593
0.42674
0.443525
0.482806
0.449097
0.431943
0.431324
0.427062
0.449583
0.443989
0.419991
0.439975
0.41771
0.430651
0.432738
0.428279
0.806912
0.989693
0.811948
0.816842
0.853283
0.980802
0.980046
0.980364
0.772185
0.835003
0.950785
0.954406
0.973209
0.75624
0.983974
0.849559
0.98078
0.769823
0.753168
0.821243
0.984876
0.982515
0.947044
0.965521
0.743602
0.752838
0.677438
0.852208
0.967249
0.621218
0.928256
0.624407
0.970919
0.867779
0.788647
0.840418
0.984712
0.985893
0.98906
0.673051
0.639405
0.963554
0.906676
0.947475
0.823402
0.823819
0.994591
0.97954
0.980814
0.634825
0.627912
0.90428
0.948338
0.975748
0.816015
0.986107
0.761229
0.77325
0.755544
0.956868
0.930137
0.971733
0.971473
0.69814
0.738983
0.734708
0.563323
0.925438
0.938073
0.964871
0.982523
0.816722
0.955454
0.795565
0.776541
0.984509
0.961452
0.921867
0.745506
0.790401
0.858148
0.920721
0.789351
0.949228
0.987625
0.990199
0.99464
0.990574
0.992776
0.99685
0.993498
0.995656
0.993034
0.992782
0.996199
0.991812
0.994895
0.989872
0.99571
0.992065
0.995238
0.993825
0.995393
0.985806
0.986739
0.988847
0.991013
0.989578
0.968614
0.984911
0.991964
0.995264
0.98839
0.999089
0.98965
0.975428
0.975474
0.992931
1
0.994474
0.993498
1
0.993439
0.927429
0.973078
0.979098
0.935003
0.968581
0.991824
0.993149
0.999566
0.99258
0.993116
0.958077
0.972382
0.842039
0.96186
0.980348
0.991194
0.983719
0.993351
0.97661
0.977726
0.986746
0.999026
0.975343
0.985873
0.988962
0.988777
0.97474
0.999267
0.996107
0.986719
0.967734
0.989392
0.940829
0.94559
0.996131
1
0.981717
0.998519
1
0.984148
0.999893
0.989838
0.983303
0.999566
0.973795
0.984189
0.982701
1
0.987587
0.991076
0.996817
0.992637
0.987672
0.992661
0.990763
0.99989
0.992372
0.994794
0.99254
0.98582
0.986061
0.988682
0.990732
0.994188
0.995453
0.982533
0.987612
0.994284
0.996297
0.970735
0.993498
0.983861
0.986675
0.973895
0.995267
0.98522
0.983156
0.98696
0.995555
0.996827
0.994789
0.990515
1
0.993006
0.940196
0.959593
0.985463
0.907815
0.963385
0.995116
0.994901
1
0.991406
0.992825
0.923289
0.983517
0.84584
0.924848
0.971509
0.991777
0.988874
0.99752
0.974279
0.97881
0.99429
0.996767
0.982285
0.98934
0.995908
0.985815
0.981697
1
0.995354
0.981749
0.975651
0.983166
0.930088
0.941108
0.994586
1
0.982042
0.995361
1
0.98117
0.996832
0.998253
0.983268
1
0.96235
0.978065
0.985088
0.993626
0.993894
0.991356
0.996812
0.991065
0.995552
0.993348
0.995129
1
0.993794
0.997291
0.985579
0.995328
0.989839
0.993942
0.976567
0.992301
0.993521
0.97251
0.980155
0.992022
0.99542
0.981745
0.992911
0.991085
0.984251
0.985544
0.998186
0.991238
0.995109
0.99112
0.992424
1
0.995617
0.994391
0.998021
0.995521
0.906807
0.944173
0.978079
0.897224
0.912369
0.992501
0.997757
0.99956
0.995005
0.997755
0.882607
0.967375
0.834636
0.862473
0.971244
0.9931
0.993863
1
0.983815
0.985316
0.990536
0.998847
0.990721
0.984147
0.990642
0.982171
0.973612
0.999031
0.99049
0.985544
0.976577
0.978007
0.941198
0.934311
0.996562
1
0.983547
0.999124
1
0.98583
0.998793
0.999004
0.975976
1
0.935419
0.978952
0.987245
1
0.993035
0.995035
0.996811
0.992531
0.989522
0.991064
0.986872
0.994943
0.988121
0.994498
0.987231
0.994415
0.995124
0.983421
0.968672
0.991898
0.988941
0.966676
0.974954
0.993654
0.981154
0.9683
0.993081
0.994733
0.986187
0.984469
0.989448
0.993575
0.993278
0.990937
0.997988
0.99956
0.99567
0.991098
1
0.996093
0.913035
0.894561
0.983315
0.933156
0.932998
0.994881
0.998141
1
0.994213
0.998877
0.780614
0.975907
0.837531
0.832281
0.969057
0.995745
0.99414
0.997396
0.980426
0.980085
0.993986
0.998548
0.979581
0.967819
0.994751
0.980826
0.983353
1
0.996686
0.988451
0.983259
0.975912
0.939552
0.934231
0.998128
1
0.988616
0.997673
1
0.973597
0.996818
0.99701
0.965279
0.998134
0.953508
0.977764
0.994214
1
0.989007
0.997516
1
0.994348
0.995063
0.995272
0.995155
1
0.995211
0.996396
0.998324
0.993024
0.982933
0.989341
0.979385
0.99109
0.978834
0.970145
0.977914
0.989688
0.985636
0.983459
0.99425
0.994714
0.96729
0.984809
0.996357
0.989447
0.992098
0.991202
0.994155
1
0.995245
0.996632
1
0.998213
0.915815
0.949314
0.776753
0.977618
0.988251
0.95721
0.958323
0.413718
0.441856
0.415854
0.98395
0.871486
0.933952
0.768049
0.993486
0.998257
0.99989
0.996818
0.99756
0.717905
0.972142
0.911781
0.816071
0.883815
0.968086
0.985727
0.4056
0.51278
0.380997
0.929403
0.76121
0.977065
0.862279
0.997907
1
0.999538
0.979243
0.969514
0.994165
0.999043
0.975473
0.964575
0.992674
0.974684
0.976248
1
0.99155
0.981543
0.982581
0.974849
0.922196
0.945774
0.996466
0.996598
0.987725
0.995921
1
0.973996
0.990891
0.983777
0.961958
0.994513
0.914809
0.987173
0.972046
1
0.990671
0.99476
0.995712
0.991638
0.992822
0.998182
0.996398
0.996812
0.997364
0.996477
0.985861
0.992139
0.983838
0.992755
0.975605
0.986647
0.981041
0.97373
0.971558
0.991177
0.977652
0.986043
0.988542
0.99441
0.986112
0.993426
0.987499
0.995737
0.997039
1
0.993564
0.999951
1
1
1
1
0.995471
1
0.991821
0.996129
0.993622
0.995062
0.991008
0.950558
0.965372
0.973459
0.985997
0.954622
0.961518
1
1
1
1
1
1
1
0.997636
0.994268
0.992962
0.996091
0.993029
0.883077
0.957869
0.990475
0.831491
0.88799
0.928011
0.968693
1
1
0.999276
1
1
0.999179
1
0.994349
0.98821
0.999043
0.985261
0.978473
0.99227
1
0.990774
0.977564
0.988982
0.98243
0.977186
0.99871
0.989337
0.978062
0.985669
1
0.975896
0.997842
1
1
1
0.95501
0.934789
0.998308
1
0.980407
0.996948
1
0.956536
1
0.988554
0.959461
0.990124
0.948249
0.975113
0.979436
0.994723
0.990206
0.984403
1
0.99729
0.98734
0.999121
0.99369
1
0.996455
0.991752
0.999235
0.989143
0.9938
0.991152
0.973447
0.993622
0.978466
0.985717
0.965446
0.990671
0.967749
0.988692
0.998821
0.994163
0.985232
0.992766
0.999663
0.992948
0.988222
1
0.993487
1
1
1
1
1
0.993032
0.996811
0.992093
0.997832
1
0.988337
0.97641
0.955383
0.955683
0.979161
0.982239
0.96378
0.947822
0.999147
1
1
1
1
1
1
0.995424
0.994888
0.996811
0.994394
0.991944
0.891206
0.924973
0.967033
0.827128
0.874632
0.920854
0.972501
1
1
1
1
1
1
1
0.990861
0.987303
0.998086
0.983461
0.980925
0.997383
0.996172
0.977217
0.981228
0.985918
0.985615
0.985138
0.999015
0.98513
0.986536
0.988345
1
0.947581
1
1
1
1
0.928212
0.927233
0.998248
1
0.98637
0.995921
0.996817
0.952679
1
0.992299
0.955931
0.996927
0.938987
0.985919
0.981807
0.996811
0.991755
0.990369
0.994282
0.994
0.988976
0.996606
0.987915
0.996812
0.991151
0.983498
0.986201
0.992747
0.987878
0.99993
0.973718
0.992966
0.964462
0.988686
0.991969
0.993891
0.955122
0.99605
0.996805
0.995751
0.981704
0.985906
0.998399
0.999819
0.995559
0.996779
0.988348
0.996811
0.990882
0.991949
1
0.9834
0.990371
0.970717
0.93718
0.978075
0.987122
0.954803
0.933706
1
1
1
1
1
1
1
0.989364
0.996243
0.992523
0.980667
0.99148
0.833791
0.915068
0.949558
0.825347
0.84251
0.894407
0.953895
1
1
1
1
1
1
1
0.989326
0.986745
0.996204
0.979523
0.970631
0.993474
0.993301
0.979636
0.968058
0.97933
0.989645
0.982855
0.998684
0.979243
0.987781
0.967312
0.941466
0.942836
0.920377
0.995438
0.997476
0.978162
0.994713
0.999342
0.958564
0.996927
0.987377
0.952675
0.999342
0.929458
0.98836
0.987175
0.996152
0.994698
0.995821
0.996811
0.998413
0.994731
0.989183
0.982572
0.998681
0.993759
0.992953
0.985282
0.986263
0.992755
0.99589
0.991041
0.989451
0.955163
0.980846
0.983402
0.98662
0.967965
0.989397
0.997941
0.992201
0.989325
0.996854
0.989582
0.994507
0.998244
0.990483
0.994233
1
0.989792
0.998103
1
0.994124
0.955097
0.899771
0.980018
0.958182
0.77482
0.985849
0.990396
0.994062
0.992516
0.990164
0.800642
0.885434
0.827108
0.643104
0.85979
0.979839
0.988559
0.993499
0.967937
0.965849
0.994467
0.990235
0.978063
0.937516
0.972236
0.991341
0.975418
1
0.975525
0.982377
0.972611
0.877828
0.948296
0.951795
0.996495
1
0.977776
0.995892
0.992537
0.955292
0.99572
0.977987
0.957407
0.994733
0.895511
0.975397
0.986967
0.989994
0.991332
0.994731
0.990874
0.993731
0.992491
0.997183
0.996632
0.996812
0.994669
0.991407
0.99261
0.981806
0.986417
0.995054
0.98604
0.987694
0.972984
0.979279
0.992481
0.992521
0.975786
0.990452
0.994789
0.995945
0.993212
0.989779
0.998287
0.995496
0.992823
0.998814
0.995704
1
0.992973
0.996865
0.99978
0.996456
0.954144
0.757222
0.98361
0.954262
0.756931
0.994758
0.993998
0.986035
0.986336
0.991132
0.610182
0.827129
0.760209
0.621365
0.73459
0.992954
0.990304
0.994194
0.977669
0.95123
0.994077
0.996207
0.977445
0.945724
0.971902
0.982879
0.923871
0.998398
0.96553
0.974344
0.901901
0.74117
0.974463
0.966208
0.993536
0.997256
0.990979
0.989852
0.993634
0.960794
0.992209
0.983846
0.969322
0.982222
0.876027
0.992752
0.991915
0.993623
0.994196
0.992945
0.990434
0.991758
0.995034
0.996214
0.993884
0.993843
0.99479
0.992065
0.978878
0.992611
0.982099
0.992895
0.991882
0.990406
0.982395
0.98768
0.990894
0.991688
0.993752
0.989609
0.999341
0.997672
0.990869
0.990842
0.999045
0.992016
0.99993
0.985876
0.996826
1
0.995033
0.994736
1
0.99679
0.952123
0.77065
0.980277
0.941372
0.787665
0.993456
0.98788
0.993622
0.997698
0.998645
0.618138
0.658161
0.63762
0.60137
0.609753
0.993652
0.992606
0.989974
0.986389
0.95862
0.996212
0.983379
0.991901
0.956501
0.933183
0.953735
0.854995
0.996128
0.865522
0.934367
0.708224
0.60045
0.965369
0.972855
0.980338
0.9955
0.991095
0.970673
0.994183
0.964289
0.989575
0.968566
0.974592
0.978379
0.826036
0.995958
0.995818
0.996811
0.994467
0.995246
0.996811
0.991836
0.992067
0.997274
0.989781
0.997911
0.997335
0.991833
0.987242
0.980131
0.994915
0.987811
0.99335
0.997021
0.993167
0.989248
0.991613
0.992462
0.996844
0.99056
1
0.995402
0.991889
0.98966
1
0.994191
0.995803
0.989367
0.993691
0.996811
0.991369
0.994349
0.992963
0.993156
0.94375
0.791501
0.982168
0.948314
0.764767
0.998818
0.996709
0.993623
1
0.995547
0.562875
0.546747
0.515307
0.549139
0.494688
0.991071
0.978376
0.991591
0.987289
0.945908
0.997354
0.994394
0.98577
0.97194
0.714538
0.874161
0.603905
0.966515
0.548627
0.785684
0.564715
0.559835
0.955295
0.950887
0.98354
0.981122
0.99156
0.991785
0.98683
0.971144
0.968283
0.95836
0.971299
0.98277
0.719947
0.981113
0.984807
0.991204
0.985799
0.998819
0.992853
0.995473
0.993884
0.997183
0.995355
1
0.997335
0.993923
0.979155
0.985429
0.99791
0.992895
0.987989
0.990019
0.995087
0.98768
0.987839
0.990973
0.994892
0.987637
1
0.99885
0.997717
0.989379
1
0.996793
0.99993
1
0.99702
0.994282
0.995155
0.993382
0.996921
0.997153
0.946256
0.780843
0.99089
0.939627
0.796247
0.996668
0.997715
0.995602
0.995032
0.99849
0.592688
0.496412
0.498841
0.574996
0.496124
0.984375
0.98877
0.994163
0.990326
0.970881
0.997384
0.997956
0.991732
0.978811
0.468502
0.564941
0.550012
0.555236
0.448105
0.446939
0.559902
0.566544
0.983839
0.971246
0.996346
0.981561
0.997406
0.996768
0.97772
0.964676
0.972563
0.979889
0.928384
0.976404
0.564316
0.985086
0.989895
0.987905
0.995241
0.993672
0.992963
0.993848
0.991825
0.99791
0.994968
1
0.997123
0.990168
0.982013
0.989682
0.99004
0.993662
0.988648
0.987934
0.992874
0.989136
0.994039
0.991777
0.992581
0.983366
0.999539
0.993677
0.994893
0.982073
0.99855
0.998154
0.994543
0.997062
0.993537
0.99989
0.994064
0.99253
0.996921
0.994034
0.935241
0.77238
0.992053
0.939932
0.770289
0.994456
0.996864
0.980648
0.998091
0.999652
0.595889
0.484525
0.496379
0.637982
0.469848
0.985422
0.989886
0.999604
0.987289
0.991313
0.997595
1
0.993363
0.991615
0.445378
0.451627
0.543692
0.520262
0.433877
0.453631
0.530524
0.557174
0.980411
0.986637
0.994503
0.965098
0.995432
0.992812
0.975744
0.876792
0.981343
0.982637
0.81695
0.936895
0.603802
0.994634
0.998746
0.984056
0.991836
0.985405
0.996371
0.992416
0.994701
0.993791
0.994503
0.995822
0.9937
0.994232
0.954336
0.95329
0.985791
0.990527
0.994698
0.991479
0.988872
0.990312
0.995477
0.985015
0.994371
0.977296
1
0.998245
0.990206
0.972182
0.99911
0.996248
0.997971
0.994333
0.997833
0.993623
0.998032
0.995743
1
0.996366
0.939841
0.747736
0.98775
0.929552
0.791082
0.993517
0.997832
0.996921
0.991457
0.995741
0.620068
0.487232
0.507021
0.565227
0.493775
0.996582
0.995257
1
0.989482
0.990707
0.996212
1
0.988695
0.989406
0.437141
0.446973
0.529902
0.536218
0.434426
0.435267
0.532276
0.565996
0.983419
0.995732
0.990124
0.979586
0.993302
0.99707
0.994293
0.785422
0.932834
0.981429
0.769116
0.98694
0.580348
0.991846
0.993936
0.996811
0.99586
0.995216
0.996812
0.995125
0.998214
0.996456
0.994697
0.996812
0.997365
0.992143
0.954956
0.967657
0.988369
0.995054
0.99443
0.995085
0.994958
0.991656
0.99293
0.988887
0.995314
0.96549
0.997133
0.992617
0.968819
0.870941
0.991234
0.96533
0.970123
0.893612
0.996594
1
0.994337
0.994388
1
0.994185
0.943013
0.847841
0.94814
0.956458
0.941916
0.996941
0.996399
0.993952
0.997394
0.998761
0.684013
0.493534
0.515016
0.7046
0.496493
0.992606
0.982842
0.999802
0.991619
0.989437
0.995339
0.999241
0.999438
0.988981
0.451217
0.445495
0.54808
0.55304
0.448111
0.4545
0.535011
0.56264
0.987756
0.993844
0.996104
1
0.996322
0.996013
1
0.759198
0.995829
0.988225
0.773686
0.996818
0.590569
0.995331
0.990591
0.997911
0.997834
0.997639
0.9989
0.991718
0.996911
0.995639
0.991021
1
0.996122
0.993147
0.978319
0.984034
0.991363
0.994009
0.991554
0.989634
0.997202
0.998376
0.996585
0.988945
0.996778
0.921144
0.987743
0.938152
0.996755
0.997078
0.999242
0.997338
0.937797
0.996013
0.993963
0.996812
0.993551
0.993691
0.993622
0.998243
0.971703
0.977886
0.995853
0.9836
0.985919
0.997546
0.997754
0.99989
1
0.995895
0.731494
0.490905
0.579225
0.785483
0.515151
0.985841
0.993861
1
0.99775
0.989951
0.998256
0.99779
0.994544
0.997487
0.445685
0.454484
0.512917
0.599886
0.448761
0.465063
0.524848
0.573204
0.995033
0.990135
0.999426
1
0.998683
1
1
0.770356
1
0.997795
0.787749
1
0.598272
0.997979
1
1
0.990754
0.995308
1
0.997175
0.995609
0.998062
0.994195
1
0.99897
0.998142
0.974558
0.98961
0.991363
0.987671
0.995208
0.993208
0.99447
0.995128
0.99308
0.991777
0.996811
0.989493
1
0.997368
0.996454
0.996066
1
0.996459
0.997972
0.992653
0.990171
1
0.99022
0.996477
1
0.993851
0.996188
0.983611
0.99496
0.996883
0.979864
0.998213
0.997367
1
0.997364
0.99667
0.83067
0.502571
0.66103
0.848199
0.514561
1
0.997977
0.998384
0.993588
0.989951
0.997655
0.99845
0.9982
0.989677
0.451633
0.458162
0.521506
0.632511
0.452056
0.462813
0.532083
0.539243
0.991535
0.993004
0.999124
1
0.998993
1
1
0.804551
1
0.996497
0.827379
1
0.544774
0.997282
0.990173
0.996811
0.995938
0.998274
0.996151
0.989977
0.993187
0.996063
0.998878
1
0.998243
0.995509
0.995957
0.996025
0.986349
0.993313
0.996825
0.995383
0.998178
0.998376
0.997963
0.993743
0.999219
0.99337
1
0.996551
0.998498
0.995223
0.998517
0.994614
0.997972
0.993703
0.998568
1
0.995852
0.997252
1
0.998698
0.995613
0.98977
0.994804
0.995884
0.996809
0.994517
0.998877
0.996811
0.997061
1
0.898907
0.496532
0.751503
0.938554
0.508288
0.996373
0.999581
0.997132
0.992746
0.992948
0.99152
0.999044
0.996625
0.993007
0.451907
0.468012
0.526987
0.668442
0.458098
0.465976
0.544971
0.558009
0.987129
0.993702
1
1
0.997754
1
0.997476
0.872166
0.993635
0.998218
0.910319
0.996817
0.553107
0.991847
0.995957
0.997471
0.984216
0.994853
0.995711
0.994621
0.990036
1
0.997755
1
0.998243
0.998529
0.990518
0.997978
0.993941
0.992616
0.996885
0.985434
0.995413
0.995687
0.996944
0.99261
0.998113
0.989099
0.999045
0.989866
0.997687
0.99556
1
0.993615
0.986009
0.986287
0.995975
0.996812
0.997487
0.995394
0.996371
0.991367
0.993343
0.99351
0.995038
0.997367
0.988558
0.995608
0.99849
0.99824
0.997152
1
0.982748
0.518945
0.887635
0.989777
0.523235
0.998675
0.997977
0.999637
0.995163
0.993463
0.997204
0.995284
0.994769
0.997396
0.444709
0.459348
0.547555
0.729284
0.457426
0.457278
0.523717
0.556679
0.992235
0.989365
1
0.999341
0.994541
0.999124
1
0.937685
1
0.996497
0.965254
0.997366
0.629783
0.994913
0.992403
0.988347
0.992263
0.993794
0.996811
0.99195
0.990279
0.99894
0.997407
1
0.995668
0.996361
0.993934
0.991286
0.988927
0.993103
0.994429
0.994102
0.999057
0.997312
0.99296
0.992044
0.99642
0.996741
0.999671
0.998578
0.996214
0.993931
0.998978
0.994432
0.983211
0.984329
0.997756
0.996812
0.992915
0.993961
0.996811
0.997092
0.993827
0.990319
0.996821
0.997125
0.983387
0.997789
0.999458
1
0.997425
0.998838
0.980221
0.539346
0.974539
0.979775
0.586083
1
0.997977
0.996868
0.995107
0.993765
1
0.997428
0.998369
0.996821
0.460082
0.494368
0.515064
0.773396
0.466183
0.536465
0.506477
0.533361
0.988596
0.990346
0.995681
1
0.992644
0.994473
0.996817
0.988305
0.999451
0.998248
0.993569
0.993634
0.708
0.993658
0.993518
1
0.996711
0.989858
0.995711
0.99288
0.99252
0.993398
0.998877
0.996811
0.996214
0.998877
0.994562
0.995957
0.99798
0.992617
0.997664
0.995144
0.993624
0.998544
0.996675
0.995203
0.99642
0.998314
1
0.997731
0.998077
0.998146
0.999374
0.999697
0.993564
1
0.992414
0.997471
0.99567
0.996091
0.992963
0.995911
0.9977
0.982399
0.993526
0.994189
0.980856
0.998516
0.99489
1
1
0.996592
0.98143
0.677155
0.992531
0.977466
0.748374
1
1
0.997461
1
0.995612
1
0.998417
1
0.997941
0.455324
0.553403
0.523201
0.766817
0.451355
0.585273
0.506251
0.528109
0.987758
0.991814
0.995923
0.987378
0.985172
0.993476
0.98716
0.99938
0.996817
0.997554
0.992717
1
0.803653
0.992334
0.991218
0.990433
0.992222
0.996911
1
0.98994
0.994096
0.997789
1
0.996812
0.997607
0.995819
0.991912
0.994074
0.995334
0.993034
0.995628
0.993208
0.998113
0.994792
0.996705
0.994041
0.998145
0.995786
0.99776
0.998366
0.997206
0.995448
0.99967
0.998426
0.990627
0.993213
0.996285
1
0.995609
0.99222
1
0.99476
0.99298
0.977558
0.996937
0.995279
0.963693
0.998819
0.994619
0.996811
0.998818
0.989466
0.961321
0.8241
0.990233
0.950316
0.887779
0.997559
0.993721
0.997527
0.998425
0.999031
0.999278
0.997592
0.998369
0.999122
0.454592
0.631986
0.501333
0.7569
0.461545
0.685564
0.508569
0.536512
0.997411
0.991535
0.992903
0.996817
0.988424
0.991392
0.996927
0.99392
0.993086
0.994232
0.985085
0.98661
0.866394
0.998676
0.993936
1
0.993499
0.996518
0.974495
0.993307
0.992098
0.994427
0.997948
0.985049
0.990096
0.997832
0.997978
0.991215
0.993872
0.997144
0.995598
0.992375
0.998276
0.99944
0.996105
0.992074
0.996974
0.993314
0.999374
0.999092
0.996424
0.992693
0.99967
0.998245
0.993354
0.995942
0.997485
1
0.997547
0.993497
1
0.994791
0.993555
0.975468
0.991355
0.991345
0.974695
0.994548
0.997522
1
0.993395
0.998257
0.966266
0.932644
0.988812
0.970871
0.94753
0.997978
0.997558
0.997626
0.997301
0.997367
0.99991
0.999868
0.995837
0.99776
0.464809
0.728868
0.514217
0.757902
0.469753
0.786676
0.503933
0.558359
0.994963
0.997901
0.990699
0.980353
0.98401
0.99118
0.978819
0.992487
0.977174
0.998641
0.985473
0.987488
0.926755
0.995958
0.991985
0.984275
0.988432
0.99231
0.993513
0.994969
0.991127
0.98946
0.995858
1
0.990671
0.996013
0.995677
0.998676
0.999861
0.99805
0.995328
0.993685
0.995283
0.995183
0.994608
0.993326
0.993882
0.997977
0.998484
0.999939
0.999129
0.986793
0.999044
0.999425
1
0.995942
0.994001
0.993622
0.996275
0.993615
0.993624
0.996214