/*--------------------------------*- C++ -*----------------------------------*\
| =========                 |                                                 |
| \\      /  F ield         | OpenFOAM: The Open Source CFD Toolbox           |
|  \\    /   O peration     | Version:  5.x                                   |
|   \\  /    A nd           | Web:      www.OpenFOAM.org                      |
|    \\/     M anipulation  |                                                 |
\*---------------------------------------------------------------------------*/
FoamFile
{
    version     2.0;
    format      ascii;
    class       surfaceScalarField;
    location    "1.85";
    object      phi;
}
// * * * * * * * * * * * * * * * * * * * * * * * * * * * * * * * * * * * * * //

dimensions      [0 3 -1 0 0 0 0];

internalField   nonuniform List<scalar> 
29271
(
-6.65481e-06
3.81413e-07
2.02135e-06
4.38379e-06
-1.45084e-05
-3.10528e-06
5.59151e-06
1.21882e-05
-2.90544e-05
-7.56525e-06
1.6793e-06
-2.18961e-06
9.72709e-06
2.74029e-05
-2.71723e-05
-7.32209e-06
2.38591e-06
-1.08266e-06
1.10773e-05
2.21139e-05
-2.65094e-05
-4.05433e-06
2.91358e-06
7.97893e-06
2.00916e-05
-4.20354e-07
-3.00541e-05
-6.94885e-06
7.46347e-07
-5.40506e-06
6.14513e-06
3.55166e-05
-4.17788e-05
-3.93321e-06
3.21715e-06
9.93894e-07
7.13039e-06
3.43706e-05
-3.76239e-05
-1.01863e-05
-1.38405e-06
-4.22478e-07
1.72756e-05
3.23411e-05
-3.25806e-05
-8.03969e-06
1.2138e-06
-6.45453e-07
1.23307e-05
2.77212e-05
-1.97924e-05
-4.17498e-06
7.67716e-06
1.80234e-05
-1.65627e-06
-1.00737e-05
-1.75164e-06
4.67442e-06
7.335e-06
-5.11871e-05
-9.77337e-07
-2.34059e-06
-5.02023e-07
5.62615e-06
4.93809e-05
-1.95638e-05
-4.46279e-06
1.89666e-06
1.52538e-06
3.34109e-06
1.72634e-05
-5.66162e-05
-2.95455e-05
-1.38809e-05
1.9213e-05
2.37532e-05
5.70764e-05
-4.64104e-05
-2.48917e-05
-1.3355e-05
8.26755e-07
4.14721e-05
4.23582e-05
-5.40551e-05
-1.01112e-05
-5.40763e-06
2.12364e-05
3.93187e-05
9.01886e-06
-3.41322e-05
-2.92298e-06
2.46126e-06
-2.33078e-06
3.57161e-05
1.20852e-06
-4.21582e-05
1.27049e-06
-3.62491e-06
6.35043e-06
3.2112e-06
3.4951e-05
-3.12565e-05
-1.35242e-05
-7.05902e-06
8.73647e-07
1.4143e-05
3.6823e-05
-5.33296e-05
-3.01045e-05
5.84823e-06
8.93113e-05
-2.6847e-05
1.51215e-05
-1.39371e-05
-9.70362e-06
1.41175e-05
9.53616e-06
-2.05958e-05
-1.04738e-06
-5.62125e-06
2.51811e-05
2.35192e-06
-5.98387e-05
6.12588e-06
-2.76697e-06
3.30108e-06
5.12413e-05
1.93745e-06
-6.50949e-06
8.81901e-07
2.28464e-06
3.41015e-06
-2.75272e-06
3.18845e-07
1.46704e-06
1.10944e-06
-1.16868e-05
-7.0424e-07
1.3764e-06
1.12141e-05
-6.19909e-06
-1.71012e-07
-2.65823e-05
-4.49099e-07
1.20245e-05
2.1377e-05
-6.74046e-06
-1.86876e-05
7.13325e-07
-8.35321e-07
1.12528e-05
1.42972e-05
-1.46446e-05
-4.1008e-06
1.50699e-07
1.32945e-05
5.12605e-06
1.74122e-07
1.64459e-06
-3.58903e-07
-3.08825e-05
1.75641e-06
-4.02831e-06
3.18687e-05
5.06439e-06
-1.44632e-05
0.000164474
-3.12785e-05
-3.17304e-05
-2.72051e-05
-3.68829e-05
-4.51322e-06
-6.49043e-06
-3.32739e-06
-3.24175e-06
-1.3398e-06
-3.48138e-06
-2.36323e-06
-3.2208e-06
-4.99691e-06
-2.56841e-05
0.000188808
-3.05435e-05
-2.85167e-05
-3.91044e-05
-3.18819e-05
-7.57182e-06
-5.968e-06
-5.46086e-06
-4.01505e-06
-2.04488e-06
-4.10385e-05
0.000188264
-8.85615e-06
-2.19728e-06
-1.03242e-05
-6.48197e-06
-1.81178e-06
-6.00499e-06
-3.45339e-06
-2.79518e-05
-2.47e-05
-2.96777e-05
-2.8718e-05
-2.08081e-05
-2.29199e-06
-4.32401e-07
2.1603e-05
-3.45308e-06
2.24986e-06
-2.05044e-07
1.39854e-06
1.08568e-06
-4.06174e-05
6.68212e-06
-7.44698e-07
1.17737e-06
3.24169e-05
-3.96107e-06
-1.71084e-05
6.83445e-05
-1.37169e-05
-1.65411e-05
-1.83506e-05
-1.38006e-05
-1.04201e-06
-4.00692e-07
-4.64316e-07
2.57794e-06
-7.76852e-06
-2.84882e-05
0.000243463
-4.78481e-05
-3.55638e-05
-4.08214e-05
-0.000112619
4.86391e-06
-5.2668e-06
0.000136602
4.47676e-06
2.57917e-05
2.39844e-05
-1.41656e-06
1.04536e-06
6.27701e-07
-3.47056e-05
-4.41964e-05
-0.000117146
-4.34679e-05
-3.28627e-05
2.25533e-06
1.5449e-06
-2.05431e-06
3.59807e-05
-4.69752e-05
-2.5902e-07
-6.0018e-06
-2.19561e-06
5.24795e-05
2.95214e-06
-3.75286e-05
-4.19211e-06
0.000140511
1.68806e-05
1.47281e-05
1.9426e-05
1.58593e-05
-3.42054e-06
8.73356e-07
-9.73323e-07
-3.09776e-05
-3.54299e-05
-5.18532e-05
-6.10121e-05
-1.221e-05
-2.37589e-06
0.000282093
-1.99323e-06
5.60643e-06
7.13209e-07
-5.05921e-07
2.03171e-07
2.17435e-06
-5.12074e-05
-0.000108675
-0.000108338
-7.15008e-05
-8.33737e-05
-3.62807e-07
9.16398e-07
6.53433e-05
-8.34384e-06
8.67284e-07
-3.55921e-06
1.10253e-05
-3.56776e-05
1.44227e-05
-1.7343e-05
3.44071e-05
-2.87338e-05
3.8004e-06
2.07657e-06
-7.08913e-07
2.11899e-05
-3.67124e-06
-2.4971e-07
-1.61935e-07
4.06325e-06
5.54588e-07
8.07928e-08
9.34566e-07
-1.57863e-06
-1.08445e-05
6.87534e-06
-6.15046e-06
1.01556e-05
-3.43873e-06
-7.33297e-06
-2.40884e-05
1.48519e-06
4.35394e-07
3.29395e-05
-3.80554e-06
-1.73975e-05
1.51681e-06
-2.64774e-06
1.98482e-06
2.03491e-05
1.23141e-06
-1.10554e-06
-4.3168e-07
6.07157e-06
-6.19649e-06
4.30729e-07
8.25318e-06
-1.94072e-05
-4.36426e-05
1.17136e-05
-1.75278e-05
6.06108e-05
1.3906e-05
-1.15204e-05
0.000226883
-3.59811e-06
-6.01528e-06
-1.94254e-06
-8.59919e-07
-1.13893e-05
-9.43168e-06
-1.51187e-05
-1.6439e-05
-1.285e-05
-4.14287e-05
0.000250737
3.7963e-07
-5.77175e-07
3.62918e-06
2.82409e-06
-1.1964e-05
-1.57284e-05
0.000238859
-8.88665e-06
-2.0299e-06
-2.30208e-06
1.82685e-06
-7.68122e-06
-8.79351e-06
-7.88684e-06
-2.16863e-05
-2.98704e-07
-9.55116e-06
1.95809e-05
-5.70365e-07
8.79929e-07
-5.58896e-07
2.17968e-07
-5.09732e-06
-4.04621e-05
2.02089e-05
3.96105e-06
-3.34634e-05
5.48529e-05
-1.20849e-06
-3.16423e-05
0.000119532
-3.60285e-06
-1.5566e-05
-3.63297e-06
-7.05487e-06
-6.39404e-07
-6.08417e-05
0.000262307
1.07782e-05
-4.33538e-06
0.000102154
1.04951e-05
4.94269e-06
2.61006e-06
-3.1515e-06
-1.05156e-06
-2.20716e-06
-5.23531e-05
1.18488e-05
1.6277e-05
-2.2051e-05
5.70564e-05
-5.2263e-05
9.86362e-07
-5.8197e-06
-1.346e-06
4.30007e-05
1.54416e-05
7.60277e-06
-6.48984e-06
9.4135e-05
6.58688e-06
5.90629e-06
5.17005e-06
1.40714e-06
-1.60322e-06
-2.73641e-06
-1.10939e-06
7.6743e-06
1.63042e-06
0.000164352
7.97843e-06
3.43318e-06
1.74008e-05
5.89326e-06
3.26954e-06
1.72218e-05
-5.37702e-05
2.41173e-05
6.67488e-06
2.63169e-05
-1.44788e-05
1.11677e-05
-1.73493e-05
2.06086e-05
-2.75145e-05
6.08083e-06
1.91402e-06
1.3025e-05
-2.14732e-05
-5.37136e-06
8.46878e-06
-1.31568e-06
2.13219e-05
-5.65144e-06
-2.1391e-06
-3.2436e-06
1.0829e-05
2.01311e-06
-3.92902e-07
7.19216e-07
-2.33239e-06
-1.06785e-05
6.98608e-06
-9.92604e-06
1.36165e-05
-2.60518e-08
-9.12227e-06
-4.11329e-05
6.90269e-06
-4.34731e-06
4.77259e-05
-2.03235e-06
-2.32815e-05
-2.05351e-06
1.90931e-07
7.16917e-07
2.64595e-05
7.38257e-06
-3.64013e-07
-3.46015e-07
1.54482e-06
-7.59962e-06
-6.17741e-07
1.11436e-05
-9.66466e-06
-7.23808e-05
1.55292e-05
-1.84627e-05
7.38353e-05
4.33533e-05
-2.34933e-05
0.00025235
7.54028e-07
3.4439e-07
5.63746e-06
5.68861e-06
-1.39216e-05
-1.87218e-05
-1.13475e-05
-1.3761e-05
7.3886e-06
-4.66667e-05
0.000306231
4.91727e-06
1.74742e-06
1.09047e-05
9.56744e-06
-3.01214e-06
-8.92569e-06
0.000262641
-2.48151e-06
1.35181e-06
3.55904e-06
2.32677e-06
-4.41788e-06
-1.19195e-06
-3.60168e-06
-1.89202e-05
6.21266e-07
-5.11282e-06
2.03868e-05
4.78368e-08
-5.12087e-08
3.46584e-07
-3.23387e-07
-5.76225e-06
-5.79162e-05
2.23535e-05
1.25407e-05
-2.02951e-05
4.90794e-05
2.0703e-05
-4.21086e-05
0.000157778
-1.20335e-05
-8.10171e-06
-1.15851e-05
-8.61379e-06
9.78013e-06
-4.90515e-05
0.000275615
-9.37517e-07
-5.92225e-07
0.000109209
-6.82242e-07
-3.06617e-06
-9.97491e-08
-7.56437e-07
1.15913e-07
-1.81975e-07
-5.66772e-05
3.65006e-06
3.27427e-06
-5.77747e-06
5.45929e-05
-3.08969e-05
2.17308e-06
3.1528e-06
-1.39285e-06
1.51481e-05
1.18157e-05
6.01458e-06
-7.05813e-07
9.45689e-05
-1.41984e-05
-2.24001e-05
-6.02497e-06
-5.4405e-06
8.49092e-08
-1.73754e-07
3.01536e-07
1.17402e-06
1.18208e-06
7.08075e-05
1.0517e-05
1.76321e-06
8.64294e-06
1.18661e-05
1.35971e-06
1.40028e-05
-1.06615e-05
1.35534e-06
4.26691e-06
5.62105e-06
-2.4163e-05
4.35648e-06
-5.44932e-06
2.49161e-05
-4.58847e-06
-2.10524e-06
1.86215e-06
4.01664e-06
-1.63177e-05
-1.65786e-06
1.13879e-05
-4.91103e-07
8.26086e-06
-2.53847e-05
-3.17256e-06
-1.40827e-05
4.25901e-05
2.41683e-06
-2.62976e-07
2.96105e-07
-2.44143e-06
-1.88858e-05
6.23799e-06
-1.05154e-05
2.31343e-05
2.08236e-06
-6.72534e-06
-5.64158e-05
7.59217e-06
-1.02543e-05
6.37209e-05
-6.17929e-07
-3.15864e-05
-2.27971e-06
3.70588e-06
-8.67535e-07
3.16457e-05
4.51816e-06
-3.18681e-07
1.49173e-06
8.11953e-07
-1.34825e-06
-5.15491e-06
8.15188e-06
3.42776e-06
-6.63743e-05
1.05087e-05
-8.36757e-06
5.26535e-05
2.93131e-05
-8.6624e-07
0.000259683
4.35849e-06
4.01958e-06
4.10075e-06
7.3715e-06
-1.52167e-05
-1.54363e-05
-1.33553e-05
-1.16221e-05
2.53562e-05
-3.18489e-05
0.000311072
6.45375e-06
5.83e-06
9.31403e-06
9.36732e-06
4.40662e-07
3.02423e-06
0.000277488
-6.91996e-07
-1.74678e-08
3.67294e-06
2.33831e-06
-1.71222e-06
2.79734e-06
6.57809e-07
-2.21164e-05
2.04372e-06
-3.024e-06
2.35733e-05
6.19124e-07
-1.87128e-07
2.52291e-07
-6.21415e-07
1.45635e-06
-3.86614e-05
8.57078e-06
3.20843e-06
-1.20067e-06
2.66265e-05
1.33924e-05
1.8297e-06
0.00016776
-1.43761e-05
-6.40306e-06
-4.62514e-06
-6.66436e-07
2.33012e-05
-7.74421e-06
0.000241601
-2.10936e-06
2.0375e-06
0.000123705
9.18239e-07
-8.20847e-07
3.38282e-06
1.59921e-06
3.40117e-06
3.41998e-06
-5.28741e-05
-2.57541e-06
-5.24556e-06
3.20226e-06
5.53835e-05
-8.72976e-06
4.1224e-07
1.23623e-07
6.71426e-07
7.79867e-06
-2.76203e-07
3.43661e-06
7.81247e-07
9.38162e-05
-2.06525e-06
-1.64656e-06
-2.31654e-07
-5.48274e-07
7.21185e-07
1.05563e-06
1.07946e-06
3.17218e-07
1.09913e-06
4.54961e-05
4.22432e-06
9.4589e-07
4.75202e-06
5.16133e-06
1.45657e-06
3.04728e-06
-4.48887e-06
1.87185e-06
1.53981e-08
4.95634e-06
-2.38954e-05
-5.70766e-07
-2.0554e-07
2.46604e-05
-3.94317e-06
-5.17813e-07
5.81695e-07
4.45229e-06
-4.98957e-06
-4.83456e-07
2.69148e-06
-4.8886e-08
3.92957e-06
-5.91032e-05
8.48788e-06
-1.50781e-05
6.56456e-05
2.4723e-06
-1.63441e-07
1.87964e-07
-2.49558e-06
-2.28804e-05
3.80457e-06
-8.11653e-07
1.98898e-05
-9.5885e-07
-5.11477e-06
-6.87428e-05
1.7149e-06
1.49702e-07
7.29518e-05
-6.03053e-08
-2.85186e-05
4.00707e-06
3.71733e-06
1.73229e-06
1.91223e-05
-4.02403e-06
-2.51553e-08
2.89678e-06
-3.15596e-07
8.21044e-06
-6.74243e-06
2.32914e-06
3.59926e-06
-3.55849e-05
1.97161e-06
2.28664e-07
2.74562e-05
1.99936e-05
5.85829e-06
0.000263879
2.7947e-08
8.36053e-07
-1.48994e-06
-1.1708e-06
-6.96644e-06
-7.21576e-06
-7.20756e-06
-6.86136e-06
2.52208e-05
-8.13745e-06
0.00030219
2.06901e-06
3.98471e-06
5.22551e-07
5.21585e-06
2.35724e-06
1.2835e-05
0.000288745
-4.77879e-07
-4.7718e-07
8.87129e-07
-2.14611e-06
-7.92354e-07
2.11518e-06
-3.37172e-07
-2.44798e-05
-5.75586e-08
1.00656e-06
-2.53862e-06
2.84266e-05
-3.8941e-09
-4.52582e-10
3.34277e-08
-3.45535e-08
6.34117e-07
-1.31362e-06
2.38866e-06
-1.72594e-06
-1.59435e-06
-2.53809e-05
-6.52718e-06
1.15996e-06
5.29994e-06
2.70425e-05
-8.0839e-07
4.70892e-06
0.000176915
-1.73982e-06
-5.77905e-07
-2.27557e-06
-2.60385e-06
1.87033e-05
1.98023e-05
0.00019415
-1.94544e-06
6.25977e-06
0.000139378
2.30287e-06
-2.26375e-06
8.67694e-07
3.30814e-06
6.28162e-06
1.05436e-06
-5.8059e-05
-3.83976e-06
-7.53236e-07
1.5062e-05
4.56446e-05
-2.88139e-08
-9.64404e-08
2.6384e-09
9.29146e-09
1.0773e-07
-9.1245e-06
-4.36565e-06
3.70848e-06
1.72208e-06
1.05515e-05
-2.49188e-06
5.21572e-06
1.43236e-06
0.0001041
-2.06996e-06
-1.72042e-06
-5.84456e-06
-5.20241e-06
1.45413e-06
1.01998e-06
1.39886e-07
-1.30382e-06
3.06e-06
4.87998e-05
4.99807e-06
-3.51166e-06
4.63261e-06
7.00622e-06
5.59818e-07
6.27308e-06
-8.44479e-06
-2.12384e-06
8.86506e-07
1.46381e-05
-3.06968e-05
-4.29977e-06
2.3231e-06
3.26712e-05
-5.10028e-06
5.87974e-07
-1.1418e-06
7.01461e-06
-5.22509e-06
2.98843e-07
-5.27897e-07
8.69979e-07
7.64416e-06
-6.54259e-05
1.03777e-05
-8.23865e-06
6.3276e-05
2.54497e-06
-2.32322e-07
3.08301e-07
-2.64366e-06
-1.36486e-05
2.53592e-06
4.74136e-06
6.37357e-06
-9.23337e-07
-2.2766e-06
-7.59961e-05
-2.83984e-06
4.19436e-06
7.78416e-05
3.33326e-07
-8.19767e-06
2.19138e-06
4.2885e-06
7.6303e-07
6.21431e-07
-1.05224e-05
1.63549e-06
1.51578e-06
-1.82751e-06
1.30215e-05
-3.82289e-06
-7.73026e-06
-2.78764e-06
-2.66111e-05
5.55111e-06
5.79247e-06
2.57854e-05
2.37849e-05
1.08345e-05
0.000275996
-4.01642e-06
-4.30164e-06
-4.31579e-06
-3.60794e-06
-7.57734e-06
-8.73876e-06
-6.69116e-06
-7.48767e-06
1.4784e-05
5.41062e-06
0.000306204
-4.01345e-06
1.49138e-06
-7.23066e-07
2.82146e-06
1.51853e-06
1.63299e-05
0.000292383
-1.75133e-06
-2.35568e-06
2.33253e-07
-2.25375e-06
-1.69638e-06
1.36566e-06
-2.44318e-07
-3.11167e-05
-1.76292e-06
6.95322e-06
4.62307e-06
2.28219e-05
2.86071e-07
-1.41452e-06
-2.34509e-06
-9.76548e-08
2.22725e-06
1.34394e-06
2.76515e-06
-7.39892e-07
9.02523e-07
-2.9255e-06
-2.95852e-06
-2.85736e-05
-4.14573e-06
4.48751e-06
3.25661e-06
2.79337e-05
3.67122e-06
5.97529e-06
0.000191688
-4.01148e-06
-4.23304e-06
-2.23453e-06
-3.10591e-06
2.36975e-06
9.19503e-06
0.000191667
-3.41791e-06
3.63126e-06
0.000151679
-2.58146e-08
-2.79659e-06
2.86711e-07
2.27777e-06
4.75703e-06
1.68671e-06
-4.42715e-05
-4.73813e-06
-2.10283e-06
6.6002e-06
4.10943e-05
-2.92162e-07
-1.0526e-06
-5.36414e-07
-7.72126e-07
9.73283e-07
1.68002e-06
-7.47215e-06
-1.84577e-06
5.50398e-06
-1.52344e-09
3.48721e-06
3.28248e-07
7.36912e-06
3.6668e-06
0.000102226
-5.29095e-06
-4.15121e-06
-3.45692e-06
-2.91973e-06
3.51248e-06
4.0776e-06
5.04279e-06
-5.34793e-06
-1.78724e-06
6.01131e-05
4.4477e-06
-5.06944e-06
4.44602e-06
5.38595e-06
-1.76853e-06
4.94433e-06
-2.19924e-05
-6.20187e-06
-1.99868e-06
2.84763e-05
-2.8506e-05
-1.71078e-05
4.08495e-06
4.12344e-06
3.7405e-05
-1.05953e-06
8.32938e-07
-9.53496e-07
1.18009e-06
-9.57361e-06
-2.13985e-06
2.71602e-06
1.26653e-05
-8.94197e-06
-2.48199e-07
-2.24405e-06
-5.39543e-07
1.01865e-05
-6.14201e-05
8.61081e-06
-6.20256e-06
5.90118e-05
2.74208e-06
-3.85037e-07
5.06378e-07
-2.88919e-06
-1.02773e-06
4.97178e-07
1.86528e-06
-1.33314e-06
-1.42655e-07
-4.09799e-08
-7.87838e-05
-4.36483e-06
4.39334e-06
7.8939e-05
6.97574e-07
2.62952e-06
1.12385e-06
1.0044e-06
-1.3667e-06
-4.08864e-06
-1.54018e-05
1.58699e-06
-8.00966e-07
-1.84892e-06
1.63324e-05
1.32298e-07
-6.31624e-06
-2.60046e-07
-2.4833e-05
2.08485e-06
6.43077e-06
2.28937e-05
2.37151e-05
1.44838e-05
0.000275841
-4.24797e-06
-5.52756e-06
-3.90679e-06
-4.07596e-06
-5.19423e-06
-6.89391e-06
-4.04834e-06
-4.14826e-06
1.02658e-05
1.19988e-05
0.000308823
-2.68412e-06
4.99595e-08
-7.52143e-09
1.47268e-06
1.04408e-06
1.82219e-05
0.00028957
-2.70377e-06
-2.41305e-06
-7.3115e-07
-1.7246e-06
2.03334e-07
8.35741e-08
1.0987e-06
-2.09892e-05
-3.18371e-06
4.19376e-07
6.63878e-06
1.81588e-05
-1.60276e-06
1.19875e-06
1.61715e-06
-1.71375e-06
-1.19598e-07
6.20206e-07
2.83582e-06
-5.518e-07
5.35985e-07
-2.81985e-06
-1.18916e-06
-2.79558e-05
-6.15347e-06
3.18345e-06
4.21063e-06
2.79043e-05
3.23339e-06
9.38228e-06
0.00020068
-2.6465e-06
-2.90219e-06
-7.8489e-07
-7.90054e-07
-5.6981e-06
1.179e-05
0.000200807
-2.89406e-06
1.88497e-06
0.000161755
-1.79781e-07
-1.44606e-06
3.71134e-07
8.72674e-07
3.56429e-06
2.74935e-07
-3.92046e-05
-6.26144e-06
-7.54587e-07
5.76325e-06
3.75633e-05
-2.62557e-06
3.42899e-07
4.912e-07
-1.18635e-06
1.76781e-07
2.80104e-06
-5.95491e-07
-3.05706e-07
1.91286e-06
2.04809e-06
-1.39602e-06
-1.66373e-06
3.75435e-06
3.32193e-06
0.000103376
-3.583e-06
-2.6171e-06
-2.29044e-06
-1.83813e-06
4.2456e-06
3.33462e-06
3.90426e-06
-6.82269e-06
-1.63401e-06
7.65194e-05
4.07339e-06
-6.13546e-06
3.81247e-06
4.17875e-06
-1.59938e-06
3.26492e-06
-3.58307e-05
-6.72807e-06
-2.77261e-06
4.03937e-05
-3.87234e-05
-3.95359e-06
5.00247e-06
1.78311e-06
3.58904e-05
-3.04386e-06
-9.19614e-10
-3.91496e-06
2.66277e-06
4.29697e-06
-1.4144e-05
-1.89501e-06
4.47262e-06
1.48892e-05
-1.29717e-05
-2.54421e-06
-1.7016e-06
-9.29638e-07
1.65131e-05
-5.6608e-05
7.13801e-06
-4.2689e-06
5.3742e-05
3.06872e-06
-6.77001e-07
7.96307e-07
-3.19487e-06
1.86352e-06
-1.44343e-06
1.46544e-06
-1.88365e-06
-3.48298e-07
3.63055e-06
-7.80156e-05
-5.71877e-06
4.30753e-06
7.61446e-05
-1.35813e-06
3.74767e-06
8.37222e-07
-8.886e-07
3.32187e-07
-2.67035e-06
-1.79932e-05
1.31628e-06
-3.17565e-06
-2.03325e-06
1.93015e-05
2.58426e-06
-4.58217e-06
-1.15011e-07
-2.05365e-05
6.8092e-07
5.60521e-06
1.89475e-05
1.87978e-05
1.58662e-05
0.000271749
-4.38665e-06
-6.07377e-06
-4.33535e-06
-4.87138e-06
-2.67676e-06
-4.24368e-06
-1.78252e-06
-2.20171e-06
6.65666e-06
1.49047e-05
0.000305891
-1.18028e-06
-8.12452e-07
1.23365e-06
9.27456e-07
-5.1322e-09
1.86513e-05
0.000285037
-2.56207e-06
-4.85745e-07
-7.87582e-07
-1.14789e-06
1.1115e-06
-3.26855e-06
-3.16223e-07
-1.99167e-05
4.79036e-07
-1.5898e-06
4.04714e-06
1.69752e-05
3.14687e-06
2.80415e-06
-7.22675e-08
-3.67037e-06
-2.20838e-06
2.6933e-06
-1.93181e-07
1.4374e-07
-2.64499e-06
1.14031e-07
-2.81645e-05
-5.20664e-06
1.35255e-06
3.27306e-06
2.86315e-05
1.06473e-06
1.04479e-05
0.000206266
-1.41116e-06
-8.55165e-07
1.38199e-07
8.9531e-07
-8.40465e-06
1.78473e-05
0.000207334
-1.62421e-06
1.59365e-06
0.000172948
6.97088e-09
-1.59454e-06
-2.2483e-06
6.56673e-07
3.41599e-06
-1.15341e-06
-3.69263e-05
-5.49999e-06
8.91665e-07
4.58491e-06
3.53255e-05
-3.54086e-06
4.42895e-06
-2.46254e-06
2.80843e-06
-3.9762e-06
2.74223e-06
1.55741e-06
3.07412e-07
-1.49227e-08
-1.05253e-06
-3.95243e-07
-4.02125e-07
-1.23223e-06
2.63535e-06
0.000110344
-2.51961e-06
-1.04565e-06
-1.36321e-06
1.4015e-07
2.44298e-06
2.47438e-06
1.94787e-06
-8.01305e-06
-1.54272e-06
9.93371e-05
3.11606e-06
-6.93744e-06
2.83572e-06
3.1914e-06
-1.62877e-06
2.77616e-06
-4.63107e-05
-7.08752e-06
-2.00762e-06
4.89865e-05
-2.76073e-05
-6.68191e-06
4.19944e-06
3.00921e-05
-1.45913e-05
5.62136e-07
3.31106e-06
1.33545e-05
-1.99464e-05
-2.64024e-06
-5.79685e-07
-1.14967e-06
2.27732e-05
-5.07735e-05
5.81202e-06
-3.31725e-06
4.82787e-05
3.0584e-06
-7.21515e-07
1.48994e-07
-2.48485e-06
2.01005e-06
-3.30365e-06
3.47013e-06
-2.17469e-06
-2.03535e-07
5.357e-06
-7.33062e-05
-4.46683e-06
3.94057e-06
6.8679e-05
3.58559e-08
1.01695e-06
3.89395e-07
-1.82587e-06
-1.06782e-06
1.4515e-06
-2.05086e-05
2.51123e-06
-3.24752e-06
-2.55994e-06
2.1651e-05
2.1539e-06
-4.31323e-06
4.45715e-07
-1.86992e-05
-1.37643e-06
4.03713e-06
1.9906e-05
1.44717e-05
1.7817e-05
0.000263793
-5.03834e-06
-7.13328e-06
-4.78021e-06
-5.05681e-06
-5.0622e-07
-2.38082e-06
7.22876e-07
-1.60605e-07
5.85666e-06
1.731e-05
0.000295259
-2.28529e-07
-1.21368e-06
2.28654e-06
1.09345e-06
-3.38265e-06
1.51786e-05
0.000283915
-2.16757e-06
-2.4573e-07
2.82958e-07
7.49796e-07
-1.8644e-06
-7.4293e-07
-8.29818e-07
-1.60489e-05
-2.32563e-07
-1.994e-06
1.48915e-05
2.47811e-06
6.18164e-08
-2.44621e-07
-2.29446e-06
1.14958e-06
-2.93862e-05
-3.44602e-06
-8.36083e-07
2.47278e-06
3.0046e-05
-1.47702e-06
1.15542e-05
0.000208948
1.17648e-08
7.44302e-07
2.1129e-06
2.18895e-06
-9.08412e-06
2.15972e-05
0.000210654
-2.80314e-06
7.55552e-07
0.000187026
-3.59331e-06
-1.51533e-06
-1.4967e-06
-1.84247e-06
3.34331e-06
-8.30893e-07
-4.55504e-05
-9.70097e-07
6.1983e-08
2.46763e-07
4.34086e-05
-1.57898e-06
1.03945e-06
-9.63677e-07
-1.95939e-06
3.92218e-06
-4.59594e-07
-1.28651e-06
1.76213e-06
0.000119551
-1.80304e-06
7.09903e-07
-1.0123e-06
7.94013e-07
1.05553e-06
1.48243e-06
6.44579e-07
-8.22898e-06
-1.04176e-06
0.000125104
2.38772e-06
-6.4294e-06
2.43738e-06
3.03838e-06
-5.67757e-07
2.9487e-06
-5.40283e-05
-7.44128e-06
-1.63563e-06
5.56318e-05
-2.82116e-05
2.09557e-06
4.17187e-06
2.19488e-05
-1.23042e-05
1.47539e-06
1.52886e-06
1.10622e-05
-2.4924e-05
-2.21001e-06
-7.14612e-08
-6.43143e-07
2.68069e-05
-4.65113e-05
4.50152e-06
-3.02484e-06
4.50346e-05
1.44605e-06
1.75365e-07
-1.29594e-06
-3.28831e-07
2.06287e-06
-4.4399e-06
3.85399e-06
-1.47669e-06
1.15765e-06
4.87459e-06
-6.28988e-05
-1.44517e-06
2.75893e-06
5.55528e-05
1.58819e-06
-4.12974e-06
2.4546e-07
-1.20716e-06
-2.68388e-06
6.18713e-06
-2.33492e-05
3.33689e-06
-1.82221e-06
-3.28538e-06
2.47127e-05
4.07176e-07
-3.66008e-06
1.54497e-06
-2.18591e-05
-3.50063e-06
3.17685e-06
2.4298e-05
9.26019e-06
1.69437e-05
0.000250218
-4.86982e-06
-6.71094e-06
-4.56203e-06
-3.47585e-06
1.89451e-06
-1.08519e-07
2.65086e-06
2.55303e-06
7.31048e-06
1.76127e-05
0.000274823
9.74736e-07
-6.36217e-07
2.86498e-06
1.56943e-06
3.5412e-07
1.29598e-05
0.000272082
-8.74339e-07
8.84665e-07
1.00429e-06
1.32266e-06
3.65846e-07
1.55563e-06
1.57049e-06
-1.60277e-05
1.39051e-06
-3.0705e-06
1.80628e-05
2.01717e-06
9.04957e-08
-5.14283e-07
-1.59013e-06
2.3115e-06
-3.08377e-05
-2.51296e-06
-3.2399e-06
2.53049e-06
3.17485e-05
-1.55111e-06
1.01601e-05
0.000207173
2.04853e-06
1.16265e-06
4.22695e-06
2.6719e-06
-6.10938e-06
2.1494e-05
0.000211331
8.72802e-08
8.04807e-07
0.000191037
-4.12782e-07
1.14428e-06
5.40609e-07
-1.30772e-06
2.97528e-06
-9.92023e-07
-4.10475e-05
1.18552e-06
2.9058e-06
-2.76522e-06
3.98087e-05
-6.41247e-06
1.49306e-06
-1.30679e-06
-9.20369e-07
8.57845e-06
-1.43188e-06
-6.00805e-06
1.39829e-06
0.000129824
-7.01596e-07
9.82319e-07
7.61092e-07
7.0363e-07
3.96809e-07
1.60161e-06
7.53683e-07
-8.23084e-06
-6.77015e-07
0.000146665
1.39457e-06
-5.97332e-06
1.44045e-06
3.0069e-06
6.93865e-08
2.89396e-06
-5.92775e-05
-5.3969e-06
-1.3546e-06
5.86029e-05
-1.95579e-05
7.13122e-07
1.01203e-06
1.78374e-05
-1.00997e-05
1.46934e-06
2.94869e-07
9.73505e-06
-2.88331e-05
-1.35133e-06
-8.33803e-07
-1.88326e-08
3.036e-05
-4.34943e-05
3.95904e-06
-2.03067e-06
4.15768e-05
-7.87172e-07
7.50652e-07
-1.72524e-06
1.76176e-06
6.80678e-07
-3.07801e-06
2.5494e-06
-1.59815e-07
2.89596e-06
2.923e-06
-4.78086e-05
-7.40674e-08
1.44506e-06
4.06186e-05
1.64871e-06
-7.94887e-06
2.60236e-07
-6.84587e-07
-2.76185e-06
9.48635e-06
-2.58316e-05
3.94325e-06
-9.90864e-07
-3.37978e-06
2.6496e-05
-2.36958e-07
-2.64666e-06
2.82703e-06
-2.70441e-05
-5.43723e-06
2.12947e-06
3.01715e-05
7.34207e-06
1.27294e-05
0.000231366
-4.91942e-06
-3.23813e-06
-3.99071e-06
-2.08462e-07
3.02496e-06
1.59339e-06
3.32378e-06
3.19537e-06
8.4957e-06
1.48894e-05
0.000253866
1.17708e-06
-1.66047e-07
2.34437e-06
1.55869e-06
1.18028e-06
7.84427e-06
0.000263156
-1.12048e-07
1.152e-06
1.43746e-06
1.334e-06
1.32344e-06
1.49406e-06
1.76826e-06
-2.06413e-05
1.5858e-06
-2.76272e-06
2.29978e-05
1.00246e-06
1.70971e-07
-1.08597e-06
-8.92524e-08
3.60085e-06
-3.31971e-05
-1.84324e-06
-4.96229e-06
2.09293e-06
3.43089e-05
-2.02937e-06
1.23869e-05
0.000195971
3.44759e-06
1.50524e-06
5.33797e-06
3.28303e-06
-1.9702e-06
2.19993e-05
0.000204162
1.45351e-06
1.25112e-08
0.000192673
1.17224e-06
1.8095e-06
1.3423e-06
-1.86957e-06
1.95201e-06
-1.63459e-06
-3.97446e-05
1.61294e-06
2.64425e-06
-2.9719e-06
3.99128e-05
-1.0713e-05
8.03537e-07
-1.43743e-06
3.22715e-07
1.24668e-05
-1.44257e-06
-7.61439e-06
2.46709e-06
0.000133825
9.02864e-07
1.0217e-06
1.85209e-06
1.10441e-06
1.89889e-06
3.74466e-06
3.00837e-06
-6.69472e-06
8.39146e-07
0.000159844
1.13959e-06
-4.33321e-06
1.20609e-06
3.37583e-06
1.93313e-06
3.74074e-06
-6.09017e-05
-3.79933e-06
-1.38845e-06
5.94073e-05
-1.7351e-05
1.05466e-06
-1.43078e-06
1.7727e-05
-1.02575e-05
4.32492e-07
2.18095e-07
1.20724e-05
-3.18971e-05
-1.82283e-07
-1.73761e-06
1.28051e-06
3.33756e-05
-3.93951e-05
3.45054e-06
-1.15883e-06
3.7103e-05
-2.56987e-06
1.03203e-06
-1.80264e-06
3.34066e-06
-1.08859e-06
-1.53462e-06
-3.20323e-07
2.94354e-06
1.96278e-06
2.45083e-06
-3.45299e-05
-1.23133e-08
7.77344e-07
2.93513e-05
5.30566e-07
-1.11062e-05
-5.01024e-08
-5.79866e-07
-1.10884e-06
1.23144e-05
-2.67678e-05
3.74602e-06
-1.24064e-06
-2.69755e-06
2.66466e-05
3.13304e-07
-1.0456e-06
4.4073e-06
-3.22542e-05
-5.37975e-06
1.91877e-06
3.23535e-05
7.38156e-06
7.63193e-06
0.000214523
-3.57351e-06
-2.43073e-07
-3.32827e-06
8.47084e-07
2.30716e-06
1.38048e-06
2.26581e-06
2.17394e-06
6.41176e-06
1.08509e-05
0.000241389
7.87449e-07
1.27671e-08
1.05109e-06
7.44727e-07
8.16703e-07
6.03406e-06
0.000257217
-2.0826e-08
9.24585e-07
9.69714e-07
8.74025e-07
9.43342e-07
7.61333e-07
1.04791e-06
-2.53193e-05
1.33892e-06
-2.2137e-06
2.70108e-05
-7.94192e-07
4.68121e-08
-1.08989e-06
1.83761e-06
4.39645e-06
-3.59991e-05
-2.00868e-06
-5.90183e-06
2.36964e-06
3.71436e-05
-1.12126e-06
1.02594e-05
0.000183261
3.31329e-06
1.33663e-06
4.19802e-06
2.35558e-06
-1.06177e-06
1.79719e-05
0.000196981
1.53364e-06
-2.07494e-07
0.000193238
1.29207e-06
1.64403e-06
1.27867e-06
-1.95523e-06
2.24421e-06
-1.42248e-06
-4.02194e-05
1.34782e-06
2.60868e-06
-2.568e-06
4.03645e-05
-1.42692e-05
-1.27367e-08
-1.38552e-06
1.91545e-06
1.62201e-05
-2.46804e-06
-7.82659e-06
3.27472e-06
0.000136396
1.03944e-06
6.10122e-07
1.35379e-06
7.23164e-07
2.45045e-06
3.3499e-06
2.71359e-06
-5.4654e-06
1.80579e-06
0.000164805
1.05185e-06
-3.52338e-06
1.29698e-06
3.74404e-06
2.16055e-06
4.11359e-06
-6.09473e-05
-2.65028e-06
-8.65575e-07
5.87902e-05
-1.84804e-05
1.46731e-06
-2.17413e-06
1.91872e-05
-1.48961e-05
3.00957e-07
7.37801e-07
1.71326e-05
-3.57018e-05
-1.13221e-07
-2.23658e-06
1.63612e-06
3.82213e-05
-3.49563e-05
2.55032e-06
-2.90416e-07
3.27015e-05
-3.86588e-06
1.62903e-06
-1.84656e-06
4.08341e-06
-4.62234e-06
-8.77902e-07
-2.16891e-07
5.71713e-06
6.24461e-07
1.69443e-06
-2.51158e-05
-5.36185e-07
1.22695e-06
2.21062e-05
-3.53912e-07
-1.31082e-05
6.86719e-07
-1.53408e-06
4.49748e-07
1.38598e-05
-2.62902e-05
2.92487e-06
-2.3721e-06
-2.06661e-06
2.59616e-05
1.84247e-06
-1.20066e-06
3.3827e-06
-3.25473e-05
-4.36899e-06
1.55645e-06
3.31778e-05
7.06951e-06
8.51514e-06
0.000200645
-3.36624e-06
-4.40415e-07
-3.29847e-06
-4.28048e-07
1.94375e-06
4.97922e-07
1.9543e-06
1.43037e-06
4.39863e-06
1.20015e-05
0.000233405
-4.39591e-07
-7.6612e-07
-1.35251e-07
-5.9106e-09
4.66558e-07
6.62243e-06
0.000250902
-2.34527e-07
6.30737e-07
8.40664e-07
6.3562e-07
6.19669e-07
3.9838e-07
7.34568e-07
-2.8497e-05
9.83769e-07
-1.51045e-06
2.94902e-05
-3.05345e-06
6.18991e-08
-1.09884e-06
4.08856e-06
3.86387e-06
-3.73577e-05
-1.75324e-06
-4.59909e-06
2.72098e-06
3.71252e-05
-1.99962e-06
7.73914e-06
0.000178163
2.52594e-06
7.61241e-07
2.94639e-06
1.64037e-06
-2.87089e-06
1.73529e-05
0.000192501
9.34932e-07
5.06942e-07
0.000192144
8.26968e-07
7.24657e-07
5.37532e-07
-1.02876e-06
2.63552e-06
-2.92632e-07
-4.1094e-05
8.34785e-07
1.85301e-06
-2.33422e-06
4.16754e-05
-1.77707e-05
-9.28682e-07
-7.08194e-07
2.71189e-06
1.93966e-05
-2.70091e-06
-7.58188e-06
3.07457e-06
0.000139972
6.9284e-07
4.88836e-07
8.84251e-07
-4.12413e-09
2.22936e-06
2.33007e-06
2.04851e-06
-5.65142e-06
1.64266e-06
0.000171994
1.12775e-06
-4.3684e-06
1.0752e-06
3.76789e-06
1.37414e-06
3.6142e-06
-6.01071e-05
-3.82642e-06
3.97444e-07
5.83916e-05
-1.92633e-05
2.01002e-06
-1.71542e-06
1.89687e-05
-1.90659e-05
1.82545e-07
1.27699e-06
2.06805e-05
-4.14404e-05
-5.14315e-07
-1.62202e-06
1.32044e-06
4.3899e-05
-3.1891e-05
8.79906e-07
-1.04605e-06
3.20536e-05
-4.09495e-06
1.90074e-06
-1.84491e-06
4.03912e-06
-6.31611e-06
-5.40067e-07
1.67714e-07
6.68875e-06
-3.10175e-07
4.53409e-07
-1.97476e-05
1.17873e-07
1.67784e-06
1.78087e-05
-6.85866e-07
-1.44602e-05
1.02862e-06
-2.39859e-06
1.60643e-06
1.49096e-05
-2.56084e-05
2.96474e-06
-3.3016e-06
-2.15491e-06
2.51269e-05
2.97324e-06
-2.03095e-06
2.37486e-06
-3.37551e-05
-3.44364e-06
2.56694e-06
3.42879e-05
4.58103e-06
8.3132e-06
0.00019261
-3.12033e-06
-1.93384e-06
-3.11491e-06
-1.31588e-06
1.80037e-06
3.0769e-07
1.45252e-06
1.06489e-06
1.47096e-06
1.2798e-05
0.000228307
-1.84951e-06
-1.36105e-06
-1.10986e-06
-2.69992e-07
3.58899e-07
1.05473e-05
0.000238401
-2.47654e-07
2.52236e-07
7.81746e-07
4.10801e-07
5.49092e-07
4.70373e-07
8.48856e-07
-3.00238e-05
1.12753e-06
-8.3908e-07
3.00942e-05
-4.69678e-06
-2.16772e-07
-1.03517e-07
5.01707e-06
2.33603e-06
-3.65823e-05
-2.14119e-06
-2.75963e-06
2.72868e-06
3.64184e-05
-3.33059e-06
5.6551e-06
0.000178065
1.74421e-06
3.91648e-07
2.62031e-06
1.33029e-06
-5.05729e-06
1.52656e-05
0.00019176
3.53429e-07
8.07484e-07
0.000193852
3.09485e-07
4.46897e-07
1.86488e-07
-3.45973e-07
2.19885e-06
-1.74588e-07
-4.25335e-05
-1.67147e-07
8.01154e-07
-9.91035e-07
4.3244e-05
-2.08805e-05
-1.23166e-06
-1.26014e-07
2.05891e-06
2.23847e-05
-2.20551e-06
-8.24302e-06
2.1467e-06
0.000145443
1.96592e-07
5.26833e-08
7.04919e-07
-2.03993e-07
1.86056e-06
1.8152e-06
1.85446e-06
-7.09389e-06
1.07107e-06
0.000182643
1.836e-07
-5.62122e-06
-3.5369e-07
3.5616e-06
1.06625e-06
3.55968e-06
-5.99271e-05
-5.25825e-06
7.94032e-07
5.81049e-05
-1.86835e-05
1.50432e-06
-1.54561e-06
1.87247e-05
-2.17957e-05
-1.25575e-07
1.36404e-06
2.2704e-05
-4.60956e-05
-8.52441e-07
-1.00926e-06
1.05246e-06
4.7976e-05
-3.26322e-05
4.85071e-07
-1.15764e-06
3.33047e-05
-3.94246e-06
1.9115e-06
-1.81555e-06
3.84651e-06
-7.00265e-06
-2.42052e-07
-4.9649e-08
7.29435e-06
-4.86064e-07
3.25415e-07
-1.58627e-05
5.02932e-07
1.42983e-06
1.40906e-05
-4.99978e-07
-1.54207e-05
4.10654e-07
-2.29248e-06
1.72661e-06
1.60759e-05
-2.44367e-05
3.01581e-06
-3.57925e-06
-1.85422e-06
2.36411e-05
3.21325e-06
-2.04205e-06
1.78263e-06
-3.44574e-05
-2.58918e-06
2.89358e-06
3.44124e-05
9.56917e-07
5.69764e-06
0.000190321
-2.57506e-06
-1.76486e-06
-2.21694e-06
-9.18881e-07
1.25523e-06
-1.14343e-07
1.18315e-06
7.85895e-07
-3.59853e-06
1.28893e-05
0.00022485
-2.10986e-06
-1.40284e-06
-1.04138e-06
-3.22678e-07
4.32853e-07
1.37193e-05
0.000217025
-1.76152e-07
3.62446e-07
8.97304e-07
5.88386e-07
6.15197e-07
4.1781e-07
9.20354e-07
-2.98515e-05
1.77082e-06
-7.1943e-07
2.9233e-05
-5.2161e-06
-4.40623e-07
3.26944e-07
5.32978e-06
1.18717e-06
-3.67155e-05
-2.19387e-06
-1.86755e-06
2.58992e-06
3.69998e-05
-3.98985e-06
3.44845e-06
0.000180065
1.15211e-06
-1.07674e-07
2.26792e-06
9.26851e-07
-5.80531e-06
1.26031e-05
0.000193862
4.10126e-07
-8.60773e-08
0.000197059
2.48909e-07
5.70807e-07
1.99175e-07
2.99453e-07
1.87389e-06
1.19112e-06
-4.40556e-05
-8.03461e-07
3.77026e-07
2.59896e-07
4.46323e-05
-2.3856e-05
-1.34887e-06
4.53126e-08
2.08597e-06
2.52226e-05
-2.14904e-06
-9.12166e-06
1.56879e-06
0.00015255
4.26079e-08
-2.2817e-07
7.10914e-07
-3.87355e-07
1.39738e-06
1.19752e-06
1.16158e-06
-7.56094e-06
9.16655e-07
0.000195674
-2.70264e-06
-5.16553e-06
-3.62984e-06
3.67749e-06