/*--------------------------------*- C++ -*----------------------------------*\
| =========                 |                                                 |
| \\      /  F ield         | OpenFOAM: The Open Source CFD Toolbox           |
|  \\    /   O peration     | Version:  5.x                                   |
|   \\  /    A nd           | Web:      www.OpenFOAM.org                      |
|    \\/     M anipulation  |                                                 |
\*---------------------------------------------------------------------------*/
FoamFile
{
    version     2.0;
    format      ascii;
    class       volScalarField;
    location    "1.85";
    object      voidfraction;
}
// * * * * * * * * * * * * * * * * * * * * * * * * * * * * * * * * * * * * * //

dimensions      [0 0 0 0 0 0 0];

internalField   nonuniform List<scalar> 
10571
(
0.453787
0.47694
0.500735
0.502008
0.471163
0.625016
0.597711
0.676212
0.568358
0.476366
0.662869
0.570906
0.54004
0.880168
0.817867
0.900054
0.512379
0.516872
0.815691
0.997255
0.897054
0.541477
0.962139
0.611811
0.430361
0.6339
0.679585
0.53415
0.490108
0.594056
0.66473
0.778179
0.801311
0.792484
0.607562
0.767936
0.521502
0.750326
0.690255
0.59196
0.943306
0.826612
0.856229
0.766886
0.492417
0.944846
0.597164
0.450472
0.471374
0.847303
0.934528
0.891863
0.641667
0.9432
0.927055
0.937059
0.956387
0.948627
0.512277
0.829311
0.611363
0.825625
0.690045
0.941482
0.93077
0.726175
0.819388
0.798359
0.909106
0.823672
0.707518
0.615645
0.621561
0.88889
0.965471
0.941852
0.661355
0.988898
0.968743
0.962698
0.952918
0.829737
0.423256
0.902984
0.886857
0.936918
0.867605
0.895766
0.760169
0.640271
0.604426
0.477267
0.815234
0.46542
0.571317
0.972913
0.565001
0.91936
0.955607
0.98388
0.823219
0.962023
0.870994
0.961233
0.96853
0.906151
0.488389
0.917404
0.845744
0.968745
0.876634
0.938142
0.436365
0.716493
0.630458
0.504678
0.912855
0.436525
0.450741
0.97519
0.571328
0.967627
0.997064
0.935362
0.923225
0.774145
0.989437
0.964125
0.989344
0.946925
0.40416
0.848581
0.881299
0.977226
0.884529
0.977507
0.987046
0.407098
0.95378
0.966545
0.879435
0.940498
0.991916
0.802529
0.703751
0.993829
0.60458
0.947179
0.997097
0.826703
0.979279
0.996587
0.997459
0.992685
0.998003
0.997767
0.918839
0.896851
1
0.998159
0.985592
0.994978
0.998998
1
0.985263
0.997118
0.995805
0.995749
0.999426
1
0.989894
0.996859
1
0.637694
0.936088
0.998042
0.972001
0.990265
0.99706
0.998172
0.998666
0.998253
0.998894
1
0.941937
1
0.999184
0.999117
0.997704
0.999204
0.999833
0.993203
0.996528
0.995174
0.999661
0.998694
1
0.986525
0.994534
0.998673
0.822788
0.977707
0.997098
0.987235
0.990023
0.998986
0.997579
0.997689
0.99834
0.994807
1
0.941828
0.999966
0.998994
0.999
0.998651
0.998937
1
0.991278
0.996815
0.994945
0.995073
0.998276
0.986796
0.995983
0.99797
0.975044
0.967459
0.995951
0.992218
0.990517
1
0.998207
0.998199
0.996978
0.993941
0.936001
0.999154
0.998648
0.998645
0.99826
0.997383
0.99191
0.99769
0.995831
0.996975
0.996357
0.985674
0.997765
1
0.989116
0.961078
0.991063
0.991685
0.995373
0.998987
0.996805
0.994477
0.995159
0.994277
0.971961
0.999222
0.998362
0.998668
0.997171
0.995118
0.990348
0.997398
0.996642
0.993619
0.985491
0.97131
0.995803
0.989918
1
0.965672
0.981456
0.998074
0.99973
0.998953
0.984868
0.986868
0.995866
0.997753
0.986365
0.997972
0.994862
0.994759
0.996487
0.998278
0.986259
0.987484
0.993066
0.991957
0.996015
0.979093
0.977173
0.987189
0.998681
1
0.998045
1
1
0.989193
0.993712
0.997064
0.99937
1
0.990544
0.997566
0.979349
0.987102
0.996162
0.997582
0.977992
0.986949
0.984165
0.987248
1
0.99849
0.994776
0.981447
1
1
1
1
1
0.999021
0.998104
0.999704
0.999883
0.999922
0.996811
0.990333
0.998531
0.999017
0.99951
1
0.992754
0.999883
0.999098
0.998064
1
0.998955
1
0.99797
1
0.998376
1
1
1
1
0.999905
0.999777
1
1
1
0.99902
1
0.999888
1
1
0.999128
0.999806
1
1
1
1
1
1
1
1
1
1
1
1
0.999889
1
1
1
1
1
1
1
1
1
1
1
1
1
1
1
1
1
1
1
1
1
1
1
1
1
1
1
1
1
1
1
1
1
1
1
1
1
1
1
1
1
1
1
1
1
1
1
1
1
1
1
1
1
1
1
1
1
1
1
1
1
1
1
1
1
1
1
1
1
1
1
1
1
1
1
1
1
1
1
1
1
1
1
1
1
1
1
1
1
1
1
1
1
1
1
1
1
1
1
1
1
1
1
1
1
1
1
1
1
1
1
1
1
1
1
1
1
1
1
1
1
1
1
1
1
1
1
1
1
1
1
1
1
1
1
1
1
1
1
1
1
1
1
1
1
1
1
1
1
1
1
1
1
1
1
1
1
1
1
1
1
1
0.998376
1
1
1
1
1
1
1
1
1
1
1
1
1
1
1
1
1
1
1
1
1
1
1
1
1
1
1
1
1
1
1
1
1
1
1
1
1
1
1
1
1
1
1
1
1
1
1
1
1
1
1
1
1
1
1
1
1
1
1
1
1
1
1
1
1
1
1
1
1
1
1
1
1
1
1
1
1
1
1
1
1
1
1
1
1
1
1
1
1
1
1
1
1
1
1
1
1
1
1
1
1
1
1
1
1
1
1
1
1
1
1
1
1
1
1
1
1
1
1
1
1
1
1
1
1
1
1
1
1
1
1
1
1
1
1
1
1
1
1
1
1
1
1
1
1
1
1
1
1
1
1
1
1
1
1
1
1
1
1
1
1
1
1
1
1
1
1
1
1
1
1
1
1
1
1
1
1
1
1
1
1
1
1
1
1
1
1
1
1
1
1
1
1
1
1
1
1
1
1
1
1
1
1
1
1
1
1
1
1
1
1
1
1
1
1
1
1
1
1
1
1
1
1
1
1
1
1
1
1
1
1
1
1
1
1
1
1
1
1
1
1
1
1
1
1
1
1
1
1
1
1
1
1
1
1
1
1
1
1
1
1
1
1
1
1
1
1
1
1
1
1
1
1
1
1
1
1
1
1
1
1
1
1
1
1
1
1
1
1
1
1
1
1
1
1
1
1
1
1
1
1
1
1
1
1
1
1
1
1
1
1
1
1
1
1
1
1
1
1
1
1
1
1
1
1
1
1
1
1
1
1
1
1
1
1
1
1
1
1
1
1
1
1
1
1
1
1
1
1
1
1
1
1
1
1
1
1
1
1
1
1
1
1
1
1
1
1
1
1
1
1
1
1
1
1
1
1
1
1
1
1
1
1
1
1
1
1
1
1
1
1
1
1
1
1
1
1
1
1
1
1
1
1
1
1
1
1
1
1
1
1
1
1
1
1
1
1
1
1
1
1
1
1
1
1
1
1
1
1
1
1
1
1
1
1
1
1
1
1
1
1
1
1
1
1
1
1
1
1
1
1
1
1
1
1
1
1
1
1
1
1
1
1
1
1
1
1
1
1
1
1
1
1
1
1
1
1
1
1
1
1
1
1
1
1
1
1
1
1
1
1
1
1
1
1
1
1
1
1
1
1
1
1
1
1
1
1
1
1
1
1
1
1
1
1
1
1
1
1
1
1
1
1
1
1
1
1
1
1
1
1
1
1
1
1
1
1
1
1
1
1
1
1
1
1
1
1
1
1
1
1
1
1
1
1
1
1
1
1
1
1
1
1
1
1
1
1
1
1
1
1
1
1
1
1
1
1
1
1
1
1
1
1
1
1
1
1
1
1
1
1
1
1
1
1
1
1
1
1
1
1
1
1
1
1
1
1
1
1
1
1
1
1
1
1
1
1
1
1
1
1
1
1
1
1
1
1
1
1
1
1
1
1
1
1
1
1
1
1
1
1
1
1
1
1
1
1
1
1
1
1
1
1
1
1
1
1
1
1
1
1
1
1
1
1
1
1
1
1
1
1
1
1
1
1
1
1
1
1
1
1
1
1
1
1
1
1
1
1
1
1
1
1
1
1
1
1
1
1
1
1
1
1
1
1
1
1
1
1
1
1
1
1
1
1
1
1
1
1
1
1
1
1
1
1
1
1
1
1
1
1
1
1
1
1
1
1
1
1
1
1
1
1
1
1
1
1
1
1
1
1
1
1
1
1
1
1
1
1
1
1
1
1
1
1
1
1
1
1
1
1
1
1
1
1
1
1
1
1
1
1
1
1
1
1
1
1
1
1
1
1
1
1
1
1
1
1
1
1
1
1
1
1
1
1
1
1
1
1
1
1
1
1
1
1
1
1
1
1
1
1
1
1
1
1
1
1
1
1
1
1
1
1
1
1
1
1
1
1
1
1
1
1
1
1
1
1
1
1
1
1
1
1
1
1
1
1
1
1
1
1
1
1
1
1
1
1
1
1
1
1
1
1
1
1
1
1
1
1
1
1
1
1
1
1
1
1
1
1
1
1
1
1
1
1
1
1
1
1
1
1
1
1
1
1
1
1
1
1
1
1
1
1
1
1
1
1
1
1
1
1
1
1
1
1
1
1
1
1
1
1
1
1
1
1
1
1
1
1
1
1
1
1
1
1
1
1
1
1
1
1
1
1
1
1
1
1
1
1
1
1
1
1
1
1
1
1
1
1
1
1
1
1
1
1
1
1
1
1
1
1
1
1
1
1
1
1
1
1
1
1
1
1
1
1
1
1
1
1
1
1
1
1
1
1
1
1
1
1
1
1
1
1
1
1
1
1
1
1
1
1
1
1
1
1
1
1
1
1
1
1
1
1
1
1
1
1
1
1
1
1
1
1
1
1
1
1
1
1
1
1
1
1
1
1
1
1
1
1
1
1
1
1
1
1
1
1
1
1
1
1
1
1
1
1
1
1
1
1
1
1
1
1
1
1
1
1
1
1
1
1
1
1
1
1
1
1
1
1
1
1
1
1
1
1
1
1
1
1
1
1
1
1
1
1
1
1
1
1
1
1
1
1
1
1
1
1
1
1
1
1
1
1
1
1
1
1
1
1
1
1
1
1
1
1
1
1
1
1
1
1
1
1
1
1
1
1
1
1
1
1
1
1
1
1
1
1
1
1
1
1
1
1
1
1
1
1
1
1
1
1
1
1
1
1
1
1
1
1
1
1
1
1
1
1
1
1
1
1
1
1
1
1
1
1
1
1
1
1
1
1
1
1
1
1
1
1
1
1
1
1
1
1
1
1
1
1
1
1
1
1
1
1
1
1
1
1
1
1
1
1
1
1
1
1
1
1
1
1
1
1
1
1
1
1
1
1
1
1
1
1
1
1
1
1
1
1
1
1
1
1
1
1
1
1
1
1
1
1
0.521249
0.512307
0.5233
0.507821
0.504217
0.505497
0.520269
0.525878
0.488831
0.576154
0.613046
0.534883
0.773727
0.654483
0.659863
0.823994
0.817358
0.683812
0.641571
0.801697
0.755401
0.587508
0.552714
0.699977
0.632418
0.597139
0.714011
0.790364
0.759614
0.564949
0.724832
0.87838
0.638615
0.941229
0.88218
0.835551
0.90608
0.865251
0.863383
0.924339
0.905437
0.820034
0.769972
0.869442
0.784823
0.578915
0.668964
0.873463
0.684286
0.676061
0.570191
0.821047
0.7264
0.640254
0.803328
0.540247
0.639427
0.714115
0.508952
0.794283
0.878211
0.493184
0.61125
0.752711
0.787387
0.847908
0.916791
0.874705
0.899667
0.879093
0.491446
0.524488
0.661474
0.496008
0.529791
0.782374
0.508071
0.590097
0.755331
0.473898
0.637789
0.914003
0.850893
0.866007
0.813556
0.647873
0.649786
0.831409
0.496419
0.53529
0.753135
0.810357
0.955546
0.868166
0.810542
0.677236
0.460503
0.420154
0.453307
0.47166
0.458373
0.442087
0.445467
0.441429
0.460493
0.461893
0.444957
0.441361
0.448184
0.438658
0.434754
0.603073
0.429116
0.512568
0.467159
0.522659
0.436355
0.478171
0.453224
0.655268
0.445437
0.491794
0.485847
0.447638
0.450571
0.450031
0.449405
0.455157
0.454619
0.671408
0.711027
0.70658
0.596089
0.485362
0.580647
0.623033
0.699273
0.479238
0.456753
0.50382
0.588787
0.556257
0.523548
0.690692
0.870223
0.743238
0.921844
0.496013
0.494411
0.535075
0.475553
0.776211
0.510945
0.460411
0.505995
0.9282
0.973301
0.724373
0.941825
0.981892
0.813783
0.843547
0.928495
0.625617
0.630108
0.558567
0.485191
0.471375
0.741271
0.818533
0.841588
0.85245
0.761115
0.701039
0.792034
0.934214
0.774107
0.623583
0.693938
0.52778
0.452145
0.782123
0.433261
0.453407
0.431104
0.444031
0.60129
0.465853
0.427684
0.43742
0.447723
0.427729
0.43298
0.43099
0.427283
0.660181
0.886538
0.599135
0.627706
0.809943
0.861386
0.808668
0.927759
0.888395
0.442203
0.829376
0.709349
0.643806
0.557237
0.911502
0.917637
0.696987
0.889054
0.839279
0.697275
0.901993
0.874073
0.710665
0.890684
0.699593
0.705574
0.946209
0.958576
0.969451
0.771788
0.817556
0.602607
0.844275
0.730631
0.654858
0.591793
0.905028
0.907638
0.888233
0.788983
0.725545
0.994939
0.857855
0.980824
0.949511
0.993619
0.874361
0.976104
0.536286
0.56099
0.462255
0.806838
0.620314
0.567775
0.440902
0.785381
0.886694
0.897947
0.698033
0.593675
0.943673
0.718262
0.598202
0.521879
0.527999
0.566888
0.571826
0.453412
0.472625
0.848937
0.871053
0.496842
0.754201
0.556294
0.635477
0.778767
0.626344
0.444239
0.430542
0.544949
0.49298
0.474919
0.481846
0.552284
0.842119
0.809189
0.851066
0.939559
0.896085
0.858307
0.87133
0.935168
0.920718
0.628458
0.965497
0.90039
0.635687
0.531678
0.969417
0.801565
0.82421
0.689131
0.878075
0.559976
0.842249
0.846428
0.465447
0.762423
0.948072
0.985108
0.862204
0.914244
0.982737
0.724424
0.593835
0.42198
0.588921
0.492804
0.970235
0.945401
0.911155
0.971214
0.857583
0.610202
0.541685
0.994493
0.920499
0.979407
0.896749
0.993958
0.900942
0.982293
0.866761
0.658508
0.680953
0.560105
0.792564
0.819908
0.92825
0.904375
0.84797
0.871889
0.602954
0.46018
0.607939
0.461558
0.439184
0.739339
0.468177
0.729485
0.867416
0.497957
0.886562
0.896107
0.91715
0.582072
0.778756
0.658606
0.60489
0.791587
0.644376
0.523812
0.50064
0.62011
0.518686
0.509364
0.541167
0.562567
0.742434
0.755432
0.870015
0.938196
0.934209
0.90874
0.886377
0.903009
0.935228
0.522797
0.96278
0.771804
0.751863
0.595612
0.969825
0.844976
0.640375
0.691244
0.762792
0.427651
0.695323
0.711715
0.443816
0.662433
0.839765
0.938668
0.91044
0.914845
0.903945
0.53685
0.472554
0.439641
0.534335
0.477072
0.967764
0.804482
0.915569
0.912761
0.888923
0.4904
0.446616
0.907301
0.866871
0.972988
0.490727
0.688241
0.526152
0.595803
0.560219
0.857067
0.891511
0.50964
0.611559
0.794577
0.896463
0.883313
0.738923
0.489249
0.43402
0.433824
0.436778
0.439648
0.421316
0.934765
0.492231
0.493901
0.966134
0.462863
0.987812
0.927378
0.884922
0.57065
0.801302
0.636563
0.590528
0.816823
0.651216
0.508516
0.529322
0.5963
0.513113
0.538461
0.559429
0.596197
0.84168
0.944413
0.90994
0.813711
0.811968
0.94349
0.959974
0.764703
0.786017
0.711655
0.987022
0.93095
0.863223
0.760278
0.991179
0.962149
0.802005
0.891668
0.746253
0.493553
0.660184
0.787594
0.718282
0.616193
0.921726
0.931079
0.93626
0.867757
0.883958
0.52276
0.490035
0.709598
0.567948
0.57818
0.889485
0.939927
0.972692
0.882672
0.97543
0.452857
0.637461
0.536439
0.427418
0.435151
0.515819
0.577739
0.614228
0.508025
0.809146
0.827095
0.947625
0.698517
0.96698
0.906389
0.98456
0.98201
0.423643
0.510859
0.438389
0.448729
0.455597
0.463837
0.456486
0.872213
0.450663
0.45934
0.857702
0.475757
0.987027
0.876203
0.885468
0.592717
0.825434
0.661862
0.582719
0.840361
0.67608
0.507489
0.614681
0.580242
0.517739
0.874784
0.702522
0.864666
0.952213
0.948449
0.985707
0.939863
0.982774
0.954014
0.980102
0.986946
1
0.816485
0.992277
0.977075
0.962035
0.936262
0.994873
0.993086
0.963882
0.978066
0.887016
0.831755
0.760321
0.96493
0.898831
0.970557
0.631824
0.933557
0.580075
0.988163
0.703314
0.99398
0.903636
0.400398
0.423014
0.385174
0.432354
0.404774
0.580003
0.431115
0.859408
0.903301
0.886186
0.974485
0.948142
0.654205
0.986609
0.716746
0.99456
0.979915
0.998634
0.979281
0.405329
0.407178
0.393919
0.710821
0.45246
0.774646
0.46043
0.869686
0.903027
0.965326
0.927886
0.939996
0.984962
0.997458
0.956853
0.984861
0.988661
0.98099
0.992981
0.987669
0.996858
0.996725
0.998286
0.999394
0.920377
0.989645
0.669395
0.517206
0.987957
0.967243
0.791578
0.959364
0.546432
0.992145
0.996118
0.872256
0.996637
0.834438
0.869432
0.607817
0.873378
0.749608
0.589127
0.898539
0.79429
0.620249
0.980709
0.627134
0.791334
0.991482
0.979662
0.980174
0.917238
0.940366
0.985645
0.98322
1
0.927014
0.973297
0.983011
0.996221
0.964079
0.993395
0.988347
0.984399
0.962229
0.988948
0.990655
0.995701
0.975665
0.992484
0.999067
0.908383
0.902654
1
1
0.954052
0.883874
0.979734
0.960787
0.888162
0.985429
0.99186
0.998788
0.999084
0.996706
0.996861
0.999553
1
0.79245
0.996635
0.977747
1
1
1
1
0.981152
0.96131
0.911256
0.985939
0.957746
0.998643
0.998231
0.99956
0.998008
1
0.996788
0.999002
0.985104
0.999285
0.968251
1
1
1
1
0.928072
0.938816
0.999934
0.959891
0.98577
0.987608
0.999076
0.962365
0.99019
0.992783
0.997163
0.996849
0.997046
0.99502
0.994919
0.996539
1
0.998696
0.998578
1
1
1
0.981108
0.983837
0.99423
0.977501
0.988616
0.991359
0.996817
0.998021
0.989684
0.999094
0.995578
0.996818
1
0.889021
0.924366
0.616509
0.908953
0.884459
0.665317
0.91778
0.92283
0.906826
0.99129
0.717594
0.965637
0.992565
0.986926
0.997982
0.949492
0.937022
0.976683
0.986826
0.997492
0.951044
0.982049
0.980448
0.999055
0.980884
0.996194
0.988443
0.990014
0.98159
0.990372
0.990411
0.996164
1
0.996672
1
1
1
1
1
0.963961
0.908726
0.983127
0.973019
0.922252
0.982672
0.997112
0.999342
0.999079
0.998165
1
1
0.996621
1
0.99936
1
1
1
1
1
0.988333
0.962936
0.934349
0.985333
0.969946
0.99981
1
1
0.998767
0.999968
0.9991
0.998296
1
1
1
1
1
1
1
0.966164
0.961978
0.998416
0.978904
0.983741
0.98824
0.995875
0.984811
0.99452
0.999444
0.998206
1
1
0.99997
0.995522
0.998428
1
1
1
1
1
1
0.993633
0.987826
0.993837
0.996817
0.989042
0.992236
1
0.994647
0.986174
0.991242
0.994297
0.996708
0.9935
0.945209
0.932733
0.665752
0.925408
0.924312
0.788997
0.916161
0.945029
0.990787
0.995274
0.906222
0.989666
0.993996
0.995958
1
0.947682
0.954929
0.984896
0.98316
0.99671
0.977764
0.99089
0.988765
0.997101
0.973281
0.993239
0.985806
0.986135
0.975545
0.990026
0.987055
0.988217
0.987506
0.971123
0.906198
0.982763
0.978517
0.901362
0.984824
0.99771
0.994869
0.999641
0.997369
1
0.996526
0.999019
1
1
1
1
1
1
1
0.989697
0.975368
0.950846
0.988334
0.964641
0.99792
0.996962
1
0.99718
0.998448
1
1
1
1
1
1
1
1
1
0.981722
0.978234
0.998515
0.98723
0.98692
0.991399
0.99373
0.984305
0.988586
0.995666
0.999145
0.998346
0.996187
0.997152
0.999084
0.998377
1
0.992234
0.980479
0.991329
0.990562
0.986874
0.988581
0.987708
0.995577
0.990453
0.995319
0.998022
0.992318
1
0.939986
0.915524
0.867172
0.927701
0.960205
0.929738
0.910871
0.975501
0.991637
0.997405
0.98274
0.993093
0.998955
0.997977
0.995049
0.962034
0.957508
0.985348
0.987364
0.998111
0.968637
0.990742
0.984713
0.999056
0.991472
0.992627
0.983826
0.992332
0.987474
0.988425
0.989772
0.986797
0.995862
0.977162
0.934131
0.986642
0.976931
0.94238
0.982251
0.999074
0.997886
0.997145
0.994412
0.997021
0.988364
0.979281
0.966682
0.988638
0.974596
0.996646
0.994411
0.994138
0.999795
0.993935
0.982141
0.989048
0.995083
0.987962
0.99228
0.994076
0.996503
0.984869
0.988254
0.995627
0.996189
0.999774
0.998661
0.994126
0.999209
0.992658
0.988052
0.977331
0.972784
0.992356
0.977172
0.978744
0.98393
0.970696
0.997363
0.993635
0.992632
0.991939
0.988039
0.99972
0.889252
0.89657
0.964154
0.931968
0.975138
0.993623
0.949075
0.988978
0.997546
0.999768
0.994283
0.998183
1
0.994632
1
0.955629
0.934384
0.987538
0.990465
1
0.959454
0.975286
0.983672
0.996778
0.996799
0.98938
0.9895
0.996486
1
0.990512
0.995677
1
0.996371
0.977203
0.928636
0.991095
0.976042
0.944031
0.98625
0.996389
0.996839
0.996668
0.999062
0.999341
0.992789
0.987957
0.981307
0.993274
0.988847
0.984207
0.992027
0.994771
0.993084
0.994466
0.979631
0.97705
0.992413
0.982788
0.980322
0.989296
0.996999
0.96569
0.981413
0.994783
0.99407
0.993166
0.995761
0.990278
0.992552
0.988705
0.989803
0.963269
0.955294
0.97502
0.958843
0.964033
0.965629
0.976733
0.991903
0.97904
0.985235
0.987992
0.988477
0.99461
0.971425
1
0.993623
0.992106
0.998819
1
1
0.999122
1
0.998916
1
1
0.999961
1
1
0.936266
0.950685
0.968967
0.991241
0.992938
0.98628
0.990714
0.984686
0.970388
1
0.989393
0.998277
1
1
0.99239
1
0.999581
1
0.974765
0.963164
0.989309
0.979565
0.964813
0.983162
0.999698
1
1
1
0.996809
0.991759
0.992217
0.969871
0.992123
0.985905
0.996813
0.995744
0.997703
1
0.993885
0.978864
0.98026
0.998021
0.968896
0.981565
0.985688
0.993207
0.948199
0.971092
0.992105
0.99237
0.998136
0.994993
0.98887
0.983888
0.979264
0.992023
0.951376
0.961521
0.974388
0.979477
0.992683
0.992298
1
0.981176
0.976954
0.985929
0.988187
0.996378
0.983829
1
0.998397
1
0.998878
0.99997
1
1
0.999152
0.999485
1
0.99934
0.999303
1
1
1
0.987044
0.99798
0.99982
0.995263
0.983926
1
0.999131
0.999315
0.99808
1
0.999012
1
1
1
1
1
1
1
0.98479
0.990324
0.975863
0.997717
0.996811
0.990612
1
1
1
1
1
0.989154
0.991907
0.996701
0.989366
0.981684
1
0.997832
0.999123
1
0.997793
0.969518
0.980399
0.984072
0.965297
0.986257
0.982682
0.977148
0.98982
0.997306
0.990331
0.988295
0.987511
0.989684
0.998536
0.989389
0.991579
1
0.995732
1
0.996799
1
1
1
1
0.992525
1
0.999124
0.997482
0.996817
0.989428
0.999582
1
1
0.998878
0.999152
1
1
1
1
1
0.998021
0.999667
1
1
1
1
1
1
0.999166
0.999219
1
1
1
1
1
1
1
1
1
1
1
1
1
1
0.996811
0.996487
1
1
0.999122
0.999183
1
1
1
1
0.990639
0.983814
1
0.998273
0.995121
1
1
1
1
1
0.986747
0.995606
0.995845
0.9973
0.997942
0.998256
1
1
1
0.997041
0.995591
1
0.999032
1
0.998541
1
1
0.99986
1
1
1
0.999845
0.999245
1
1
1
1
1
1
1
0.997979
1
1
1
1
1
1
1
1
1
1
1
1
1
1
1
1
1
1
1
1
1
1
1
1
1
1
1
1
1
1
1
1
1
1
1
1
1
1
1
1
1
1
1
1
1
1
0.999121
1
1
1
1
1
1
1
1
1
1
1
1
1
1
1
1
1
1
1
1
1
1
1
0.99993
0.998041
0.999698
1
1
1
1
1
1
1
1
1
1
1
1
1
1
1
1
1
1
1
1
1
1
1
1
1
1
1
1
1
1
1
1
1
1
1
1
1
1
1
1
1
1
1
1
1
1
1
1
1
1
1
1
1
1
1
1
1
1
1
1
1
1
1
1
1
1
1
1
1
1
1
1
1
1
1
1
1
1
1
1
1
1
1
1
1
1
1
1
1
1
1
1
1
1
1
1
1
1
1
1
1
1
1
1
1
1
1
1
1
0.999721
1
1
0.999255
1
1
1
1
1
1
1
1
1
1
1
1
1
1
1
1
1
1
1
1
1
1
1
1
1
1
1
1
1
1
1
1
1
1
1
1
1
1
1
1
1
1
1
1
1
1
1
1
1
1
1
1
1
1
1
1
1
1
1
1
1
1
1
1
1
1
1
1
1
1
1
1
1
1
1
1
1
1
1
1
1
1
0.999131
1
1
1
1
1
1
1
1
1
1
1
1
1
1
1
1
1
1
1
1
1
1
1
1
1
1
1
1
1
1
1
1
1
1
1
1
1
1
1
1
1
1
1
1
1
1
1
1
1
1
1
1
1
1
1
1
1
1
1
1
1
1
1
1
1
1
1
1
1
1
1
1
1
1
1
1
1
1
1
1
1
1
1
1
1
1
1
1
1
1
1
1
1
1
1
1
1
1
1
1
1
1
1
1
1
1
1
1
1
1
1
1
1
1
1
1
1
1
1
1
1
1
1
1
1
1
1
1
1
1
1
1
1
1
1
1
1
1
1
1
1
1
1
1
1
1
1
1
1
1
1
1
1
1
1
1
1
1
1
1
1
1
1
1
1
1
1
1
1
1
1
1
1
1
1
1
1
1
1
1
1
1
1
1
1
1
1
1
1
1
1
1
1
1
1
1
1
1
1
1
1
1
1
1
1
1
1
1
1
1
1
1
1
1
1
1
1
1
1
1
1
1
1
1
1
1
1
1
1
1
1
1
1
1
1
1
1
1
1
1
1
1
1
1
1
1
1
1
1
1
1
1
1
1
1
1
1
1
1
1
1
1
1
1
1
1
1
1
1
1
1
1
1
1
1
1
1
1
1
1
1
1
1
1
1
1
1
1
1
1
1
1
1
1
1
1
1
1
1
1
1
1
1
1
1
1
1
1
1
1
1
1
1
1
1
1
1
1
1
1
1
1
1
1
1
1
1
1
1
1
1
1
1
1
1
1
1
1
1
1
1
1
1
1
1
1
1
1
1
1
1
1
1
1
1
1
1
1
1
1
1
1
1
1
1
1
1
1
1
1
1
1
1
1
1
1
1
1
1
1
1
1
1
1
1
1
1
1
1
1
1
1
1
1
1
1
1
1
1
1
1
1
1
1
1
1
1
1
1
1
1
1
1
1
1
1
1
1
1
1
1
1
1
1
1
1
1
1
1
1
1
1
1
1
1
1
1
1
1
1
1
1
1
1
1
1
1
1
1
1
1
1
1
1
1
1
1
1
1
1
1
1
1
1
1
1
1
1
1
1
1
1
1
1
1
1
1
1
1
1
1
1
1
1
1
1
1
1
1
1
1
1
1
1
1
1
1
1
1
1
1
1
1
1
1
1
1
1
1
1
1
1
1
1
1
1
1
1
1
1
1
1
1
1
1
1
1
1
1
1
1
1
1
1
1
1
1
1
1
1
1
1
1
1
1
1
1
1
1
1
1
1
1
1
1
1
1
1
1
1
1
1
1
1
1
1
1
1
1
1
1
1
1
1
1
1
1
1
1
1
1
1
1
1
1
1
1
1
1
1
1
1
1
1
1
1
1
1
1
1
1
1
1
1
1
1
1
1
1
1
1
1
1
1
1
1
1
1
1
1
1
1
1
1
1
1
1
1
1
1
1
1
1
1
1
1
1
1
1
1
1
1
1
1
1
1
1
1
1
1
1
1
1
1
1
1
1
1
1
1
1
1
1
1
1
1
1
1
1
1
1
1
1
1
1
1
1
1
1
1
1
1
1
1
1
1
1
1
1
1
1
1
1
1
1
1
1
1
1
1
1
1
1
1
1
1
1
1
1
1
1
1
1
1
1
1
1
1
1
1
1
1
1
1
1
1
1
1
1
1
1
1
1
1
1
1
1
1
1
1
1
1
1
1
1
1
1
1
1
1
1
1
1
1
1
1
1
1
1
1
1
1
1
1
1
1
1
1
1
1
1
1
1
1
1
1
1
1
1
1
1
1
1
1
1
1
1
1
1
1
1
1
1
1
1
1
1
1
1
1
1
1
1
1
1
1
1
1
1
1
1
1
1
1
1
1
1
1
1
1
1
1
1
1
1
1
1
1
1
1
1
1
1
1
1
1
1
1
1
1
1
1
1
1
1
1
1
1
1
1
1
1
1
1
1
1
1
1
1
1
1
1
1
1
1
1
1
1
1
1
1
1
1
1
1
1
1
1
1
1
1
1
1
1
1
1
1
1
1
1
1
1
1
1
1
1
1
1
1
1
1
1
1
1
1
1
1
1
1
1
1
1
1
1
1
1
1
1
1
1
1
1
1
1
1
1
1
1
1
1
1
1
1
1
1
1
1
1
1
1
1
1
1
1
1
1
1
1
1
1
1
1
1
1
1
1
1
1
1
1
1
1
1
1
1
1
1
1
1
1
1
1
1
1
1
1
1
1
1
1
1
1
1
1
1
1
1
1
1
1
1
1
1
1
1
1
1
1
1
1
1
1
1
1
1
1
1
1
1
1
1
1
1
1
1
1
1
1
1
1
1
1
1
1
1
1
1
1
1
1
1
1
1
1
1
1
1
1
1
1
1
1
1
1
1
1
1
1
1
1
1
1
1
1
1
1
1
1
1
1
1
1
1
1
1
1
1
1
1
1
1
1
1
1
1
1
1
1
1
1
1
1
1
1
1
1
1
1
1
1
1
1
1
1
1
1
1
1
1
1
1
1
1
1
1
1
1
1
1
1
1
1
1
1
1
1
1
1
1
1
1
1
1
1
1
1
1
1
1
1
1
1
1
1
1
1
1
1
1
1
1
1
1
1
1
1
1
1
1
1
1
1
1
1
1
1
1
1
1
1
1
1
1
1
1
1
1
1
1
1
1
1
1
1
1
1
1
1
1
1
1
1
1
1
1
1
1
1
1
1
1
1
1
1
1
1
1
1
1
1
1
1
1
1
1
1
1
1
1
1
1
1
1
1
1
1
1
1
1
1
1
1
1
1
1
1
1
1
1
1
1
1
1
1
1
1
1
1
1
1
1
1
1
1
1
1
1
1
1
1
1
1
1
1
1
1
1
1
1
1
1
1
1
1
1
1
1
1
1
1
1
1
1
1
1
1
1
1
1
1
1
1
1
1
1
1
1
1
1
1
1
1
1
1
1
1
1
1
1
1
1
1
1
1
1
1
1
1
1
1
1
1
1
1
1
1
1
1
1
1
1
1
1
1
1
1
1
1
1
1
1
1
1
1
1
1
1
1
1
1
1
1
1
1
1
1
1
1
1
1
1
1
1
1
1
1
1
1
1
1
1
1
1
1
1
1
1
1
1
1
1
1
1
1
1
1
1
1
1
1
1
1
1
1
1
1
1
1
1
1
1
1
1
1
1
1
1
1
1
1
1
1
1
1
1
1
1
1
1
1
1
1
1
1
1
1
1
1
1
1
1
1
1
1
1
1
1
1
1
1
1
1
1
1
1
1
1
1
1
1
1
1
1
1
1
1
1
1
1
1
1
1
1
1
1
1
1
1
1
1
1
1
1
1
1
1
1
1
1
1
1
1
1
1
1
1
1
1
1
1
1
1
1
1
1
1
1
1
1
1
1
1
1
1
1
1
1
1
1
1
1
1
1
1
1
1
1
1
1
1
1
1
1
1
1
1
1
1
1
1
1
1
1
1
1
1
1
1
1
1
1
1
1
1
1
1
1
1
1
1
1
1
1
1
1
1
1
1
1
1
1
1
1
1
1
1
1
1
1
1
1
1
1
1
1
1
1
1
1
1
1
1
1
1
1
1
1
1
1
1
1
1
1
1
1
1
1
1
1
1
1
1
1
1
1
1
1
1
1
1
1
1
1
1
1
1
1
1
1
1
1
1
1
1
1
1
1
1
1
1
1
1
1
1
1
1
1
1
1
1
1
1
1
1
1
1
1
1
1
1
1
1
1
1
1
1
1
1
1
1
1
1
1
1
1
1
1
1
1
1
1
1
1
1
1
1
1
1
1
1
1
1
1
1
1
1
1
1
1
1
1
1
1
1
1
1
1
1
1
1
1
1
1
1
1
1
1
1
1
1
1
1
1
1
1
1
1
1
1
1
1
1
1
1
1
1
1
1
1
1
1
1
1
1
1
1
1
1
1
1
1
1
1
1
1
1
1
1
1
1
1
1
1
1
1
1
1
1
1
1
1
1
1
1
1
1
1
1
1
1
1
1
1
1
1
1
1
1
1
1
1
1
1
1
1
1
1
1
1
1
1
1
1
1
1
1
1
1
1
1
1
1
1
1
1
1
1
1
1
1
1
1
1
1
1
1
1
1
1
1
1
1
1
1
1
1
1
1
1
1
1
1
1
1
1
1
1
1
1
1
1
1
1
1
1
1
1
1
1
1
1
1
1
1
1
1
1
1
1
1
1
1
1
1
1
1
1
1
1
1
1
1
1
1
1
1
1
1
1
1
1
1
1
1
1
1
1
1
1
1
1
1
1
1
1
1
1
1
1
1
1
1
1
1
1
1
1
1
1
1
1
1
1
1
1
1
1
1
1
1
1
1
1
1
1
1
1
1
1
1
1
1
1
1
1
1
1
1
1
1
1
1
1
1
1
1
1
1
1
1
1
1
1
1
1
1
1
1
1
1
1
1
1
1
1
1
1
1
1
1
1
1
1
1
1
1
1
1
1
1
1
1
1
1
1
1
1
1
1
1
1
1
1
1
1
1
1
1
1
1
1
1
1
1
1
1
1
1
1
1
1
1
1
1
1
1
1
1
1
1
1
1
1
1
1
1
1
1
1
1
1
1
1
1
1
1
1
1
1
1
1
1
1
1
1
1
1
1
1
1
1
1
1
1
1
1
1
1
1
1
1
1
1
1
1
1
1
1
1
1
1
1
1
1
1
1
1
1
1
1
1
1
1
1
1
1
1
1
1
1
1
1
1
1
1
1
1
1
1
1
1
1
1
1
1
1
1
1
1
1
1
1
1
1
1
1
1
1
1
1
1
1
1
1
1
1
1
1
1
1
1
1
1
1
1
1
1
1
1
1
1
1
1
1
1
1
1
1
1
1
1
1
1
1
1
1
1
1
1
1
1
1
1
1
1
1
1
1
1
1
1
1
1
1
1
1
1
1
1
1
1
1
1
1
1
1
1
1
1
1
1
1
1
1
1
1
1
1
1
1
1
1
1
1
1
1
1
1
1
1
1
1
1
1
1
1
1
1
1
1
1
1
1
1
1
1
1
1
1
1
1
1
1
1
1
1
1
1
1
1
1
1
1
1
1
1
1
1
1
1
1
1
1
1
1
1
1
1
1
1
1
1
1
1
1
1
1
1
1
1
1
1
1
1
1
1
1
1
1
1
1
1
1
1
1
1
1
1
1
1
1
1
1
1
1
1
1
1
1
1
1
1
1
1
1
1
1
1
1
1
1
1
1
1
1
1
1
1
1
1
1
1
1
1
1
1
1
1
1
1
1
1
1
1
1
1
1
1
1
1
1
1
1
1
1
1
1
1
1
1
1
1
1
1
1
1
1
1
1
1
1
1
1
1
1
1
1
1
1
1
1
1
1
1
1
1
1
1
1
1
1
1
1
1
1
1
1
1
1
1
1
1
1
1
1
1
1
1
1
1
1
1
1
1
1
1
1
1
1
1
1
1
1
1
1
1
1
1
1
1
1
1
1
1
1
1
1
1
1
1
1
1
1
1
1
1
1
1
1
1
1
1
1
1
1
1
1
1
1
1
1
1
1
1
1
1
1
1
1
1
1
1
1
1
1
1
1
1
1
1
1
1
1
1
1
1
1
1
1
1
1
1
1
1
1
1
1
1
1
1
1
1
1
1
1
1
1
1
1
1
1
1
1
1
1
1
1
1
1
1
1
1
1
1
1
1
1
1
1
1
1
1
1
1
1
1
1
1
1
1
1
1
1
1
1
1
1
1
1
1
1
1
1
1
1
1
1
1
1
1
1
1
1
1
1
1
1
1
1
1
1
1
1
1
1
1
1
1
1
1
1
1
1
1
1
1
1
1
1
1
1
1
1
1
1
1
1
1
1
1
1
1
1
1
1
1
1
1
1
1
1
1
1
1
1
1
1
1
1
1
1
1
1
1
1
1
1
1
1
1
1
1
1
1
1
1
1
1
1
1
1
1
1
1
1
1
1
1
1
1
1
1
1
1
1
1
1
1
1
1
1
1
1
1
1
1
1
1
1
1
1
1
1
1
1
1
1
1
1
1
1
1
1
1
1
1
1
1
1
1
1
1
1
1
1
1
1
1
1
1
1
1
1
1
1
1
1
1
1
1
1
1
1
1
1
1
1
1
1
1
1
1
1
1
1
1
1
1
1
1
1
1
1
1
1
1
1
1
1
1
1
1
1
1
1
1
1
1
1
1
1
1
1
1
1
1
1
1
1
1
1
1
1
1
1
1
1
1
1
1
1
1
1
1
1
1
1
1
1
1
1
1
1
1
1
1
1
1
1
1
1
1
1
1
1
1
1
1
1
1
1
1
1
1
1
1
1
1
1
1
1
1
1
1
1
1
1
1
1
1
1
1
1
1
1
1
1
1
1
1
1
1
1
1
1
1
1
1
1
1
1
1
1
1
1
1
1
1
1
1
1
1
1
1
1
1
1
1
1
1
1
1
1
1
1
1
1
1
1
1
1
1
1
1
1
1
1
1
1
1
1
1
1
1
1
1
1
1
1
1
1
1
1
1
1
1
1
1
1
1
1
1
1
1
1
1
1
1
1
1
1
1
1
1
1
1
1
1
1
1
1
1
1
1
1
1
1
1
1
1
1
1
1
1
1
1
1
1
1
1
1
1
1
1
1
1
1
1
1
1
1
1
1
1
1
1
1
1
1
1
1
1
1
1
1
1
1
1
1
1
1
1
1
1
1
1
1
1
1
1
1
1
1
1
1
1
1
1
1
1
1
1
1
1
1
1
1
1
1
1
1
1
1
1
1
1
1
1
1
1
1
1
1
1
1
1
1
1
1
1
1
1
1
1
1
1
1
1
1
1
1
1
1
1
1
1
1
1
1
1
1
1
1
1
1
1
1
1
1
1
1
1
1
1
1
1
1
1
1
1
1
1
1
1
1
1
1
1
1
1
1
1
1
1
1
1
1
1
1
1
1
1
1
1
1
1
1
1
1
1
1
1
1
1
1
1
1
1
1
1
1
1
1
1
1
1
1
1
1
1
1
1
1
1
1
1
1
1
1
1
1
1
1
1
1
1
1
1
1
1
1
1
1
1
1
1
1
1
1
1
1
1
1
1
1
1
1
1
1
1
1
1
1
1
1
1
1
1
1
1
1
1
1
1
1
1
1
1
1
1
1
1
1
1
1
1
1
1
1
1
1
1
1
1
1
1
1
1
1
1
1
1
1
1
1
1
1
1
1
1
1
1
1
1
1
1
1
1
1
1
1
1
1
1
1
1
1
1
1
1
1
1
1
1
1
1
1
1
1
1
1
1
1
1
1
1
1
1
1
1
1
1
1
1
1
1
1
1
1
1
1
1
1
1
1
1
1
1
1
1
1
1
1
1
1
1
1
1
1
1
1
1
1
1
1
1
1
1
1
1
1
1
1
1
1
1
1
1
1
1
1
1
1
1
1
1
1
1
1
1
1
1
1
1
1
1
1
1
1
1
1
1
1
1
1
1
1
1
1
1
1
1
1
1
1
1
1
1
1
1
1
1
1
1
1
1
1
1
1
1
1
1
1
1
1
1
1
1
1
1
1
1
1
1
1
1
1
1
1
1
1
1
1
1
1
1
1
1
1
1
1
1
1
1
1
1
1
1
1
1
1
1
1
1
1
1
1
1
1
1
1
1
1
1
1
1
1
1
1
1
1
1
1
1
1
1
1
1
1
1
1
1
1
1
1
1
1
1
1
1
1
1
1
1
1
1
1
1
1
1
1
1
1
1
1
1
1
1
1
1
1
1
1
1
1
1
1
1
1
1
1
1
1
1
1
1
1
1
1
1
1
1
1
1
1
1
1
1
1
1
1
1
1
1
1
1
1
1
1
1
1
1
1
1
1
1
1
1
1
1
1
1
1
1
1
1
1
1
1
1
1
1
1
1
1
1
1
1
1
1
1
1
1
1
1
1
1
1
1
1
1
1
1
1
1
1
1
1
1
1
1
1
1
1
1
1
1
1
1
1
1
1
1
1
1
1
1
1
1
1
1
1
1
1
1
1
1
1
1
1
1
1
1
1
1
1
1
1
1
1
1
1
1
1
1
1
1
1
1
1
1
1
1
1
1
1
1
1
1
1
1
1
1
1
1
1
1
1
1
1
1
1
1
1
1
1
1
1
1
1
1
1
1
1
1
1
1
1
1
1
1
1
1
1
1
1
1
1
1
1
1
1
1
1
1
1
1
1
1
1
1
1
1
1
1
1
1
1
1
1
1
1
1
1
1
1
1
1
1
1
1
1
1
1
1
1
1
1
1
1
1
1
1
1
1
1
1
1
1
1
1
1
1
1
1
1
1
1
1
1
1
1
1
1
1
1
1
1
1
1
1
1
1
1
1
1
1
1
1
1
1
1
1
1
1
1
1
1
1
1
1
1
1
1
1
1
1
1
1
1
1
1
1
1
1
1
1
1
1
1
1
1
1
1
1
1
1
1
1
1
1
1
1
1
1
1
1
1
1
1
1
1
1
1
1
1
1
1
1
1
1
1
1
1
1
1
1
1
1
1
1
1
1
1
1
1
1
1
1
1
1
1
1
1
1
1
1
1
1
1
1
1
1
1
1
1
1
1
1
1
1
1
1
1
1
1
1
1
1
1
1
1
1
1
1
1
1
1
1
1
1
1
1
1
1
1
1
1
1
1
1
1
1
1
1
1
1
1
1
1
1
1
1
1
1
1
1
1
1
1
1
1
1
1
1
1
1
1
1
1
1
1
1
1
1
1
1
1
1
1
1
1
1
1
1
1
1
1
1
1
1
1
1
1
1
1
1
1
1
1
1
1
1
1
1
1
1
1
1
1
1
1
1
1
1
1
1
1
1
1
1
1
1
1
1
1
1
1
1
1
1
1
1
1
1
1
1
1
1
1
1
1
1
1
1
1
1
1
1
1
1
1
1
1
1
1
1
1
1
1
1
1
1
1
1
1
1
1
1
1
1
1
1
1
1
1
1
1
1
1
1
1
1
1
1
1
1
1
1
1
1
1
1
1
1
1
1
1
1
1
1
1
1
1
1
1
1
1
1
1
1
1
1
1
1
1
1
1
1
1
1
1
1
1
1
1
1
1
1
1
1
1
1
1
1
1
1
1
1
1
1
1
1
1
1
1
1
1
1
1
1
1
1
1
1
1
1
1
1
1
1
1
1
1
1
1
1
1
1
1
1
1
1
1
1
1
1
1
1
1
1
1
1
1
1
1
1
1
1
1
1
1
1
1
1
1
1
1
1
1
1
1
1
1
1
1
1
1
1
1
1
1
1
1
1
1
1
1
1
1
1
1
1
1
1
1
1
1
1
1
1
1
1
1
1
1
1
1
1
1
1
1
1
1
1
1
1
1
1
1
1
1
1
1
1
1
1
1
1
1
1
1
1
1
1
1
1
1
1
1
1
1
1
1
1
1
1
1
1
1
1
1
1
1
1
1
1
1
1
1
1
1
1
1
1
1
1
1
1
1
1
1
1
1
1
1
1
1
1
1
1
1
1
1
1
1
1
1
1
1
1
1
1
1
1
1
1
1
1
1
1
1
1
1
1
1
1
1
1
1
1
1
1
1
1
1
1
1
1
1
1
1
1
1
1
1
1
1
1
1
1
1
1
1
1
1
1
1
1
1
1
1
1
1
1
1
1
1
1
1
1
1
1
1
1
1
1
1
1
1
1
1
1
1
1
1
1
1
1
1
1
1
1
1
1
1
1
1
1
1
1
1
1
1
1
1
1
1
1
1
1
1
1
1
1
1
1
1
1
1
1
1
1
1
1
1
1
1
1
1
1
1
1
1
1
1
1
1
1
1
1
1
1
1
1
1
1
1
1
1
1
1
1
1
1
1
1
1
1
1
1
1
1
1
1
1
1
1
1
1
1
1
1
1
1
1
1
1
1
1
1
1
1
1
1
1
1
1
1
1
1
1
1
1
1
1
1
1
1
1
1
1
1
1
1
1
1
1
1
1
1
1
1
1
1
1
1
1
1
1
1
1
1
1
1
1
1
1
1
1
1
1
1
1
1
1
1
1
1
1
1
1
1
1
1
1
1
1
1
1
1
1
1
1
1
1
1
1
1
1
1
1
1
1
1
1
1
1
1
1
1
1
1
1
1
1
1
1
1
1
1
1
1
1
1
1
1
1
1
1
1
1
1
1
1
1
1
1
1
1
1
1
1
1
1
1
1
1
1
1
1
1
1
1
1
1
1
1
1
1
1
1
1
1
1
1
1
1
1
1
1
1
1
1
1
1
1
1
1
1
1
1
1
1
1
1
1
1
1
1
1
1
1
1
1
1
1
1
1
1
1
1
1
1
1
1
1
1
1
1
1
1
1
1
1
1
1
1
1
1
1
1
1
1
1
1
1
1
1
1
1
1
1
1
1
1
1
1
1
1
1
1
1
1
1
1
1
1
1
1
1
1
1
1
1
1
1
1
1
1
1
1
1
1
1
1
1
1
1
1
1
1
1
1
1
1
1
1
1
1
1
1
1
1
1
1
1
1
1
1
1
1
1
1
1
1
1
1
1
1
1
1
1
1
1
1
1
1
1
1
1
1
1
1
1
1
1
1
1
1
1
1
1
1
1
1
1
1
1
1
1
1
1
1
1
1
1
1
1
1
1
1
1
1
1
1
1
1
1
1
1
1
1
1
1
1
1
1
1
1
1
1
1
1
1
1
1
1
1
1
1
1
1
1
1
1
1
1
1
1
1
1
1
1
1
1
1
1
1
1
1
1
1
1
1
1
1
1
1
1
1
1
1
1
1
1
1
1
1
1
1
1
1
1
1
1
1
1
1
1
1
1
1
1
1
1
1
1
1
1
1
1
1
1
1
1
1
1
1
1
1
1
1
1
1
1
1
1
1
1
1
1
1
1
1
1
1
1
1
1
1
1
1
1
1
1
1
1
1
1
1
1
1
1
1
1
1
1
1
1
1
1
1
1
1
1
1
1
1
1
1
1
1
1
1
1
1
1
1
1
1
1
1
1
1
1
1
1
1
1
1
1
1
1
1
1
1
1
1
1
1
1
1
1
1
1
1
1
1
1
1
1
1
1
1
1
1
1
1
1
1
1
1
1
1
1
1
1
1
1
1
1
1
1
1
1
1
1
1
1
1
1
1
1
1
1
1
1
1
1
1
1
1
1
1
1
1
1
1
1
1
1
0.494068
0.580413
0.586954
0.499594
0.494577
0.662667
0.53079
0.477462
0.573738
0.52411
0.456777
0.448217
0.465009
0.437103
0.504338
0.789407
0.645462
0.577693
0.472631
0.711215
0.646165
0.685737
0.598616
0.807424
0.500693
0.489142
0.474694
0.539016
0.626918
0.802576
0.735601
0.431775
0.424403
0.530572
0.475358
0.500584
0.630965
0.601108
0.442912
0.44119
0.483604
0.483505
0.577308
0.533517
0.460792
0.761882
0.645475
0.98384
0.78879
0.620099
0.61403
0.685362
0.457398
0.50335
0.560604
0.475933
0.865787
0.692192
0.919106
0.678121
0.594707
0.707943
0.910815
0.923399
0.991439
0.999171
0.663082
0.683006
0.9451
0.709481
0.739117
0.558359
0.807842
0.747488
0.780048
0.913914
0.883121
0.910365
0.9902
0.943812
0.783025
0.926313
0.966469
0.876978
0.585871
0.900801
0.913487
0.820695
0.825655
0.946725
0.971486
0.56776
0.83465
0.784933
0.803973
0.76116
0.917602
0.829743
0.52198
0.832318
0.631836
0.812482
0.797176
0.83719
0.718054
0.7773
0.989971
0.961761
0.732491
0.639905
0.970433
0.981584
0.922366
0.96951
0.971909
0.969993
0.913507
0.980987
0.952726
0.826786
0.871162
0.887002
0.887664
0.82075
0.850271
0.97825
0.938838
0.921461
0.887158
0.979149
0.930799
0.971476
0.96577
0.691576
0.875404
0.898739
0.880132
0.862403
0.789308
0.763749
0.939804
0.989226
0.920467
0.952089
0.965261
0.988598
0.921576
0.848623
0.944028
0.988198
0.974258
0.88351
0.963397
0.982782
0.941154
0.971579
0.97625
0.981892
0.967861
0.982345
0.979972
0.961745
0.665413
0.798657
0.936572
0.991531
0.608119
0.945665
0.975804
0.902662
0.918129
0.990859
0.999662
0.902869
0.988715
0.903861
0.969363
0.983462
0.970663
0.886125
0.989671
0.98955
0.981582
0.988327
0.990316
0.830038
0.918456
0.971065
0.925482
0.99405
0.504355
0.849349
0.732
0.806693
0.527695
0.644056
1
0.993278
1
0.997536
0.999628
0.995275
0.998088
0.851189
0.992632
0.988529
0.835986
0.874183
0.997716
0.987917
0.839593
0.748391