/*--------------------------------*- C++ -*----------------------------------*\
| =========                 |                                                 |
| \\      /  F ield         | OpenFOAM: The Open Source CFD Toolbox           |
|  \\    /   O peration     | Version:  5.x                                   |
|   \\  /    A nd           | Web:      www.OpenFOAM.org                      |
|    \\/     M anipulation  |                                                 |
\*---------------------------------------------------------------------------*/
FoamFile
{
    version     2.0;
    format      ascii;
    class       volScalarField;
    location    "1.35";
    object      p;
}
// * * * * * * * * * * * * * * * * * * * * * * * * * * * * * * * * * * * * * //

dimensions      [0 2 -2 0 0 0 0];

internalField   nonuniform List<scalar> 
10571
(
221.723
237.28
213.976
207.057
214.841
235.848
201.298
190.126
195.619
196.291
215.254
190.722
188.817
188.308
192.506
196.619
195.095
183.467
187.305
194.074
201.364
189.755
191.011
190.873
88.8695
88.2692
146.205
118.257
92.363
120.139
151.524
139.462
127.172
131.005
98.2671
145.515
162.925
161.789
167.425
161.769
155.046
166.391
171.969
174.082
172.44
175.571
183.386
180.059
78.4075
72.8434
72.8554
76.0863
87.6149
71.598
106.112
110.419
99.8704
101.674
78.815
81.3262
136.698
129.339
137.614
134.866
85.2271
134.543
151.804
146.937
142.562
140.808
158.684
159.612
76.5289
72.7653
72.3504
71.3805
79.2396
72.5671
70.3764
85.3612
84.795
80.5005
74.432
72.4014
85.7908
93.6866
107.185
110.851
77.7918
79.0229
99.5526
124.026
119.494
73.7834
100.878
113.589
73.7064
71.957
71.1129
71.5639
74.8609
71.2205
68.9484
69.0907
71.6001
73.5464
72.6608
71.7236
67.408
69.9585
77.1013
77.645
73.9727
68.8497
69.6759
83.2441
89.5214
71.3083
70.589
73.0429
71.8159
71.3961
70.2807
70.1567
72.0038
70.6775
70.1499
70.0437
67.578
69.6387
69.4674
71.0548
70.3663
70.0941
69.9845
68.6145
69.0183
69.2742
71.1638
71.1679
70.1732
69.4462
69.6026
70.6434
70.2481
69.9514
70.8482
70.8705
69.7907
69.2644
69.9345
70.2834
69.6369
69.8152
69.0997
69.5901
69.3092
70.0777
69.756
69.7375
70.1221
69.4237
69.3206
69.2578
69.6966
71.2012
70.2531
69.3015
69.3505
69.288
70.377
69.9207
69.6061
70.0246
70.3352
69.2478
68.7189
68.9043
69.7581
69.1439
68.644
68.5587
68.658
69.2355
69.4444
69.284
68.9942
69.1598
68.9892
69.0495
69.2218
68.814
69.1742
69.5199
69.2048
69.27
69.2424
69.2164
69.6001
69.3799
69.3005
69.9087
68.8959
68.394
68.6643
69.3413
68.9711
68.5407
68.5298
68.7687
69.2403
69.0419
68.9812
68.7854
68.5537
68.7096
68.9273
69.2524
68.7158
68.0237
68.9754
68.9975
69.0597
68.7513
69.1962
69.107
68.9705
69.5897
68.6829
68.2172
68.5977
69.1303
68.9386
68.665
68.7067
68.1583
68.8725
68.8695
68.8354
68.426
68.5694
68.6155
68.7275
68.616
68.7253
68.802
68.6922
68.8069
68.8311
68.8175
68.8678
69.4137
68.6796
68.1841
68.5681
69.0241
68.9519
68.6839
68.7332
68.3954
68.8858
68.8952
68.8606
68.4832
68.5052
68.4452
68.8608
68.7939
68.5336
68.537
68.4933
68.8048
68.6148
68.6367
68.7991
69.3253
68.7303
68.2712
68.5578
68.9844
68.9731
68.7018
68.7532
68.605
68.9273
68.9435
68.8776
68.6383
68.601
68.6024
68.948
68.7799
68.5072
68.4921
68.5829
68.8281
68.5535
68.5662
68.8625
69.3083
68.8669
68.4114
68.5897
69.0158
69.014
68.7677
68.7947
68.6931
68.9985
68.9993
68.9337
68.7976
68.7614
68.7167
69.0113
68.8504
68.74
68.7075
68.7538
68.8786
68.7017
68.7055
68.9659
69.3454
69.0105
68.6296
68.7004
69.1178
69.0967
68.889
68.8803
68.8321
69.0508
69.0694
69.0262
68.9419
68.9139
68.8578
69.085
68.9734
68.9418
68.8924
68.9162
68.9768
68.8917
68.8838
69.0986
69.396
69.175
68.8557
68.8992
69.242
69.2143
69.0344
68.9977
68.9633
69.1322
69.1631
69.1337
69.0737
69.0507
68.9955
69.1698
69.0802
69.0942
69.036
69.0669
69.0848
69.0574
69.0684
69.2168
69.4668
69.327
69.0726
69.1014
69.3639
69.3213
69.1778
69.1427
69.1094
69.2502
69.2727
69.2373
69.1921
69.1761
69.1321
69.2624
69.1748
69.2168
69.1638
69.2079
69.1932
69.1963
69.2127
69.3467
69.5325
69.4415
69.2406
69.2815
69.4548
69.3888
69.298
69.2921
69.2646
69.3769
69.3811
69.3344
69.2975
69.2923
69.2638
69.3536
69.2833
69.3186
69.2779
69.3284
69.2956
69.3099
69.3262
69.4294
69.5835
69.5218
69.3525
69.4012
69.5258
69.453
69.3893
69.4144
69.3964
69.4935
69.4744
69.4262
69.3896
69.3954
69.378
69.4344
69.3816
69.4059
69.3792
69.426
69.3913
69.4051
69.4219
69.5005
69.6178
69.6011
69.4312
69.4741
69.5663
69.5179
69.4591
69.4908
69.4784
69.5561
69.5327
69.4961
69.4685
69.4749
69.4618
69.4948
69.4587
69.4792
69.4637
69.503
69.4675
69.4816
69.5006
69.5412
69.6325
69.6524
69.4792
69.5077
69.5739
69.5515
69.5065
69.5317
69.5283
69.5908
69.5611
69.5451
69.5328
69.5292
69.5185
69.534
69.5184
69.5348
69.5262
69.5592
69.525
69.5374
69.5568
69.607
69.6471
69.6793
69.5266
69.5368
69.5798
69.5711
69.5404
69.5514
69.5613
69.5952
69.5708
69.5785
69.5721
69.5669
69.5629
69.5573
69.555
69.574
69.5701
69.6005
69.5646
69.5769
69.5934
69.6236
69.6558
69.6871
69.559
69.5658
69.5867
69.5693
69.5581
69.5615
69.5823
69.6047
69.5738
69.5935
69.593
69.5951
69.5944
69.5711
69.5769
69.5995
69.6014
69.6314
69.5883
69.6032
69.6202
69.6251
69.6426
69.6735
69.5812
69.5912
69.5792
69.5776
69.5649
69.569
69.5936
69.6123
69.5777
69.5963
69.6042
69.6081
69.6134
69.5792
69.5963
69.6144
69.6193
69.6527
69.6143
69.6202
69.639
69.6205
69.6592
69.6601
69.5972
69.6136
69.6257
69.5969
69.5659
69.5777
69.6027
69.6426
69.61
69.6209
69.6115
69.6197
69.628
69.5931
69.6165
69.6335
69.6388
69.667
69.6426
69.6369
69.6546
69.6329
69.6657
69.6486
69.6188
69.6287
69.682
69.6274
69.5753
69.5887
69.6155
69.6882
69.6383
69.6574
69.6264
69.6369
69.6458
69.6201
69.6301
69.655
69.6637
69.6778
69.6605
69.6561
69.6695
69.6498
69.6819
69.645
69.633
69.644
69.6958
69.6325
69.5992
69.6029
69.6321
69.7017
69.6341
69.6772
69.6432
69.6486
69.6607
69.6423
69.6422
69.6697
69.6766
69.6897
69.6657
69.67
69.6808
69.6317
69.6891
69.6347
69.6225
69.6477
69.7432
69.6397
69.6211
69.6124
69.6497
69.6278
69.6259
69.6593
69.6538
69.6687
69.6737
69.6426
69.6409
69.6839
69.6845
69.7005
69.662
69.6779
69.6885
69.6186
69.6849
69.5988
69.6191
69.6393
69.7597
69.617
69.6345
69.6078
69.6614
69.5983
69.5433
69.6118
69.6645
69.6974
69.6847
69.6053
69.6332
69.7036
69.6956
69.7096
69.6564
69.6887
69.695
69.6123
69.6788
69.5722
69.6276
69.6271
69.5296
69.5987
69.63
69.5945
69.6652
69.7579
69.6422
69.6122
69.664
69.7001
69.684
69.5544
69.6114
69.6948
69.7
69.7095
69.6439
69.6899
69.6913
69.6291
69.6552
69.5718
69.7045
69.6288
69.4074
69.5343
69.6297
69.5866
69.6652
69.7497
69.5654
69.5909
69.6377
69.6597
69.6625
69.5299
69.5843
69.6412
69.6798
69.6917
69.6164
69.657
69.6628
69.6942
69.5469
69.5527
69.9036
69.6329
69.4026
69.4675
69.5975
69.5811
69.6535
69.5399
69.4691
69.4987
69.5612
69.5781
69.6125
69.5061
69.5128
69.5491
69.6254
69.6457
69.5698
69.5927
69.611
69.6686
69.4742
69.4686
69.7186
69.6015
69.3947
69.4029
69.5124
69.5625
69.6041
69.3449
69.3383
69.3564
69.4307
69.4795
69.5411
69.3883
69.407
69.431
69.5505
69.5781
69.4848
69.5145
69.5388
69.5066
69.4532
69.374
69.4399
69.4992
69.4871
69.3526
69.402
69.5241
69.5317
69.1057
69.1467
69.2197
69.2867
69.4072
69.4732
69.2427
69.2866
69.286
69.4701
69.5103
69.3833
69.418
69.4533
69.3812
69.4422
69.3276
69.2696
69.4018
69.5082
69.3042
69.3357
69.4584
69.4641
69.009
68.9989
69.1253
69.1857
69.3806
69.4086
69.2688
69.3026
69.1938
69.3999
69.4394
69.3539
69.3528
69.3877
69.3085
69.4224
69.3188
69.2193
69.3329
69.5003
69.2967
69.337
69.3889
69.4221
69.2647
69.1689
69.1144
69.1924
69.3685
69.3819
69.4821
69.3279
69.2285
69.359
69.3924
69.4224
69.3649
69.3727
69.2622
69.3855
69.3052
69.2185
69.2808
69.4347
69.2984
69.3567
69.314
69.3856
69.4838
69.3882
69.2491
69.2446
69.3299
69.357
69.6998
69.5063
69.3688
69.3426
69.365
69.5806
69.4178
69.3882
69.2194
69.3413
69.2747
69.1594
69.2283
69.3489
69.2694
69.3534
69.2459
69.3293
69.3885
69.2806
69.208
69.287
69.278
69.3133
69.5148
69.4507
69.4202
69.3203
69.338
69.7161
69.4591
69.3852
69.2282
69.3055
69.2658
69.1564
69.2143
69.2758
69.232
69.3243
69.1992
69.2755
69.2327
69.1552
69.0883
69.2854
69.2423
69.2789
69.2711
69.3097
69.3823
69.2953
69.3138
69.7051
69.4433
69.3542
69.2762
69.2736
69.288
69.2718
69.2207
69.1743
69.1882
69.2746
69.1356
69.2252
69.1408
69.0284
69.0386
69.2274
69.2179
69.2534
69.0699
69.1518
69.3038
69.2691
69.2886
69.2964
69.3305
69.292
69.3675
69.2368
69.3075
69.4221
69.2455
69.0356
69.1445
69.2146
69.1163
69.1806
69.0467
68.8789
69.067
69.1566
69.1946
69.2058
68.9223
68.9608
69.1661
69.2335
69.2455
68.9445
69.1749
69.2039
69.4318
69.1746
69.3096
69.3739
69.3013
68.8503
69.0765
69.1369
69.1104
69.1353
68.9807
68.7785
69.1244
69.0694
69.1621
69.1165
68.8065
68.7293
69.0285
69.1754
69.1724
68.6089
69.0206
69.1065
69.3776
69.0745
69.267
69.2822
69.3072
68.6749
68.9945
69.0582
69.0713
69.0863
69.0079
68.7782
69.078
68.9579
69.11
69.0398
68.6937
68.5707
68.8605
69.0969
69.0842
68.3881
68.8829
69.0172
69.3384
68.9755
69.1715
69.2581
69.2982
68.6305
68.8936
68.966
69.0268
69.0544
69.0792
68.9016
69.0065
68.8311
69.0367
68.9976
68.5989
68.5337
68.7134
68.9856
69.0034
68.4118
68.8012
68.9517
69.349
68.9175
69.0378
69.2662
69.3079
68.7511
68.8751
68.9206
69.0248
69.0467
69.154
69.0525
68.8722
68.7969
68.9857
68.9868
68.648
68.4799
68.6247
68.8661
68.9402
68.6427
68.8078
68.9136
69.3434
68.965
68.8952
69.2282
69.2983
68.9605
68.9088
68.8955
69.0465
69.048
69.217
69.16
68.7025
68.7633
68.9287
68.9734
68.8871
68.6321
68.6864
68.8084
68.9086
68.9086
68.897
68.9246
69.2985
69.0362
68.7843
69.1405
69.2401
69.102
68.9553
68.9219
69.0913
69.0855
69.265
69.2313
68.67
68.8121
68.8908
68.9893
69.2146
68.9309
68.8492
68.8435
68.9345
69.2039
69.0696
68.9972
69.2406
69.0729
68.7645
69.025
69.1942
69.1053
69.026
68.9818
69.1276
69.1488
69.3067
69.2951
68.8413
68.9403
68.9469
69.0577
69.5444
69.4248
69.0606
68.9588
69.0152
69.5708
69.289
69.1287
69.1298
69.0875
68.8069
68.9057
69.2083
69.1122
69.0879
69.0422
69.1607
69.213
69.3317
69.3384
69.2194
69.0586
69.0639
69.1658
69.7174
70.0524
69.2852
69.0626
69.1015
70.1127
69.5016
69.2603
69.0406
69.1556
68.8549
68.7929
69.2159
69.1548
69.0973
69.0776
69.2032
69.2602
69.3461
69.3447
69.4348
69.16
69.1599
69.2826
69.6599
70.1809
69.4094
69.1011
69.1758
70.2327
69.7012
69.3764
68.9868
69.2206
68.979
68.7046
69.1546
69.1929
69.0719
69.0753
69.1694
69.2546
69.326
69.2964
69.3813
69.2378
69.1895
69.3237
69.5444
69.9213
69.444
69.2106
69.2331
69.9791
69.6657
69.4702
68.9785
69.2062
69.0962
68.6537
69.0361
69.1615
69.0336
69.0105
69.079
69.1692
69.2671
69.2127
69.2494
69.2204
69.1514
69.2728
69.4313
69.6383
69.4423
69.2739
69.2197
69.8007
69.4984
69.4688
68.9323
69.1006
69.0285
68.7017
68.911
69.0847
68.9611
68.8444
68.9633
69.0523
69.184
69.1027
69.1057
69.0877
69.0322
69.141
69.3203
69.3969
69.3498
69.2388
69.1485
69.5395
69.4347
69.3891
68.7483
68.9645
68.8365
68.664
68.7866
68.9807
68.8826
68.6533
68.8094
68.9185
69.0943
68.9826
68.9586
68.9099
68.8603
68.9715
69.2006
69.147
69.1305
69.1102
69.0241
69.2851
69.2561
69.2163
68.6054
68.8585
68.6812
68.598
68.6804
68.8735
68.7684
68.5297
68.6469
68.7738
69.0115
68.867
68.8156
68.7353
68.6824
68.8191
69.0753
68.917
68.8497
68.9243
68.867
69.0437
68.9785
69.0078
68.6319
68.8156
68.6454
68.5675
68.602
68.7871
68.698
68.4648
68.5152
68.6307
68.948
68.7798
68.6955
68.5706
68.5106
68.6517
68.9584
68.7023
68.5386
68.6972
68.6811
68.8166
68.6172
68.7633
68.7044
68.8378
68.7017
68.6448
68.5522
68.7355
68.7075
68.4589
68.4191
68.4896
68.9219
68.7385
68.6033
68.421
68.3403
68.4344
68.8777
68.529
68.2881
68.5392
68.485
68.5595
68.261
68.5178
68.7728
68.9046
68.799
68.7141
68.5268
68.7295
68.7424
68.4686
68.2946
68.3328
68.9423
68.7567
68.5813
68.318
68.1447
68.1952
68.8553
68.4359
68.1939
68.3863
68.2832
68.3749
68.1263
68.3433
68.8278
69.0015
68.9061
68.777
68.5143
68.7789
68.7898
68.5068
68.158
68.1115
69.0073
68.8366
68.6435
68.3077
67.9632
67.9183
68.9065
68.4848
68.2325
68.2107
68.0582
68.4581
68.2331
68.2585
68.9088
69.1334
69.0354
68.8523
68.4855
68.9138
68.8511
68.5492
67.9607
67.7101
69.1246
68.9723
68.7825
68.382
67.7486
67.5008
69.0358
68.6732
68.5399
68.0254
67.7805
68.7002
68.4561
68.2648
69.0409
69.3215
69.1976
68.952
68.4381
69.1509
68.9408
68.5992
67.5899
67.0002
69.2952
69.1634
68.9606
68.4878
67.3987
66.5586
69.2382
69.0485
68.9276
67.938
67.3759
69.0882
68.7142
68.4153
69.2333
69.5807
69.4219
69.0975
68.4011
69.4554
69.0799
68.5402
66.9592
65.5211
69.5199
69.408
69.1415
68.5595
66.8753
64.1401
69.4874
69.5077
69.4171
68.158
66.7405
69.5616
69.3119
68.8406
69.5479
69.9108
69.7441
69.3548
68.4731
69.7848
69.2622
68.4115
65.9904
61.7712
69.7741
69.6767
69.34
68.4292
66.0139
58.6885
69.7299
69.8737
69.5208
67.9686
65.1289
69.9414
69.7619
69.1423
70.022
70.2119
70.1734
69.7543
68.828
70.0937
69.4775
68.3553
65.0855
51.8511
70.0286
69.9202
69.4855
68.1609
65.0084
52.4493
-29.8271
69.9182
69.9261
69.5216
67.4526
60.8213
70.0491
69.8317
69.2177
70.5778
70.4092
70.6718
70.279
69.1474
70.2243
69.6929
68.4941
64.7085
46.4299
-0.444806
70.1979
70.1016
69.4791
68.2053
64.8326
52.6096
5.42281
70.038
69.919
69.5029
67.2049
54.6781
70.005
69.8082
69.3905
70.9784
70.6384
71.0132
70.6547
69.6883
69.7525
69.8024
68.7374
66.0134
54.2399
17.2823
70.1712
70.1075
69.3386
68.4337
66.0812
53.9533
19.2084
70.0196
69.913
69.6095
67.8959
57.9558
20.318
69.9689
69.7869
69.6468
71.0504
71.0928
70.9704
70.6579
69.7665
69.9342
69.8411
68.8467
67.4559
56.9843
19.0287
69.9381
69.7988
69.3674
68.7929
67.866
57.2587
21.1915
69.8668
69.905
69.9626
68.9213
63.4934
69.9382
69.8169
70.0027
70.4323
70.6606
70.6864
69.9989
69.0371
69.5832
69.7572
68.7814
68.0644
62.1699
69.5027
69.3641
69.2339
69.0205
68.7816
62.3292
-2.83385
69.5526
69.7111
70.0331
69.7849
69.697
69.8184
69.8975
70.1514
69.4376
69.9993
69.9624
69.0348
68.2194
69.2103
69.0353
68.5438
68.1631
67.748
69.1524
69.0278
68.749
68.6856
68.8515
68.0811
69.2803
69.3658
69.6502
69.76
70.3078
69.5402
69.6841
69.9481
68.7581
69.5022
69.2682
68.3373
67.7081
69.0194
68.5202
68.0876
67.8387
68.3
68.9592
68.776
68.4602
68.3658
68.5399
68.7853
69.0535
69.026
69.2252
69.3959
69.9044
69.2762
69.3766
69.6458
68.5981
69.2092
68.8253
67.9953
67.6807
68.8918
68.1334
67.8314
67.7756
68.3252
68.8811
68.6635
68.2275
68.177
68.3649
68.7196
68.9088
68.7493
68.9569
69.1014
69.4539
69.0294
69.1314
69.3837
68.8824
69.1425
68.7514
68.1686
68.1303
68.8032
68.0121
67.7415
67.6384
68.5671
68.8043
68.6232
68.1273
68.0947
68.3723
68.8159
68.7948
68.5634
68.8454
69.0239
69.3326
68.8462
69.022
69.3005
69.4714
69.335
69.0532
68.7125
68.849
68.7893
68.1494
67.9762
68.1551
68.9814
68.7086
68.5466
68.1762
68.1917
68.6873
69.2019
68.6068
68.512
68.9531
69.2078
69.5327
68.8054
69.1242
69.4535
70.1717
69.757
69.6098
69.4145
69.5856
68.9341
68.4856
68.4605
68.7893
69.5974
68.6537
68.4546
68.2493
68.4939
69.2694
69.7592
68.3617
68.6394
69.3549
69.6771
70.0331
68.955
69.5847
69.9716
71.0108
70.5402
70.3195
70.0655
70.2515
69.4768
69.0277
68.9698
69.3743
70.154
69.2002
68.5879
68.5042
68.6772
69.4309
70.4072
68.4563
68.7456
69.458
70.3065
70.7157
69.48
70.4608
70.813
71.3955
71.0682
70.6971
70.4504
70.5125
70.0465
69.3896
69.2886
69.6467
70.3858
70.1013
69.0255
68.7681
69.1393
69.8205
70.754
68.9166
69.1417
70.0716
70.7015
71.0807
70.3779
71.2897
71.5155
232.542
224.574
226.1
225.972
228.241
232.748
229.321
224.119
269.663
252.833
241.286
261.971
232.404
222.538
212.857
213.965
204.582
221.608
224.47
204.739
209.776
223.665
218.338
213.668
220.35
213.448
278.136
276.222
276.539
251.421
222.037
230.618
206.96
207.61
201.784
200.667
197.188
198.779
204.469
194.295
198.236
201.658
210.784
194.711
200.382
210.641
205.568
197.861
254.604
241.363
213.169
209.69
197.237
203.214
193.787
195.24
195.162
190.978
190.8
201.588
205.741
193.332
199.592
196.798
200.116
195.351
199.946
201.137
198.246
202.652
207.972
206.85
192.853
215.487
207.835
192.019
198.671
205.5
210.732
196.94
201.174
197.129
199.401
204.152
210.535
218.457
227.396
208.563
211.792
213.658
220.046
210.407
202.31
201.968
201.839
214.165
224.997
189.572
218.896
220.665
217.972
196.667
203.089
195.635
222.872
222.869
190.546
181.705
174.912
216.855
158.805
252.185
180.611
227.708
245.042
220.009
184.166
184.097
185.504
183.902
213.329
205.893
208.96
151.937
159.774
168.281
146.544
204.65
156.906
254.859
231.047
229.799
156.711
127.162
121.974
190.117
189.228
157.125
165.659
170.655
204.078
201.621
150.645
153.115
186.633
195.601
196.46
183.94
183.755
186.827
199.439
190.872
188.026
194.293
188.754
185.623
181.616
181.809
181.725
202.127
189.842
197.851
186.567
190.084
181.477
184.155
190.562
192.571
183.344
194.251
191.48
182.485
185.001
191.001
189.022
188.86
189.365
186.647
191.108
185.794
101.302
74.2666
102.975
127.608
119.447
76.3987
75.7155
76.7428
91.0462
87.4289
77.5165
77.2258
81.2284
89.8187
85.9697
92.6482
73.6962
109.455
96.8992
131.249
72.8836
75.401
73.2782
88.3258
98.3142
100.361
98.6525
89.0416
92.0616
91.8252
91.5816
113.702
98.8517
94.6651
92.8251
96.1054
74.327
81.8086
81.3234
142.928
150.053
118.184
130.023
132.516
105.708
126.708
84.2396
84.6205
93.2547
162.238
169.239
146.364
146.122
153.493
151.162
107.276
168.16
160.065
169.456
108.602
142.944
121.712
148.712
174.435
178.025
176.294
159.587
159.525
172.978
168.29
156.501
170.501
153.496
174.575
176.584
163.288
165.071
166.064
183.275
183.278
173.414
177.397
172.17
172.119
72.5765
73.4771
75.1069
72.6052
74.0444
75.4635
74.0202
74.4362
77.3918
81.0541
78.0866
76.6514
79.5999
85.0661
82.8698
73.2155
73.7185
72.153
72.7325
72.5396
73.1624
72.9385
73.2698
71.4941
90.3431
90.632
90.5191
83.2118
86.891
86.6531
86.055
91.443
86.1014
73.1122
76.8144
74.7402
73.9233
74.6478
74.2387
118.727
119.989
87.7465
101.276
104.802
76.7611
81.1922
75.8011
75.1785
76.7224
133.144
140.569
124.04
121.049
130.474
86.7858
79.2185
104.649
86.5826
106.019
79.4276
80.366
78.6144
78.5807
145.498
160.955
152.437
135.652
133.092
139.688
135.279
131.013
115.731
79.0028
152.046
150.166
97.5719
126.597
125.569
165.201
156.744
132.583
136.497
131.17
138.278
73.0453
72.4415
74.4498
73.4103
73.4164
73.4115
72.5158
72.2882
75.1243
77.7469
74.8944
73.6929
76.0186
80.2957
77.9316
73.0885
72.4582
72.6847
72.6582
71.8857
72.3015
72.1968
72.122
71.7745
82.776
80.2778
81.2069
76.5424
79.5124
74.929
77.1544
81.7818
78.1982
73.2874
73.664
73.3808
72.424
72.8301
72.5515
87.1693
90.399
76.7667
78.0701
79.7906
74.2468
75.0285
73.5154
73.2405
73.7007
106.637
118.574
94.4311
90.8627
103.55
76.1384
74.4392
74.1862
76.6729
73.8739
76.0537
74.7532
75.4778
74.4575
119.851
116.576
117.929
109.025
106.003
96.8624
100.767
105.694
73.2673
73.6335
85.5143
88.7257
71.3879
72.0015
72.2106
108.14
98.3291
73.2045
77.4497
72.1265
89.1044
72.1175
71.8366
72.495
71.87
71.4078
71.7649
71.4975
70.8436
72.4168
74.2872
72.6125
71.4509
72.773
75.9517
74.2474
72.0294
71.6868
71.8086
71.7597
71.4303
71.6643
71.5155
71.5061
71.1266
76.7633
72.3303
74.16
73.4114
74.3306
71.0158
71.9125
74.8941
72.0736
71.909
72.1436
71.9346
71.5146
71.5014
71.3784
71.7414
72.2066
71.0471
69.3279
69.4539
72.3112
72.4995
71.7891
71.4514
71.4802
75.1316
87.1309
69.4985
69.2188
71.9844
72.9999
71.8334
74.0111
74.1727
73.6465
72.1694
72.2755
72.674
72.4416
89.1449
77.3691
84.1908
71.4932
73.8961
70.1264
71.3496
74.8418
72.875
72.0458
70.4709
70.4814
70.9452
70.6367
70.6811
71.1211
70.5069
70.5575
70.5695
70.583
70.3791
71.5293
71.27
71.2792
71.1496
70.4417
70.8727
70.8622
70.1814
70.7515
71.6472
71.2563
70.1994
70.7386
72.7401
71.3259
71.4168
71.1561
71.2218
71.3096
70.9077
71.1453
70.9465
71.0946
70.7081
72.2009
70.1118
70.4853
70.781
70.705
69.7256
69.989
70.0765
69.2626
71.1589
70.9443
70.9109
70.8752
70.5138
70.5375
69.2608
69.0383
69.7667
69.485
68.3942
69.2658
68.7604
69.3113
69.2637
69.2232
69.3055
69.3282
69.24
69.1942
70.7733
70.7487
70.5059
70.3131
70.2286
69.4681
69.5027
69.1892
69.2484
68.8052
69.1101
68.9189
69.2907
69.3229
69.3055
69.238
69.2712
69.2574
69.364
70.9719
70.2868
71.0888
71.5107
71.5798
70.5086
70.8628
70.7663
71.0658
69.717
69.5883
69.7543
69.1081
69.2012
69.3738
69.3113
69.0906
71.5605
71.0965
70.3424
70.3283
70.4898
70.1642
70.2058
70.2689
70.2272
70.0427
70.0287
70.0659
69.7146
70.956
70.631
70.4448
70.5015
69.8337
69.9887
70.1005
69.4186
69.7874
70.0677
70.4514
69.4495
69.6548
70.2789
69.6902
70.8418
70.5142
70.6877
70.8154
70.4686
70.5941
70.4187
70.5158
70.2029
69.8533
69.6128
69.8303
69.3039
69.23
69.2509
69.4347
69.453
68.4341
69.5478
69.3222
69.2542
69.2999
69.2061
69.3099
70.5738
70.1695
70.2119
70.2554
69.8732
69.906
68.789
69.3892
69.1497
69.1573
68.9976
69.0865
69.0436
69.2306
69.2394
69.221
69.2291
69.2187
69.1915
69.1876
69.9468
69.8392
69.7345
69.6332
69.5179
69.1921
69.2773
69.1964
69.1693
69.1331
69.2804
69.1734
69.2617
69.2838
69.2927
69.2214
69.2328
69.2462
69.2685
69.8205
69.4658
71.0718
70.129
70.7603
69.0604
70.4611
69.453
70.1746
69.3851
69.3829
69.4378
69.2931
69.3165
69.3112
69.3764
69.229
69.3014
69.2337
69.2911
69.2545
69.2767
70.6972
70.0949
70.1274
70.1748
69.9791
69.9846
70.086
69.9167
69.9661
69.7944
69.8139
69.858
69.5035
70.3653
70.1511
69.662
69.8038
69.2125
69.4444
69.5924
69.0261
69.1874
69.3846
69.6311
68.9274
69.166
69.3618
69.1822
70.2301
69.9947
70.1681
70.2526
69.9522
70.1124
69.9473
70.0218
69.7329
68.8694
68.79
68.915
68.7368
68.6845
68.4993
68.5867
69.4251
69.8762
69.0932
69.9502
69.3749
69.3824
69.3928
69.3912
69.9811
69.621
69.6479
69.7553
69.4193
69.4493
69.1089
68.9209
69.1655
68.672
69.3091
68.9112
69.1819
69.2621
69.1583
69.2016
69.2356
69.2936
69.1229
69.2153
69.3679
69.2502
69.206
69.1613
69.0594
69.2051
69.2676
69.241
68.9756
69.2278
69.125
69.229
69.2404
69.2544
69.2705
69.222
69.262
69.2618
69.2821
69.1501
68.9172
68.8156
68.9379
68.8922
68.7684
68.3295
68.7923
68.3593
69.2179
69.2341
69.2556
69.1019
69.1336
69.1685
69.1966
69.2551
69.1843
69.2667
69.2687
69.2657
69.2755
69.1502
68.6944
69.4982
69.7216
68.8043
69.0285
69.3027
69.6399
69.6279
69.3817
69.437
69.4095
69.2419
69.9662
69.8109
69.2092
69.4352
68.8288
69.0171
69.2613
68.719
68.7226
69.006
69.0721
68.6153
68.8729
69.0585
68.9043
69.794
69.6161
69.7627
69.8248
69.5512
69.7292
69.6103
69.654
69.4115
68.5734
68.4299
68.4464
68.6142
68.534
68.4515
68.4001
68.6337
68.1391
69.5549
69.2657
69.2937
69.3798
69.152
69.1709
69.3814
68.8766
69.1499
68.5747
68.8817
68.8092
68.8841
69.3412
69.1689
69.2637
69.2413
69.3349
69.2015
69.2448
69.0138
68.9359
68.9348
68.9149
68.86
69.194
68.9718
69.271
68.8172
68.9962
68.8052
69.1439
69.2926
69.2721
69.2899
69.2652
69.3011
69.2788
69.2894
68.8019
68.7577
68.5271
68.7571
68.5355
68.676
68.5604
68.7196
68.6428
69.0341
69.0638
69.1047
68.9287
68.9133
68.9537
68.9609
68.8887
68.6584
68.7107
68.8449
69.0424
68.7831
68.7987
68.8693
69.2435
69.2037
69.0375
69.0534
69.0219
68.9644
69.5964
69.4868
68.9126
69.1524
68.6529
68.8504
69.1119
68.6142
68.5706
68.7999
68.9501
68.5409
68.7272
68.8074
68.7586
69.4708
69.3697
69.4837
69.5177
69.3074
69.4873
69.3921
69.4213
69.2322
68.5443
68.4713
68.4374
68.5922
68.5545
68.4589
68.4727
68.2341
68.4516
69.2487
69.0752
69.087
69.1622
69.035
69.0388
68.6559
68.6684
68.1981
68.4904
67.8335
68.8682
68.842
68.8618
68.8692
68.8595
68.8312
68.5926
68.4297
67.848
68.4472
68.7732
68.8153
68.6284
68.7245
68.6965
68.7989
68.7017
68.771
68.7383
68.793
68.8215
68.8487
68.6546
68.6764
68.7527
68.7505
68.5628
68.7535
68.7798
68.7658
68.7522
68.8067
68.7402
68.7192
68.8515
68.8331
68.6769
68.7176
68.7141
68.7263
69.4283
69.3919
68.8095
69.0742
68.638
68.7847
69.0522
68.6569
68.5043
68.6588
68.7655
68.5184
68.6346
68.7142
68.6801
69.301
69.2513
69.3347
69.351
69.1851
69.3606
69.2996
69.2995
69.1599
68.5471
68.4492
68.4913
68.5455
68.5249
68.4614
68.4744
68.54
68.5577
69.1066
69.0162
69.0153
69.0696
69.0057
69.0083
68.5361
68.3696
68.5363
68.6029
68.5874
68.8915
68.8934
68.9154
68.9169
68.9319
68.3132
68.4036
68.5361
68.5478
68.4778
68.863
68.9089
68.7642
68.8261
68.7885
68.9097
68.8187
68.8721
68.8334
68.5437
68.6978
68.6497
68.4551
68.4743
68.5898
68.5487
68.5067
68.8085
68.8396
68.7297
68.7088
68.8141
68.7284
68.6793
68.6312
68.6369
68.5702
68.5697
68.5723
68.5833
69.3735
69.3623
68.7908
69.0606
68.6624
68.8398
69.096
68.7412
68.5263
68.6227
68.8123
68.5859
68.6488
68.655
68.6467
69.2217
69.2153
69.2778
69.2712
69.1513
69.3067
69.2672
69.2666
69.1573
68.5186
68.499
68.4575
68.5745
68.5374
68.5408
68.4697
68.5663
68.585
69.0463
69.0087
69.0127
69.0424
69.0213
69.0193
68.6477
68.6326
68.6412
68.6765
68.6715
68.9443
68.9687
68.9663
68.9718
69.0038
68.6127
68.5719
68.6559
68.6638
68.6546
68.9492
68.9854
68.8657
68.9051
68.8676
68.9792
68.9111
68.9345
68.9042
68.5239
68.5173
68.5287
68.5931
68.614
68.5781
68.6035
68.6665
68.8699
68.9041
68.7472
68.7048
68.8466
68.7826
68.7513
68.5549
68.5599
68.6005
68.6161
68.6035
68.6098
69.3649
69.3736
68.9146
69.1423
68.8357
68.9562
69.1731
68.8847
68.6631
68.7
68.9046
68.743
68.7527
68.6687
68.71
69.2293
69.2561
69.2703
69.2808
69.1793
69.3259
69.2862
69.306
69.2125
68.5574
68.5968
68.4892
68.6356
68.5981
68.6432
68.5172
68.6131
68.6511
69.0626
69.0401
69.0351
69.0978
69.0703
69.0635
68.7176
68.7268
68.763
68.7728
68.7876
69.001
69.0384
69.0225
69.0265
69.0731
68.7246
68.7313
68.7854
68.7944
68.7999
69.0193
69.0535
68.9527
68.9698
68.9414
69.0459
68.9999
69.0084
68.9872
68.7164
68.6898
68.7083
68.8066
68.804
68.7901
68.8049
68.8359
68.9428
68.9859
68.8382
68.8319
68.9222
68.9041
68.9176
68.7224
68.7073
68.7978
68.8151
68.8053
68.7955
69.394
69.427
69.0167
69.2169
68.9592
69.0988
69.2794
69.0618
68.8376
68.827
69.0325
68.9439
68.9268
68.7742
68.8665
69.2849
69.3111
69.3156
69.3308
69.2512
69.3676
69.3567
69.3541
69.2923
68.67
68.7053
68.5776
68.7885
68.7563
68.7702
68.6613
68.7001
68.7655
69.1371
69.1041
69.1014
69.1769
69.1508
69.1475
68.8346
68.8504
68.896
68.8966
68.9133
69.0547
69.1101
69.0868
69.092
69.1517
68.8654
68.8706
68.9271
68.9338
68.939
69.0903
69.1312
69.053
69.0525
69.038
69.1258
69.103
69.0983
69.0876
68.8875
68.8815
68.8955
68.964
68.9642
68.9706
68.9781
68.9929
69.0353
69.0881
68.9762
68.9914
69.032
69.0408
69.0552
68.901
68.9023
68.977
68.9875
68.9885
68.9806
69.4641
69.5012
69.1666
69.3331
69.1452
69.2203
69.3789
69.2081
69.0375
69.0263
69.1536
69.1076
69.1027
68.9728
69.0529
69.3402
69.3776
69.4007
69.3822
69.3387
69.4303
69.4429
69.4178
69.3866
68.8611
68.8495
68.7703
68.9995
68.9673
68.9466
68.8943
68.8332
68.9254
69.2195
69.2064
69.2038
69.2733
69.2676
69.2591
68.9657
68.981
69.031
69.0354
69.0505
69.1383
69.1989
69.1875
69.1915
69.2496
69.0031
69.0122
69.0624
69.0699
69.0834
69.1759
69.2225
69.1511
69.1465
69.138
69.2153
69.1984
69.1941
69.1875
69.0386
69.0556
69.0607
69.1003
69.111
69.1335
69.1391
69.1396
69.1418
69.1937
69.0997
69.115
69.1395
69.156
69.1712
69.0767
69.0686
69.1289
69.1538
69.1405
69.1457
69.5388
69.5721
69.2842
69.4309
69.2768
69.3526
69.4823
69.3489
69.1766
69.1823
69.288
69.2597
69.2721
69.1337
69.227
69.4188
69.4596
69.4827
69.4538
69.4307
69.5016
69.5182
69.4877
69.4697
69.0825
69.0452
69.0276
69.2017
69.1957
69.1377
69.1582
69.0391
69.1515
69.3319
69.3266
69.3149
69.3897
69.3823
69.3708
69.1118
69.1242
69.188
69.1849
69.1948
69.2512
69.2997
69.3146
69.3139
69.3508
69.1409
69.1535
69.1995
69.2068
69.2193
69.27
69.3181
69.2452
69.2426
69.2355
69.3083
69.2931
69.2907
69.2836
69.1814
69.204
69.2107
69.2226
69.2455
69.2642
69.2722
69.2718
69.2427
69.2917
69.2104
69.2248
69.2454
69.2632
69.2758
69.2205
69.2094
69.2559
69.2771
69.2691
69.2724
69.5981
69.6194
69.4083
69.5233
69.4073
69.4517
69.5608
69.4507
69.3329
69.3419
69.3932
69.379
69.3859
69.3065
69.3611
69.4969
69.5273
69.547
69.5204
69.5046
69.5593
69.5707
69.5484
69.5343
69.2926
69.222
69.2697
69.3478
69.3678
69.2956
69.3657
69.2606
69.354
69.4375
69.4334
69.423
69.4775
69.4737
69.4665
69.2563
69.2646
69.336
69.3213
69.3277
69.3773
69.4035
69.4408
69.4401
69.4527
69.2718
69.2811
69.3234
69.3304
69.3388
69.3658
69.4112
69.339
69.3389
69.3305
69.3961
69.381
69.3859
69.3744
69.3036
69.3187
69.3269
69.3302
69.3551
69.3678
69.3753
69.3805
69.3404
69.3887
69.3147
69.3237
69.3449
69.362
69.3688
69.3288
69.3226
69.3595
69.3759
69.3698
69.3759
69.638
69.6548
69.4891
69.6048
69.4891
69.5289
69.6541
69.5301
69.4176
69.4204
69.4638
69.4614
69.4612
69.3944
69.4343
69.553
69.5761
69.5919
69.5696
69.5598
69.6043
69.6106
69.5871
69.5832
69.427
69.3618
69.4407
69.4405
69.4666
69.4137
69.4978
69.4254
69.4762
69.5147
69.5102
69.5049
69.5468
69.5395
69.5362
69.3786
69.3847
69.4425
69.4262
69.4322
69.4936
69.494
69.5289
69.5318
69.5262
69.3848
69.3917
69.4245
69.4319
69.4398
69.4506
69.4836
69.4201
69.4289
69.4157
69.4673
69.4537
69.4665
69.4523
69.4028
69.4139
69.4206
69.4234
69.4453
69.4556
69.4611
69.4678
69.4319
69.4706
69.4065
69.41
69.4313
69.4459
69.4482
69.4212
69.4137
69.4453
69.4622
69.4531
69.4638
69.672
69.6874
69.5727
69.704
69.5735
69.6149
69.7488
69.6188
69.5057
69.5031
69.5297
69.539
69.5299
69.477
69.505
69.5919
69.5992
69.6255
69.6012
69.6013
69.6256
69.6378
69.608
69.613
69.5062
69.4568
69.5281
69.4945
69.528
69.4835
69.5467
69.5084
69.5297
69.5679
69.5595
69.5553
69.5795
69.5711
69.5662
69.4654
69.471
69.5053
69.4958
69.5021
69.5589
69.5505
69.5777
69.5793
69.5656
69.4712
69.4816
69.4917
69.5025
69.5163
69.5066
69.5265
69.4828
69.4987
69.4848
69.5164
69.5075
69.5242
69.5132
69.4836
69.4932
69.4962
69.4986
69.5164
69.523
69.5267
69.5336
69.504
69.5337
69.482
69.4837
69.4979
69.5128
69.514
69.4997
69.4889
69.5117
69.5308
69.5189
69.5312
69.6965
69.7023
69.6598
69.7824
69.6654
69.6867
69.7976
69.7027
69.5629
69.5445
69.5799
69.5847
69.565
69.5197
69.5374
69.6057
69.6153
69.6495
69.6128
69.6214
69.6402
69.6602
69.6213
69.6314
69.5421
69.5081
69.5583
69.5214
69.5536
69.5232
69.5664
69.5467
69.5561
69.588
69.5794
69.5773
69.5959
69.5868
69.5874
69.5217
69.5279
69.546
69.5415
69.5487
69.5923
69.5737
69.5953
69.5965
69.5748
69.5304
69.5457
69.5427
69.5547
69.5721
69.5409
69.55
69.5271
69.5454
69.5365
69.5473
69.5423
69.5622
69.556
69.5431
69.5486
69.5507
69.5499
69.5658
69.5683
69.5713
69.5816
69.5583
69.5791
69.5402
69.5403
69.5467
69.5619
69.5624
69.5573
69.5439
69.559
69.5796
69.5647
69.5772