/*--------------------------------*- C++ -*----------------------------------*\
| =========                 |                                                 |
| \\      /  F ield         | OpenFOAM: The Open Source CFD Toolbox           |
|  \\    /   O peration     | Version:  5.x                                   |
|   \\  /    A nd           | Web:      www.OpenFOAM.org                      |
|    \\/     M anipulation  |                                                 |
\*---------------------------------------------------------------------------*/
FoamFile
{
    version     2.0;
    format      ascii;
    class       volVectorField;
    location    "1.35";
    object      U;
}
// * * * * * * * * * * * * * * * * * * * * * * * * * * * * * * * * * * * * * //

dimensions      [0 1 -1 0 0 0 0];

internalField   nonuniform List<vector> 
10571
(
(-0.15948 0.156591 1.91116)
(0.243188 -0.106822 0.923267)
(1.56705 0.832247 2.95455)
(-0.314302 1.13056 2.36922)
(0.0939031 0.445964 2.30818)
(0.728813 0.423317 1.21689)
(1.88899 1.23018 3.33432)
(-0.0780072 1.56453 3.88364)
(-0.395867 2.0314 4.34355)
(0.00934889 0.509409 1.62876)
(0.465077 0.230374 1.04234)
(1.55162 1.08734 2.99836)
(0.751797 1.54934 3.90726)
(-0.522457 0.385231 2.94527)
(0.157691 0.262264 3.33742)
(0.0555572 -0.190037 3.03543)
(1.00774 0.290294 2.68082)
(0.40341 -0.437204 3.53637)
(-0.405063 -0.133197 3.35611)
(-1.04231 -0.437817 2.7168)
(-0.0841098 -0.167497 0.770168)
(-0.0742351 -0.63817 2.69187)
(0.575418 -0.277728 3.10443)
(-0.0922353 -0.223156 1.49078)
(0.169896 0.000999845 0.880144)
(-0.120968 -0.0192202 0.532709)
(-0.532218 -0.0361221 2.14426)
(0.883243 -0.422028 1.87898)
(-0.185596 -0.111659 2.29262)
(-0.389672 -0.163491 1.00996)
(0.225339 -0.184481 3.8296)
(0.824987 -0.643082 4.07348)
(0.0868663 -1.5246 3.9335)
(-0.321018 -1.05513 2.23177)
(-0.136851 -0.196407 0.630504)
(-1.15635 -0.493523 2.42478)
(0.127618 0.0601237 5.56654)
(-0.0947421 -0.507477 2.85829)
(-0.0458664 -0.923568 3.27876)
(0.0673862 -0.606914 2.17331)
(-0.059231 -0.170854 0.77921)
(-0.469783 -0.55 5.66431)
(-0.2354 -1.1445 4.03791)
(-0.175939 -0.292651 1.38595)
(-0.041681 0.0341924 0.37846)
(0.058424 -0.230778 1.37428)
(-0.153246 -0.407593 1.21364)
(0.195536 -0.111319 0.279032)
(-1.06719 -0.403516 1.4709)
(0.0363404 -0.0283725 1.20323)
(-0.177395 -0.698114 1.58875)
(0.459386 -2.09318 2.69708)
(-0.26154 -1.63728 2.301)
(-1.00947 -0.300073 1.6019)
(-0.310063 -0.558601 1.83486)
(0.601223 -1.79575 5.03138)
(0.328784 -1.91198 3.61845)
(-0.183637 -1.33968 1.92159)
(-0.3623 -0.607124 2.35993)
(-1.1577 -0.373783 1.66855)
(-1.0558 -0.747899 4.99067)
(0.0588233 -1.05061 3.7051)
(-0.0293393 -0.738359 2.4729)
(0.23422 -0.661936 1.51887)
(-0.613535 0.0443351 1.54566)
(-0.837149 0.0486316 3.14264)
(-0.0684483 -0.624556 3.68104)
(0.285112 -0.787928 1.93095)
(0.00497673 0.0037548 0.355592)
(-0.22984 0.00947824 1.16492)
(0.00201401 -0.012021 0.750534)
(0.125387 -0.0141 0.358035)
(-1.6851 -0.620389 2.78033)
(0.0646639 -0.0816307 1.28338)
(-0.0267236 0.193165 1.53004)
(-0.558287 -1.39405 2.49391)
(-0.435298 -1.89951 3.76992)
(-0.389631 -0.115228 1.34426)
(-0.435966 -0.514276 2.17243)
(0.0738784 -0.637498 2.20783)
(0.473806 -1.60098 3.26988)
(0.187444 -1.42151 2.87335)
(-0.182942 -0.751855 2.93586)
(-0.924489 -0.759718 2.10195)
(-0.442366 -0.147006 2.46938)
(-0.0790918 -0.204991 2.1855)
(-0.071979 -0.315453 1.91007)
(0.134786 -0.353113 0.938475)
(-0.215395 0.0767029 1.68053)
(-0.681075 0.332242 3.61312)
(-0.123856 0.0702809 1.61613)
(-0.0581546 -0.142722 2.09824)
(-0.0184039 0.0102566 0.549653)
(-0.292707 0.0582819 1.0844)
(-0.00702703 0.0111115 0.717434)
(-0.00488906 -0.000412333 0.448784)
(-1.629 -0.503858 3.74846)
(0.0709328 0.0479353 1.88336)
(-0.163381 0.276169 2.21789)
(-0.561195 -0.76753 2.31263)
(-0.698105 -1.71057 4.78289)
(0.108034 -0.105698 2.00996)
(0.160742 0.232469 2.00324)
(-0.037893 -0.129049 2.54419)
(0.196955 -0.310953 1.52452)
(0.430236 -0.705028 3.13668)
(-0.178713 -0.792462 2.98327)
(-0.908242 -0.864157 2.58787)
(-0.0566642 -0.0448599 3.44221)
(-0.409536 0.0225243 2.99981)
(0.107197 0.0619586 1.18083)
(0.138216 0.0165365 0.521912)
(-0.413976 -0.0390264 1.23363)
(-0.0125867 -0.0415681 3.74022)
(-0.432523 -0.0594745 3.17801)
(0.00687973 0.175676 1.42093)
(0.0110542 0.00979398 0.602201)
(0.570469 0.126579 1.228)
(0.0828417 -0.150416 0.883789)
(-0.116859 0.102422 0.351409)
(-1.55344 -0.390572 4.16587)
(0.0248064 0.180352 2.22993)
(-0.14691 0.472266 2.68545)
(-0.515008 -0.515085 2.63009)
(-0.750291 -1.27384 5.06727)
(0.196915 -0.199574 2.33868)
(0.239796 0.196785 1.47603)
(0.26904 0.086494 1.72882)
(0.141562 0.368529 1.68093)
(0.405131 0.167406 2.87519)
(-0.00233744 0.00339287 -0.00355424)
(-0.139662 -0.665899 3.0326)
(-0.499093 -0.714666 2.75064)
(0.0163496 -0.0697336 2.31626)
(-0.188865 0.0819671 2.52947)
(0.170051 -0.0498597 1.489)
(-0.0279065 0.116666 0.674257)
(-0.00177656 -0.00121801 -0.000929129)
(-0.286158 -0.239683 0.929943)
(0.0851017 -0.00211536 3.02542)
(-0.214422 -0.101715 2.21465)
(0.00881071 0.150903 1.04814)
(0.0599789 -0.0146781 0.521651)
(0.903008 0.115247 1.23784)
(0.263182 -0.283 0.397926)
(0.186327 -0.236941 0.174835)
(-1.30252 -0.311554 4.35574)
(-0.0407485 0.276518 2.46192)
(-0.184736 0.56203 3.04928)
(-0.429506 -0.407501 2.67531)
(-0.668583 -0.917459 5.17802)
(0.182384 -0.302493 2.58008)
(0.180856 0.150143 1.6313)
(0.186101 -0.107549 1.14388)
(0.213118 0.304722 0.88221)
(0.325374 0.151824 2.27679)
(-0.532673 0.251385 0.0635861)
(-0.10043 -0.491831 3.09736)
(-0.318673 -0.521503 2.6389)
(-0.0996539 -0.338262 2.27395)
(-0.0383822 0.118777 2.03478)
(0.322496 0.0257797 0.998561)
(0.0948268 0.397622 0.731847)
(0.0758704 0.109556 0.0826463)
(-0.372311 -0.146945 0.505054)
(0.143477 0.0492423 2.71981)
(0.319546 0.127349 2.06833)
(0.219007 -0.0075266 1.02628)
(0.0954986 0.0593008 0.298827)
(0.0307279 0.0129555 0.0603745)
(0.593811 0.342987 1.47628)
(0.405708 0.0558168 0.635249)
(0.283307 -0.0862053 0.0385552)
(-1.17815 -0.276006 4.50385)
(-0.00569598 0.271599 2.71209)
(-0.160134 0.586985 3.30495)
(-0.298908 -0.284238 2.65686)
(-0.509255 -0.765715 5.03145)
(0.137074 -0.244723 2.77515)
(0.222 0.126838 1.91299)
(0.22006 -0.152703 1.13552)
(0.0941724 0.0850831 0.781735)
(0.18729 0.351185 1.69355)
(-0.281199 0.259894 0.150812)
(-0.0635913 -0.31935 3.02184)
(-0.248651 -0.280976 2.52704)
(-0.178054 -0.371432 2.39327)
(0.0083034 0.0354965 1.81739)
(0.27214 -0.0259682 1.00578)
(0.107432 0.126302 0.842285)
(0.0374327 0.0838093 0.327866)
(-0.422269 -0.115175 0.897222)
(-0.0259993 0.0418595 1.74005)
(0.328131 0.111267 1.9659)
(0.37859 0.0438628 1.44425)
(0.0418721 0.0648884 0.514621)
(0.136262 0.0310271 0.104421)
(0.160349 0.292902 1.46411)
(0.247736 0.104762 0.907937)
(0.291055 -0.0751963 0.168787)
(-1.06099 -0.232987 4.66778)
(-0.0223752 0.316362 2.89289)
(-0.145988 0.608341 3.47167)
(-0.198572 -0.147137 2.63534)
(-0.410567 -0.619308 4.90509)
(0.143746 -0.0963462 2.90966)
(0.25387 0.131271 2.03959)
(0.293546 -0.106037 1.22456)
(-0.155302 0.0694395 0.927011)
(-0.135381 0.34643 1.96448)
(-0.337915 -0.251029 -0.0131314)
(-0.0640843 -0.107714 2.9963)
(-0.271247 -0.0877403 2.45352)
(-0.170959 -0.289095 2.38598)
(0.0242948 -0.0567134 1.76424)
(0.129078 -0.143143 1.17453)
(-0.0721968 0.0274433 1.01809)
(-0.0699666 -0.172392 0.395763)
(-0.0747495 -0.0300396 0.958827)
(-0.0441809 0.00978705 1.86843)
(0.178315 0.0542836 1.86109)
(0.408179 0.0237193 1.72305)
(-0.050383 -0.0367194 0.603708)
(0.0262441 0.353757 1.7348)
(0.0124096 0.0535539 1.06434)
(0.150864 -0.0275268 0.288804)
(-0.956386 -0.176173 4.69864)
(-0.0578239 0.33393 3.00803)
(-0.0953712 0.594441 3.6087)
(-0.146364 -0.0374484 2.61395)
(-0.333482 -0.506478 4.79177)
(0.125527 0.00882636 2.94222)
(0.231236 0.166577 2.09175)
(0.309108 -0.0383742 1.19519)
(-0.140998 0.000777358 1.06317)
(-0.462885 -0.0126338 1.90258)
(-0.0448111 0.0755531 3.01889)
(-0.27764 0.0480316 2.36913)
(-0.134414 -0.220682 2.28959)
(0.0636616 -0.0823833 1.60042)
(0.0924872 -0.123126 1.22053)
(-0.245092 -0.0421871 1.18971)
(0.0266224 -0.046515 1.03051)
(-0.0518238 0.012292 1.65478)
(0.0832726 -0.00254982 1.68268)
(0.353041 -0.0236316 1.71432)
(0.0619625 -0.133654 0.620878)
(-0.0247874 0.183932 1.81491)
(-0.0657605 0.0471276 0.905899)
(0.0322549 0.00818041 0.307235)
(-0.823189 -0.119142 4.46934)
(-0.0610613 0.307554 3.05532)
(-0.0659731 0.59334 3.64956)
(-0.0884624 0.0482196 2.60836)
(-0.285939 -0.417898 4.61019)
(0.100376 0.0663121 2.93687)
(0.207125 0.209657 2.1281)
(0.306447 0.0732672 1.22794)
(-0.109977 0.0165682 1.22881)
(-0.424423 -0.0410414 1.68096)
(-0.0442558 0.163045 3.01232)
(-0.278947 0.129641 2.22494)
(-0.0624993 -0.198297 2.20847)
(0.13588 -0.0832293 1.58216)
(0.126707 -0.0949721 1.3274)
(0.0823392 -0.116372 1.27855)
(0.0762344 0.0229244 1.06457)
(-0.00457389 0.0568575 1.52628)
(0.114398 0.0311319 1.44345)
(0.296647 -0.0397745 1.64325)
(0.152005 -0.22171 0.752236)
(-0.0200753 0.136297 1.87599)
(-0.0366309 0.0386875 0.926144)
(-0.00559824 0.0561777 0.262868)
(-0.697108 -0.0937783 4.39855)
(-0.0647833 0.2788 3.05183)
(-0.053863 0.577214 3.64967)
(-0.0468162 0.112534 2.61152)
(-0.255515 -0.321087 4.48159)
(0.101409 0.120431 2.93567)
(0.210149 0.251755 2.14479)
(0.308002 0.173019 1.30475)
(-0.113066 0.0310259 1.35735)
(-0.371852 -0.0593702 1.40989)
(-0.0301852 0.208906 3.02638)
(-0.251147 0.162282 2.09507)
(-0.00534357 -0.143477 2.16316)
(0.190711 -0.0172041 1.54904)
(0.138283 0.00453201 1.43492)
(0.0779418 -0.0824445 1.25781)
(0.104403 0.102118 1.16785)
(0.109725 0.104583 1.53002)
(0.150976 0.0560139 1.47312)
(0.270226 -0.0249942 1.61843)
(0.156625 -0.189864 0.96101)
(0.0166604 0.128758 1.91639)
(0.0356642 0.0801948 0.939292)
(-0.00333645 -0.00304484 0.333966)
(-0.59896 -0.0747315 4.25192)
(-0.0874473 0.271795 3.00456)
(-0.0185248 0.527919 3.5862)
(-0.0334003 0.170626 2.62963)
(-0.1988 -0.233741 4.32351)
(0.133323 0.18146 2.95888)
(0.222462 0.276244 2.13244)
(0.325744 0.240507 1.36946)
(-0.0973365 0.0419394 1.44058)
(-0.267864 -0.101217 1.31765)
(-0.0131836 0.198187 2.98313)
(-0.19993 0.186259 2.00736)
(0.0455612 -0.0725302 2.11698)
(0.230457 0.0550307 1.54111)
(0.148991 0.0598793 1.48388)
(0.0766724 -0.0700712 1.28717)
(0.117512 0.154344 1.26806)
(0.178771 0.146658 1.51675)
(0.170166 0.0809856 1.44169)
(0.239802 0.0250108 1.59454)
(0.124699 -0.15602 1.115)
(0.0640893 0.125642 1.94441)
(0.104601 0.0686376 1.03909)
(0.0391765 -0.0277088 0.258915)
(-0.505716 -0.0637249 4.13404)
(-0.147833 0.281835 2.91964)
(0.00803479 0.468308 3.48325)
(-0.0170641 0.21265 2.64843)
(-0.159766 -0.157791 4.11117)
(0.162947 0.244004 2.97107)
(0.22366 0.285965 2.11118)
(0.332837 0.287406 1.42321)
(-0.0647204 0.061514 1.50956)
(-0.193999 -0.115924 1.29016)
(-0.0123281 0.211392 2.95647)
(-0.141781 0.208541 1.95305)
(0.0851404 -0.0434263 2.06399)
(0.244143 0.0900862 1.56485)
(0.164563 0.0830074 1.54913)
(0.0787049 -0.0645305 1.31952)
(0.110421 0.16736 1.35401)
(0.21992 0.152644 1.46802)
(0.197871 0.102879 1.44641)
(0.23428 0.0559047 1.6133)
(0.128498 -0.140163 1.24849)
(0.104756 0.128223 1.94165)
(0.161986 0.059109 1.19354)
(0.0331512 0.00844326 0.33245)
(-0.40497 -0.0379527 4.06384)
(-0.168509 0.266669 2.84152)
(0.00976419 0.419952 3.33765)
(-0.0162683 0.229152 2.65544)
(-0.137232 -0.084733 3.88967)
(0.16334 0.273904 2.92948)
(0.21498 0.283373 2.10201)
(0.310306 0.318043 1.47365)
(-0.0392852 0.0869047 1.5773)
(-0.151174 -0.0923838 1.31498)
(-0.0196117 0.246104 2.98473)
(-0.0859283 0.234702 1.92578)
(0.0973851 -0.0295854 2.01261)
(0.241409 0.106093 1.60549)
(0.177461 0.0898582 1.62005)
(0.081771 -0.060891 1.38207)
(0.100481 0.163981 1.43064)
(0.249661 0.137561 1.42194)
(0.208861 0.106745 1.48074)
(0.245977 0.0639108 1.65739)
(0.136669 -0.139204 1.39466)
(0.127656 0.121665 1.92893)
(0.195435 0.0500788 1.37494)
(0.0381731 -0.00169762 0.511334)
(-0.331353 -0.0151961 3.98534)
(-0.146463 0.241132 2.78013)
(0.0155528 0.3736 3.15418)
(-0.0227832 0.220976 2.66396)
(-0.125384 -0.0385561 3.63953)
(0.148119 0.269522 2.83187)
(0.202911 0.274113 2.09717)
(0.270657 0.326193 1.5245)
(-0.0246073 0.106581 1.64986)
(-0.126951 -0.0445105 1.36909)
(-0.018857 0.255577 3.03218)
(-0.0394942 0.250062 1.92887)
(0.103129 0.0210802 1.96715)
(0.228879 0.121164 1.65595)
(0.177705 0.0868319 1.70638)
(0.0836363 -0.0572044 1.48214)
(0.0914287 0.147122 1.50919)
(0.260092 0.136967 1.40694)
(0.202426 0.0950568 1.52169)
(0.254647 0.0530883 1.71689)
(0.137007 -0.141052 1.53274)
(0.137514 0.105338 1.92186)
(0.202352 0.0434449 1.54315)
(0.0528515 -0.0125224 0.692605)
(-0.260711 -0.000554215 3.87324)
(-0.123055 0.214619 2.74211)
(0.010142 0.331476 2.95295)
(-0.0288549 0.208297 2.66972)
(-0.110184 0.00563673 3.37378)
(0.121467 0.244227 2.72595)
(0.202229 0.26767 2.08005)
(0.249597 0.31352 1.57687)
(0.00240601 0.117475 1.73024)
(-0.109949 -0.0142185 1.46234)
(-0.0122511 0.235171 3.04146)
(0.00687754 0.245093 1.95883)
(0.118637 0.109814 1.92118)
(0.228442 0.133044 1.71333)
(0.17672 0.0889101 1.79531)
(0.0836529 -0.0543828 1.60464)
(0.0785215 0.125362 1.59752)
(0.259891 0.142128 1.40926)
(0.197748 0.0860429 1.57471)
(0.253628 0.0356514 1.78297)
(0.134997 -0.142241 1.66627)
(0.143415 0.0861641 1.92502)
(0.207233 0.0318197 1.68802)
(0.0670591 -0.0175565 0.8713)
(-0.190969 0.00703232 3.79138)
(-0.111795 0.199529 2.71911)
(0.027825 0.334426 2.77127)
(-0.0335455 0.182091 2.67262)
(-0.111751 0.0183086 3.14837)
(0.102421 0.182644 2.62865)
(0.218337 0.271444 2.01847)
(0.261511 0.284714 1.61923)
(0.0494818 0.115109 1.80737)
(-0.0869327 -0.0251082 1.57819)
(-0.0111365 0.179211 2.98992)
(0.0288441 0.2236 1.98946)
(0.138142 0.198874 1.85546)
(0.254334 0.141134 1.76382)
(0.186064 0.0924942 1.89041)
(0.0826914 -0.0510321 1.74319)
(0.0526238 0.094089 1.68569)
(0.256323 0.154254 1.43458)
(0.208465 0.0913285 1.63466)
(0.245306 0.0206486 1.85805)
(0.128167 -0.13974 1.79536)
(0.150124 0.0699404 1.93674)
(0.210783 0.0188678 1.80275)
(0.0814647 -0.0245738 1.04826)
(-0.119898 0.00266978 3.74963)
(-0.0913516 0.168582 2.71371)
(-0.00489116 0.374901 2.59804)
(-0.0431345 0.143615 2.68492)
(-0.136708 0.000748142 2.99742)
(0.0729917 0.139693 2.55237)
(0.240538 0.298998 1.91855)
(0.284289 0.235595 1.64366)
(0.104307 0.0952384 1.87855)
(-0.0644652 -0.0589874 1.69784)
(-0.0184549 0.126336 2.93731)
(0.0562048 0.182668 2.02974)
(0.15642 0.251615 1.76856)
(0.280497 0.155063 1.79789)
(0.19572 0.0853132 1.99524)
(0.0884609 -0.0441104 1.86516)
(0.0355839 0.0668352 1.76033)
(0.250499 0.163053 1.47185)
(0.218711 0.0922378 1.6996)
(0.226711 0.012248 1.9431)
(0.114826 -0.130689 1.9112)
(0.157069 0.0577682 1.9594)
(0.203968 0.0133638 1.89436)
(0.0973191 -0.0320696 1.22154)
(-0.0169452 -0.00632391 3.75056)
(-0.0305588 0.118797 2.74701)
(0.00975726 0.334719 2.41108)
(-0.0710664 0.109145 2.71776)
(-0.15095 -0.00941969 2.90946)
(0.0536482 0.133366 2.52389)
(0.256916 0.325992 1.82151)
(0.292209 0.170784 1.65206)
(0.145131 0.0648401 1.94893)
(-0.0485657 -0.0866949 1.81487)
(-0.0268014 0.0825239 2.86312)
(0.106259 0.13907 2.06447)
(0.164008 0.274115 1.68539)
(0.282837 0.173749 1.81167)
(0.203821 0.0792599 2.10203)
(0.0951676 -0.0427053 2.00251)
(0.0177536 0.0271832 1.81175)
(0.227869 0.165951 1.49753)
(0.210838 0.0825224 1.77865)
(0.207029 0.00811475 2.03987)
(0.101075 -0.115529 2.01482)
(0.165914 0.050936 1.98809)
(0.193521 0.0147559 1.97498)
(0.107717 -0.0365933 1.38447)
(0.0820683 -0.0019117 3.74397)
(0.0100013 0.0812933 2.76957)
(0.0278088 0.276927 2.22915)
(-0.10468 0.0886737 2.76089)
(-0.161043 -0.00939156 2.86)
(0.033743 0.165238 2.5227)
(0.264993 0.329334 1.72289)
(0.278989 0.118466 1.65308)
(0.167122 0.0320672 2.01481)
(-0.0397919 -0.112702 1.92551)
(-0.0252047 0.0554523 2.83209)
(0.14558 0.126324 2.08651)
(0.14775 0.277691 1.6218)
(0.270042 0.187236 1.80468)
(0.219871 0.0878622 2.19739)
(0.105261 -0.0418233 2.12383)
(0.0152919 -0.00892541 1.83117)
(0.186749 0.159997 1.52394)
(0.189331 0.0765141 1.8544)
(0.189605 0.00776729 2.14163)
(0.086474 -0.0941985 2.11508)
(0.170604 0.0462895 2.02098)
(0.183256 0.0186792 2.05011)
(0.114497 -0.0388958 1.52952)
(0.137786 -0.00537495 3.71411)
(0.0349896 0.0600734 2.76163)
(0.0783069 0.223075 2.05342)
(-0.129206 0.078325 2.79803)
(-0.155606 -0.0142746 2.84237)
(0.017029 0.222934 2.56189)
(0.248168 0.311065 1.63995)
(0.256704 0.0933923 1.65548)
(0.173756 -0.00529765 2.07369)
(-0.0399811 -0.1401 2.03231)
(-0.000912026 0.0369833 2.73243)
(0.186431 0.126323 2.09956)
(0.12217 0.270916 1.57534)
(0.262548 0.183893 1.78169)
(0.235075 0.0924878 2.27416)
(0.112604 -0.0469301 2.23188)
(0.0210993 -0.0177754 1.83849)
(0.155278 0.147435 1.54667)
(0.163105 0.0750472 1.92503)
(0.175429 0.0166157 2.24273)
(0.0759385 -0.0727753 2.20982)
(0.158695 0.045482 2.0493)
(0.170623 0.0199243 2.12088)
(0.119387 -0.037866 1.65938)
(0.160002 -0.00147482 3.65321)
(0.0104417 0.0484001 2.72852)
(0.149366 0.177414 1.88692)
(-0.128527 0.0880438 2.82862)
(-0.158628 -0.0295643 2.82823)
(0.0225655 0.227393 2.576)
(0.21526 0.281294 1.59282)
(0.236014 0.0939624 1.66684)
(0.164092 -0.0442713 2.13181)
(-0.0467452 -0.167047 2.13183)
(0.00687882 0.0222166 2.55294)
(0.215231 0.151966 2.10664)
(0.116297 0.261678 1.55228)
(0.254639 0.168009 1.74308)
(0.244358 0.0785783 2.33685)
(0.116922 -0.0561067 2.32676)
(0.0194313 -0.0202161 1.84898)
(0.138736 0.153287 1.56615)
(0.136312 0.0620589 1.99544)
(0.164422 0.0272714 2.33964)
(0.0664598 -0.0543162 2.30785)
(0.13713 0.0395031 2.06579)
(0.162121 0.0147925 2.18402)
(0.121163 -0.0355518 1.7813)
(0.182758 0.00220913 3.55152)
(-0.0486608 0.0447761 2.60628)
(0.0799674 0.149024 1.76914)
(-0.153326 0.126835 2.85568)
(-0.167141 -0.0441704 2.80718)
(0.0679273 0.229621 2.5255)
(0.199581 0.246558 1.58291)
(0.199496 0.127173 1.69142)
(0.144583 -0.0677349 2.18847)
(-0.0471174 -0.191194 2.22382)
(0.0245466 0.0579283 2.3539)
(0.281489 0.197301 2.06317)
(0.121405 0.258652 1.55169)
(0.222649 0.162109 1.7197)
(0.258292 0.0637539 2.38304)
(0.115311 -0.0737348 2.40777)
(0.0179875 -0.0423831 1.87621)
(0.112227 0.182787 1.59846)
(0.1158 0.0496239 2.04979)
(0.156693 0.0313723 2.4215)
(0.0593942 -0.040005 2.40023)
(0.104492 0.0327312 2.06655)
(0.15537 0.00840503 2.23774)
(0.118422 -0.0323067 1.89007)
(0.148664 -0.00447434 3.39831)
(0.00495378 0.0110991 2.50932)
(-0.0147099 0.115856 1.70155)
(-0.16086 0.158979 2.85934)
(-0.170876 -0.0607868 2.76734)
(0.150565 0.18013 2.46678)
(0.220864 0.211291 1.59594)
(0.164839 0.157759 1.72196)
(0.131088 -0.0666276 2.2312)
(-0.0388802 -0.214898 2.31131)
(0.0479152 0.309196 1.93988)
(0.326937 0.232368 2.01634)
(0.126687 0.255128 1.57244)
(0.156449 0.186902 1.70499)
(0.270651 0.0641638 2.40103)
(0.11743 -0.0918767 2.47373)
(0.0344441 -0.0486256 1.89441)
(0.0681415 0.203943 1.65514)
(0.100606 0.0638584 2.09382)
(0.154129 0.0350902 2.49141)
(0.0571254 -0.02778 2.49123)
(0.0764994 0.0438183 2.07153)
(0.141514 0.00945835 2.28898)
(0.113334 -0.0271924 1.98576)
(0.166635 0.0135586 3.22382)
(0.0499012 -0.0147219 2.43643)
(-0.0192616 0.0656497 1.68238)
(-0.138906 0.193373 2.85515)
(-0.167585 -0.067727 2.71461)
(0.153818 0.140643 2.43438)
(0.263288 0.164372 1.62714)
(0.146152 0.171942 1.75236)
(0.132656 -0.0577359 2.25638)
(-0.0286041 -0.236996 2.39839)
(0.0143378 0.39497 1.66616)
(0.273091 0.306171 1.98441)
(0.130344 0.220448 1.61376)
(0.0983233 0.220183 1.68397)
(0.27235 0.0669074 2.40022)
(0.121602 -0.105638 2.53318)
(0.045171 -0.00795472 1.92247)
(0.0289303 0.19835 1.71314)
(0.0711686 0.0882671 2.13822)
(0.155137 0.0373052 2.55586)
(0.0574763 -0.0236497 2.57698)
(0.0595331 0.0546438 2.09834)
(0.120689 0.0175975 2.34727)
(0.112841 -0.0228631 2.08249)
(0.181587 0.0252741 2.94658)
(0.0166209 0.00588784 2.22748)
(0.0068682 0.00826314 1.72544)
(-0.144216 0.195428 2.85638)
(-0.154342 -0.0769802 2.64355)
(0.311575 0.119411 2.27168)
(0.265043 0.132748 1.66478)
(0.133875 0.185653 1.77343)
(0.14196 -0.0530688 2.26784)
(-0.0127166 -0.255492 2.48789)
(-0.0342782 0.38797 1.73377)
(0.113513 0.349069 1.95506)
(0.15743 0.179952 1.61584)
(0.0752438 0.236551 1.66814)
(0.27025 0.0670654 2.38832)
(0.118306 -0.11872 2.58534)
(-0.0232511 0.008557 2.01057)
(0.0151794 0.180213 1.74919)
(0.0260748 0.0969175 2.17409)
(0.154072 0.0466791 2.60891)
(0.0583864 -0.021927 2.65848)
(0.0475309 0.0574274 2.14088)
(0.0953468 0.0324088 2.4116)
(0.109449 -0.0196321 2.17678)
(0.113303 -0.0356936 2.73864)
(0.066847 -0.0581969 2.17136)
(-0.0298914 -0.0485098 1.8319)
(-0.155871 0.19619 2.81687)
(-0.137118 -0.0734015 2.57172)
(0.359303 -0.0246319 1.98947)
(0.20054 0.121632 1.69557)
(0.123606 0.212402 1.77152)
(0.14498 -0.047472 2.27)
(-0.000961427 -0.268839 2.58154)
(-0.0275002 0.133376 1.74729)
(0.0689337 0.252725 1.90046)
(0.254513 0.165272 1.5961)
(0.0804446 0.240054 1.66854)
(0.275542 0.0689823 2.35495)
(0.122662 -0.133432 2.63313)
(-0.0678114 0.0114712 2.06803)
(0.024026 0.175994 1.76403)
(-0.00368246 0.128537 2.18848)
(0.151582 0.0681232 2.64654)
(0.0597422 -0.021429 2.7354)
(0.0238359 0.0560593 2.19554)
(0.0651402 0.0519018 2.47866)
(0.105946 -0.0143913 2.27008)
(0.10441 -0.0209479 2.6269)
(0.0961993 0.00324175 2.13588)
(-0.228349 -0.0778709 1.94735)
(-0.235758 0.196294 2.75819)
(-0.133473 -0.0846699 2.51993)
(0.185806 -0.0440148 1.95483)
(0.0941017 0.152477 1.68996)
(0.110457 0.286962 1.72069)
(0.140407 -0.0283915 2.26405)
(0.00127008 -0.274607 2.67792)
(-0.0515816 -0.363505 1.24593)
(0.469328 0.0929337 1.60491)
(0.348584 0.210425 1.63306)
(0.115153 0.269181 1.69246)
(0.301744 0.10448 2.31577)
(0.136321 -0.145572 2.68656)
(-0.101577 -0.039789 2.15249)
(0.067354 0.181191 1.78079)
(-0.0104647 0.196555 2.20544)
(0.150421 0.0886014 2.67942)
(0.0613647 -0.0170095 2.81353)
(-0.00371402 0.0541761 2.26506)
(0.0346331 0.0755589 2.55722)
(0.103429 -0.00751443 2.37355)
(0.0240527 -0.012978 2.26071)
(-0.0848331 0.198494 2.04769)
(-0.485047 -0.0530972 1.93081)
(-0.23494 0.00758474 2.70407)
(-0.116338 -0.130432 2.50957)
(-0.100377 0.167532 2.17517)
(0.0739622 0.221532 1.6352)
(0.110657 0.35655 1.60933)
(0.152535 0.0370805 2.23503)
(-0.00503879 -0.270263 2.77109)
(0.0130201 0.0207383 0.931376)
(0.443403 0.0883991 1.3857)
(0.336731 0.294967 1.70218)
(0.153192 0.339267 1.72343)
(0.321901 0.17042 2.3039)
(0.151063 -0.147487 2.75227)
(-0.0214399 -0.0134671 2.19329)
(0.147689 0.212054 1.85873)
(-0.00780501 0.241412 2.27558)
(0.151547 0.118317 2.71466)
(0.0657821 -0.0133594 2.90397)
(-0.0261654 0.0576174 2.35017)
(0.0116176 0.0995523 2.66266)
(0.09494 0.00217442 2.50071)
(-0.131477 -0.107366 2.30319)
(-0.178447 0.225769 1.98505)
(-0.512538 -0.0224111 1.88707)
(-0.141233 -0.137332 2.20006)
(-0.088314 -0.133915 2.5398)
(-0.118774 0.230112 2.30322)
(0.171147 0.292863 1.51159)
(0.148998 0.325142 1.48036)
(0.187308 0.128977 2.18404)
(-0.00921007 -0.252235 2.86564)
(0.0469553 0.306029 0.702697)
(0.167936 0.259214 1.31596)
(0.226923 0.351844 1.73322)
(0.133975 0.380122 1.72934)
(0.308449 0.226291 2.33401)
(0.158486 -0.127983 2.82829)
(0.102587 0.119377 2.29652)
(0.165756 0.290792 2.00155)
(-0.0100336 0.249528 2.39386)
(0.152065 0.152237 2.75351)
(0.0686752 -0.0118973 3.01016)
(-0.0369483 0.0661741 2.45369)
(0.00477481 0.109831 2.78973)
(0.078495 0.0140699 2.6485)
(-0.198505 -0.113057 2.50254)
(-0.130742 0.166319 1.91737)
(-0.217404 0.0701941 1.76489)
(-0.0588733 -0.159762 1.68632)
(0.00265945 -0.135207 2.65548)
(-0.0488835 0.229888 2.26606)
(0.33973 0.260919 1.36756)
(0.217682 0.228402 1.35028)
(0.190152 0.172725 2.12936)
(-0.00508966 -0.226025 2.97427)
(0.0801576 0.35228 0.610894)
(0.0451101 0.330113 1.26432)
(0.0523846 0.294398 1.73946)
(0.0580637 0.390278 1.69784)
(0.272789 0.266158 2.37579)
(0.156288 -0.097933 2.92031)
(0.125262 0.160756 2.45873)
(0.0814156 0.333752 2.16511)
(-0.0301128 0.261289 2.50988)
(0.143308 0.181304 2.79117)
(0.0703724 -0.0127493 3.12515)
(-0.0546524 0.0742474 2.59636)
(-0.00257442 0.104656 2.91951)
(0.054442 0.0226552 2.8033)
(-0.190516 -0.0822199 2.66175)
(-0.092197 0.125188 1.88678)
(-0.0887257 0.100284 1.57822)
(0.053281 -0.169415 1.46842)
(0.0132593 -0.139033 2.80986)
(-0.009253 0.335964 1.98475)
(0.476157 0.113645 1.29451)
(0.287112 0.121777 1.25818)
(0.155186 0.163085 2.06587)
(0.00786638 -0.209224 3.0823)
(0.0911654 0.179902 0.553571)
(0.0436723 0.149295 1.26143)
(-0.0222999 0.130006 1.71897)
(-0.0521555 0.310245 1.58744)
(0.21003 0.297836 2.3759)
(0.140406 -0.0756963 3.01077)
(0.0166267 -0.0201576 2.66708)
(-0.0492262 0.225102 2.28742)
(-0.0739388 0.244205 2.61829)
(0.116324 0.201438 2.81878)
(0.0706795 -0.0157943 3.23104)
(-0.0723344 0.0688104 2.7404)
(-0.019431 0.0959871 3.04351)
(0.0273736 0.0279552 2.94855)
(-0.123638 -0.022922 2.73529)
(-0.132723 0.14832 1.89127)
(-0.0947591 0.0934329 1.43761)
(0.0653708 -0.166503 1.45284)
(-0.0776051 -0.136413 2.91974)
(0.0172717 0.321708 1.74205)
(0.538389 -0.0621407 1.31695)
(0.334654 0.0283385 1.23884)
(0.123636 0.113064 1.99669)
(0.0226442 -0.204383 3.17447)
(0.0369357 -0.130571 0.587374)
(0.0445463 -0.274047 1.33212)
(0.169932 -0.143043 1.6508)
(-0.0170977 0.138016 1.52393)
(0.119874 0.297122 2.32042)
(0.121765 -0.0606958 3.09091)
(-0.101545 -0.242331 2.68249)
(-0.0972186 0.0224656 2.29007)
(-0.142074 0.167372 2.69056)
(0.0810404 0.216748 2.82582)
(0.0711982 -0.0212112 3.32858)
(-0.0789759 0.0544612 2.80976)
(-0.0343849 0.0626273 3.13375)
(-0.00845597 0.0312278 3.06221)
(-0.0629032 -0.0116951 2.66921)
(-0.19929 0.191265 1.86478)
(-0.120875 0.0563548 1.40231)
(-0.0280152 -0.136259 1.63616)
(-0.184859 -0.140588 2.96797)
(0.0540015 0.232049 1.71326)
(0.532969 -0.173437 1.41581)
(0.349228 -0.0430104 1.30003)
(0.130638 0.0637855 1.94843)
(0.0298874 -0.208527 3.2403)
(-0.0445757 -0.417421 0.837562)
(0.122196 -0.682947 1.33072)
(0.527885 -0.433885 1.61908)
(0.171857 -0.113025 1.56679)
(0.0892369 0.241235 2.27134)
(0.107606 -0.0496795 3.13855)
(-0.12296 -0.597865 2.52234)
(0.0681295 -0.108683 2.21519)
(-0.163665 0.0972228 2.67426)
(0.0565352 0.217508 2.80775)
(0.0704404 -0.0243029 3.40297)
(-0.0482694 0.0127861 2.81024)
(-0.0369845 0.024338 3.17277)
(-0.036949 0.0304353 3.13118)
(-0.0715584 -0.023593 2.65419)
(-0.254715 0.229409 1.8536)
(-0.129207 0.0328271 1.44588)
(-0.0947557 -0.11835 1.86735)
(-0.225162 -0.167421 2.99267)
(0.00596788 0.250499 1.86856)
(0.464742 -0.158392 1.48915)
(0.32514 -0.0691191 1.396)
(0.156006 0.0503171 1.93354)
(0.0283521 -0.212591 3.29079)
(-0.055924 -0.36139 1.2105)
(0.172478 -0.623362 1.31595)
(0.647039 -0.484994 1.68977)
(0.276992 -0.22772 1.68543)
(0.110106 0.173164 2.28595)
(0.0956078 -0.0482202 3.17901)
(-0.000608678 -0.503754 1.78663)
(0.412828 -0.236215 2.13392)
(-0.1101 0.0576542 2.65392)
(0.065278 0.196688 2.79529)
(0.0684517 -0.0256328 3.46019)
(0.100979 -0.0404692 2.73447)
(-0.00785099 -0.00552961 3.18904)
(-0.0524604 0.0301676 3.17273)
(-0.149302 -0.0385337 2.69726)
(-0.322308 0.293717 1.84084)
(-0.160827 0.0618742 1.48766)
(-0.136487 -0.0724106 2.06266)
(-0.227373 -0.174229 2.9987)
(-0.0926569 0.318573 1.92245)
(0.313132 -0.0153164 1.53749)
(0.275522 -0.0391356 1.48154)
(0.169621 0.0666004 1.93098)
(0.0217261 -0.213742 3.33619)
(-0.0291558 -0.00562464 1.40799)
(0.126857 -0.159946 1.42493)
(0.61569 -0.434285 1.75618)
(0.248387 -0.207929 1.79616)
(0.115324 0.138867 2.34045)
(0.0861557 -0.0525961 3.22646)
(0.0929446 -0.106819 1.2718)
(0.536644 -0.303225 2.11917)
(-0.0227379 0.0111231 2.71131)
(0.0911158 0.160689 2.8106)
(0.0690651 -0.0362002 3.5101)
(0.236547 -0.0951142 2.6778)
(0.0358571 -0.0103053 3.22104)
(-0.0451776 0.0319729 3.22468)
(-0.230318 -0.0472089 2.71788)
(-0.396671 0.361691 1.82304)
(-0.23302 0.119926 1.47647)
(-0.160928 -0.00807915 2.1217)
(-0.219113 -0.174844 2.96971)
(-0.182301 0.361005 1.85258)
(0.161258 0.0965487 1.55978)
(0.231149 0.029786 1.53311)
(0.168643 0.133081 1.91427)
(0.0156314 -0.214959 3.37287)
(-0.00277767 0.344421 1.64023)
(0.0239908 0.218915 1.60516)
(0.492425 -0.309638 1.88496)
(0.0836999 -0.0754403 1.92656)
(0.109222 0.144269 2.38233)
(0.0766812 -0.0602489 3.27166)
(0.188807 0.123263 1.01134)
(0.545508 -0.289937 2.09089)
(0.0552199 -0.0162082 2.7963)
(0.119718 0.120535 2.85903)
(0.076445 -0.0548082 3.55475)
(0.599808 -0.173813 2.59782)
(0.0978752 -0.0083962 3.28681)
(-0.0284225 0.0308835 3.29539)
(-0.294463 -0.043171 2.68401)
(-0.474625 0.425403 1.8161)
(-0.297577 0.153969 1.40742)
(-0.213072 0.0783257 2.03107)
(-0.199868 -0.169956 2.90999)
(-0.23999 0.385296 1.76479)
(0.0353185 0.0687109 1.5628)
(0.206871 0.0859875 1.54692)
(0.144655 0.250791 1.8809)
(0.00688305 -0.203203 3.40071)
(0.0145239 0.528228 1.87029)
(0.0195014 0.35661 1.72138)
(0.349786 -0.143536 1.98917)
(-0.0979453 0.077757 2.03686)
(0.124732 0.173358 2.39495)
(0.0681732 -0.0716744 3.3162)
(0.328745 0.305478 0.866037)
(0.51369 -0.183486 2.04817)
(0.0537625 -0.0078044 2.91195)
(0.131276 0.103704 2.92951)
(0.0843771 -0.0704023 3.5971)
(0.653818 -0.0427629 2.46676)
(0.118462 0.00655898 3.41019)
(-0.0169131 0.0327433 3.38832)
(-0.336716 -0.0375824 2.57946)
(-0.556461 0.483961 1.81883)
(-0.302991 0.0926909 1.31229)
(-0.234644 0.219079 1.82162)
(-0.19588 -0.190749 2.81795)
(-0.285527 0.420534 1.73316)
(-0.0904165 -0.121944 1.48373)
(0.19813 0.092102 1.53393)
(0.114925 0.326316 1.87648)
(-0.00777059 -0.16764 3.42209)
(0.0282074 0.593649 2.04211)
(0.114869 0.361703 1.79673)
(0.135517 0.0880966 2.04488)
(-0.190722 0.207173 2.10769)
(0.130561 0.250858 2.39239)
(0.0624072 -0.0776846 3.37287)
(0.483562 0.442556 0.676166)
(0.414369 -0.041547 2.1081)
(-0.0513249 0.0193938 3.06593)
(0.100052 0.128061 2.98069)
(0.0897862 -0.0755591 3.63624)
(0.595087 0.104432 2.48627)
(0.0911427 0.0308474 3.54108)
(-0.0215873 0.0406566 3.48949)
(-0.305076 -0.0322234 2.54996)
(-0.643802 0.517217 1.85829)
(-0.308331 -0.0698297 1.2496)
(-0.104917 0.206929 1.5974)
(-0.035697 -0.176796 2.69266)
(-0.309237 0.440226 1.75887)
(-0.148452 -0.326999 1.29946)
(0.18926 0.0373142 1.46338)
(0.084458 0.346802 1.88871)
(-0.0161993 -0.113811 3.44824)
(0.050478 0.573505 2.09026)
(0.240567 0.288861 1.83114)
(-0.0181884 0.230569 1.99697)
(-0.182416 0.34334 2.09613)
(0.0697265 0.325619 2.36949)
(0.0606266 -0.0575168 3.45125)
(0.596531 0.517344 0.42517)
(0.12989 0.0813435 2.3422)
(-0.199272 0.0757585 3.20514)