/*--------------------------------*- C++ -*----------------------------------*\
| =========                 |                                                 |
| \\      /  F ield         | OpenFOAM: The Open Source CFD Toolbox           |
|  \\    /   O peration     | Version:  5.x                                   |
|   \\  /    A nd           | Web:      www.OpenFOAM.org                      |
|    \\/     M anipulation  |                                                 |
\*---------------------------------------------------------------------------*/
FoamFile
{
    version     2.0;
    format      ascii;
    class       volScalarField;
    location    "1";
    object      Ksl;
}
// * * * * * * * * * * * * * * * * * * * * * * * * * * * * * * * * * * * * * //

dimensions      [1 -3 -1 0 0 0 0];

internalField   nonuniform List<scalar> 
10571
(
8236.02
8458.02
9660.15
6087.49
9095.61
4949.67
321.448
82.2335
550.687
5496
869.279
4719.81
124.409
49.2564
237.952
1672.76
5393.34
898.809
3146.78
5520.14
8812.1
4562.53
305.294
3626.05
16.9803
10609.7
63.1467
336.981
1863.86
9423.65
531.158
497.669
181.446
419.445
10380.2
3046.7
151.395
42.3437
131.121
470.458
7893.53
700.216
1000.78
166.928
560.234
242.508
37.8249
8659.1
0
575.694
570.058
56.36
101.761
1175.52
502.329
1405.24
3209.88
1518.77
9557.23
1047.13
329.857
406.601
1401.5
968.79
4358.62
1512.35
947.319
109.918
575.938
5461.64
1462.39
10833.5
0
304.521
968.506
0
9.21652
55.1305
582.487
306.843
916.089
1077.29
30.4759
3718.38
865.887
938.952
552.332
1921.13
692.551
2563.37
943.195
722.896
2154.16
9288.83
7011.15
5595.69
0
0
2926.98
0
1.14779
0
348.739
12.0337
521.43
317.816
186.488
66.058
1057.52
314.19
258.917
1640.57
509.306
736.302
1303.83
1036.63
1678.63
1609.69
8078.22
8278.74
1905.28
0
735.942
178.569
68.5803
0
307.395
23.7269
351.26
809.337
10392.7
685.83
7.74163
170.957
197.358
194.996
1638.4
10142.5
240.679
91.672
764.873
57.9034
2005.06
520.522
6107.38
13103.1
7025.38
0
128.245
3855.07
1488.31
0
17.8197
131.875
393.247
462.333
2366.03
1089.61
9.62082
13.8959
49.325
148.902
498.939
1572.21
99.0449
19.4069
256.929
368.007
2511.33
1177.99
334.54
1671.44
13331.7
104.421
0
155.828
1364.31
160.679
0
16.737
1087.38
680.806
54.9499
9.88762
1238.09
26.7631
4.96188
45.2478
440.466
679.944
35.7652
85.32
11.0679
53.0174
85.4273
5667.03
75.6203
250.043
890.301
11752.5
0
79.5026
1002.46
56.9235
23.2564
4.4953
230.44
416.231
42.7644
45.5895
4.45839
1696.54
89.7678
9.14424
367.905
327.728
48.5443
82.3218
292.947
17.4894
167.389
190.033
5008.05
312.067
477.498
11857.1
0
208.338
110.345
14.4484
31.8798
1106.97
250.662
34.9318
9.10374
11.7685
155.17
301.692
284.446
475.566
46.2736
63.9654
88.3812
152.593
416.128
241.144
1059.06
252.199
472.289
5468.71
30.2143
61.7175
11.9589
11.8179
10.2794
122.191
40.2767
5.47161
9.72477
25.5839
19.324
92.4253
178.834
79.2993
5.47921
24.01
64.258
135.798
50.1713
9.27206
9.82999
140.371
76.5672
11.8859
-6.18389e-16
22.9707
5.39703
4.1842
-5.28402e-15
0
6.87485
3.00777
7.31612
16.0363
0
13.3526
17.4552
8.04904
3.60298
11.9359
21.3583
16.067
10.7831
5.90528
9.66767
11.4609
27.1566
7.0372
21.3259
10.7834
5.01965
6.96599
15.1069
15.9101
2.08385
5.92583
4.56143
37.7894
23.4045
12.4149
3.51886
1.16894
2.00615
0.514801
10.6083
4.97418
6.14035
10.2263
12.3294
17.8701
9.87378
7.64896
0
2.80696
0
5.11001
13.0058
11.0207
3.31093
2.3701
7.12495
1.47375
0
0.211429
2.62627
4.05568
3.42011
16.6669
9.13324
5.6647
2.14233
4.84598
21.5333
0
7.97101
16.156
18.6314
0
5.34869
0
11.6381
4.99758
2.52254
4.21407
7.06449
14.6243
2.8811
3.57649
1.82379
2.02434
5.27881
4.88521
5.73026
6.63391
3.74112
6.93606
0
9.48107
0.281995
8.6984
0
0
0
5.18997
0.248421
3.41919
2.02864
1.86887
3.52626
8.02035
13.0461
14.2088
1.95768
3.19169
3.97815
0
2.10055
4.62859
3.055
6.07261
0
6.03953
14.2633
0
18.0904
0
0
5.10444
0
0
2.04012
3.45795
2.40062
29.8719
0
6.49297
2.69178
2.08387
4.30007
5.11839
5.86917
2.03421
1.67854
0.24128
21.1969
6.86864
1.6074
9.10434
0
8.8264
0
5.09561
5.44639
0
1.8389
0.623464
3.21078
14.3826
0
0
1.67602
3.66143
4.59629
15.5261
5.96481
4.21299
3.78298
4.94583
10.4592
0.21281
6.74978
0.321771
17.6058
0
-1.48412e-16
0
0
0
1.51998
3.30657
4.62333
4.68048
-6.58226e-16
0
2.12119
0.593468
1.35561
4.54961
5.58065
2.01913
2.05019
0.243631
14.2347
7.32224
0
0
17.1412
0
0
0
1.15491
1.26873
1.7408
1.84039
6.19674
13.0013
0.722524
0
0.654464
0.640689
1.99022
0
0
2.73106
2.23886
5.14869
20.355
6.81334
4.89398
3.17027
4.34347
0
0
0
1.90501
0
0.647862
2.54375
2.72684
0
0
0
2.60708
0
2.03201
0
0
0.681809
1.90395
5.27811
6.89566
0
9.82031
9.25151
0
0
0
5.54254
0
0
1.70831
2.86124
6.17057
7.2884
0
0
1.9049
0.595047
2.42154
4.23374
0
2.86595
3.61433
0
0.444703
13.4977
4.84459
0
0
0
0
0
0
0
1.84669
1.27057
0
10.1819
0
0
0
1.25145
1.39761
15.787
0
3.21659
0.618645
0.215109
0
-1.7367e-16
0
0
0
0
0
0
0
0
0
3.04889
2.22249
6.27253
0
0
0.578225
1.06114
0.834525
4.41145
0
2.08628
2.50704
5.0079
0
0
4.65632
20.639
0
0
5.38385
0
0
0
0
1.26795
2.7098
5.89987
0
0
0.600966
0.220335
1.313
5.20949
0
0.6773
1.03739
0
10.5851
0
9.54545
3.26142
0
0
0
0
0
5.1679
0
0.428503
2.86491
0
0
0
0.608999
1.18478
1.31079
0
0
0.428435
1.27645
0.168781
17.4479
0
4.41645
9.78072
0
0
0
0
0
1.97902
1.76608
1.34971
3.56237
17.842
0
0
0.613203
0.591335
2.60751
5.03689
-1.64705e-16
0.0220191
1.27637
0
0
11.314
0
0
18.5281
0
0
0
0
0
0
0.59626
2.56367
0.255031
0
0
0
1.19481
1.31637
0
0.9916
0
0.691017
0
0
0
8.89065
12.0239
0
9.53403
0
1.27203
0
0
0.602847
0
0.658578
6.2922
0
0
0.640062
0
1.37872
0
0
1.31084
0.842141
0
14.8905
0
0
0
0
0
0
0
0
0
2.98312
0
1.32744
0
0
0
0
0
2.07208
1.07767
4.7632
1.30705
0
0
0
0
0
10.2014
0
0
0
0
0
0
0.612775
0
1.36297
0
0
0
0
0.858372
0.712726
0
1.02865
1.30433
0.0234955
0
10.704
0
4.75913
0
0
0
0
0
0
0
0
0
1.22105
0
0
0
0
0.430859
2.11761
0
0
0
0.678308
0
0
1.95633
4.72433
11.2924
0
0
0
0
0
0
0.595533
0
0.856304
0
0
0
0.619533
0.675799
0.699963
13.7691
0
0.629249
0.697751
8.7548
0
0
0
0
0
0
0
0
0
0
0.607649
0
0.713335
0
0
0
0
0
0.599449
0
0
0
0.687089
0
0
0
0
0
0
0
0
0
0
0
0
0.528317
0
0
0
0
0
0
2.01896
1.07494
0
0.622256
0.677344
0
0
3.85295
4.77956
0
0
0
0
0
0
0
0
-1.19089e-16
0
0
0
0
0
0.66086
0.024649
0
0
0.611874
0.661231
0
23.4078
0
0
0
0
0
0
0
0
0
0
0.686276
0
0
0
4.81296
0.601388
0
0.714782
0
0
0.622132
0.258716
0
0
5.86787
1.02287
0
0
0
0
0
0
0
0
0
0
0
0
0
0
0
1.24131
0
0
0
0
0
0
0
0
0
0
0
0
0
0
0
0
0
0
0
0
3.89821
0.594255
0
1.4055
2.46741
0
0.0233113
0
0
0
0
0
11.9133
0
0
0
0
0
0
0
0
0
0
0
0
0.571228
0.0420475
0
0
0
0.637606
0.618668
0
0
0
3.04911
0
0
0
0
0
0
0
0
0
0
0
0
0
0.559755
0
0
0
0
0
1.34524
0
0
0
4.74859
0
0
0
0
0
0
0
0
0
0
0
0
0
0
0
0
0
0
0
0
0
0
0
0
0
0
0
0
0
0
0
0
0
0
0
0
0
1.13118
0
0
0
0
0.591925
0.668679
0
12.4844
5.78061
0
0
0
0
0
0
0
0
0
0
0
0
0
0
0.0204374
0
0
0
0
0
0
0
0
0
0
0
0
0
0
0
0
0
0
0
0
0
0
0
0
0
0
0
0
0
0.682376
0
0
0
0
0
0
0
0
0
0
0
0
0
0
0
0
0
0
0
0
0
0
0
0
0
0
0
0
0
0
0
0
0
0
0
0
0
0
0
0
0
0
0
0
0
0
0
0
0
0
0
0
0
0
0
0
0
0
0
0
0
0
0
0
0
0
0
0
0
0
1.06804
0
0
0
0
0
0
0
0
0
0
0
0
0
0
0
0
0
0
0
0
0
0
-1.07489e-16
0
0
0
0
0
0
0
0
0
0
0
0
0
0
0
0
0
0
0
0
0
0
0
0
0
0
0
0
0
0
0
0
0
0
0
0
0
0
0
0
0
0
0
0
0.0174635
0
0
0
0
0.544462
0
0
0
0
0
0
0
0
0
0
0
0
0
0
0
0
0
0
0
0
0
0
0.540983
0.540649
0
0
0
0
0
0
0
0
0
0
0
0
0
0
0
0
-1.56335e-16
0
0
0
0
0
0
0
0
0
0
0
0
0
0
0
0
0
0
0
0
0
0
0
0
0
0
0
0
2.89887
0
0
0
0
0
0
0
0
0
0
0
0
0
0
0
0
0
0
0
0
0
0
0
0
0.547735
0
0
0
0
0
0
0
0
0
0
0
0
0
0
0
0
0
0
0
0
0
0
0
0
0
0
0
0
0
0
0
0
0
0
0
0
0
0
0
0
0
0
0
0
0
0
0
0
0
0
0
0
0
0
0
0
0
0
0
0
0
0
0
0
0
0
0
0
0
0
0
0
0
0
0
0
0
0
0
0
0
0
0
0
0
0
0
0
0
0
0
0
0
0
0
0
0
0
0
0
0
0
0
0
0
0
0
0
0
0
0
0
0
0
0
0
0
0
0
0
0
0
0
0
0
0
0
0
0
0
0
0
0
0
0
0
0
0
0
0
0
0
0
0
0
0
0
0
0
0
0
0
0
0
0
0
0
0
0
0
0
0
0
0
0
0
0
0
0
0
0
0
0
0
0
0
0
0
0
0
0
0
0
0
0
0
0
0
0
0
0
0
0
0
0
0
0
0
0
0
0
0
0
0
0
0
0
0
0
0
0
0
0
0
0
0
0
0
0
0
0
0
0
0
0
0
0
0
0
0
0
0
0
0
0
0
0
0
0
0
0
0
0
0
0
0
0
0
0
0
0
0
0
0
0
0
0
0
0
0
0
0
0
0
0
0
0
0
0
0
0
0
0
0
0
0
0
0
0
0
0
0
0
0
0
0
0
0
0
0
0
0
0
0
0
0
0
0
0
0
0
0
0
0
0
0
0
0
0
0
0
0
0
0
0
0
0
0
0
0
0
0
0
0
0
0
0
0
0
0
0
0
0
0
0
0
0
0
0
0
0
0
0
0
0
0
0
0
0
0
0
0
0
0
0
0
0
0
0
0
0
0
0
0
0
0
0
0
0
0
0
0
0
0
0
0
0
0
0
0
0
0
0
0
0
0
0
0
0
0
0
0
0
0
0
0
0
0
0
0
0
0
0
0
0
0
0
0
0
0
0
0
0
0
0
0
0
0
0
0
0
0
0
0
0
0
0
0
0
0
0
0
0
0
0
0
0
0
0
0
0
0
0
0
0
0
0
0
0
0
0
0
0
0
0
0
0
0
0
0
0
0
0
0
0
0
0
0
0
0
0
0
0
0
0
0
0
0
0
0
0
0
0
0
0
0
0
0
0
0
0
0
0
0
0
3224.91
4106.18
3416.58
4487.45
2934.21
3366.06
4579.22
8604.85
1046.23
3225.9
3972.36
2072.95
4860.42
5291.4
6769.36
3813.22
4281.59
5681.63
5342.64
5972.86
6830.13
6426.42
8105.58
5924.13
6750.75
6239.84
500.577
1423.01
677.793
1690.78
4355.94
4502.13
4674.76
3205.39
2265.99
2937.25
2806.21
2329.43
3991.26
2336.94
1837.64
5815.03
6103.41
1566.27
1593.69
7351.23
6664.46
5277.14
548.34
944.614
3344.22
6680.69
5434.72
6772.11
6763.99
2648.11
2769.72
3028.49
3438.21
2811.7
2643.09
3516.71
3937.26
1245.98
1627.17
3342.53
4611.6
6131.21
3756.96
7031.9
4514.49
3896.67
6294.37
6161.95
6211.1
3419.12
4283.13
1236.02
1291.93
5066.74
5531.08
1243.03
2014.38
6101.5
8385.16
7412.09
9680.48
8823.28
9695.39
4885.15
2927.9
7656.3
2044.47
3167.32
7098.8
6101.14
8288.92
12213.3
7147.15
10002.2
10054.8
615.69
4474.38
987.973
9639.42
9454.36
826.558
1041.67
655.542
11046.6
1435.5
2462.28
8218.47
9657.49
7554.31
9072.44
12752.8
10739.9
10494.5
10020.2
10775.2
4668.78
8348.31
3426.17
7137.4
493.969
1270.8
9208.06
1843.16
1251.29
2000.22
1146.16
6021.31
5547.98
6801.77
1714.23
4758.34
673.798
443.78
980.436
3576.47
7422.42
5586.92
10142.7
10455.2
3825.65
7799.09
868.184
1601.65
2539.28
7238.53
12913.8
3897.21
10611.8
7242.11
9375.31
2009.24
12461.2
3350.11
6082.75
10244
10947.6
743.084
937.847
5716.39
5971.08
3269.2
12033
5417.53
962.051
1647.05
907.659
396.476
610.066
497.812
1014
325.795
692.43
146.838
6583.49
3173.86
552.466
82.5577
225.927
231.389
33.5037
173.138
226.804
98.86
0.520398
0
21.985
0
154.696
140.623
12334.2
12794.4
2705.53
10282.6
8098.63
1361.17
446.878
3174.5
807.153
5625.19
481.667
1085.71
597.54
6691.42
2660.35
3566.26
690.722
1430.09
10569.2
9578.42
11671.6
10880.8
10939.9
11084.7
414.108
591.261
194.175
318.297
632.771
11734.1
11687.2
11254.2
11539.4
10342.2
749.754
327.156
460.737
695.143
238.228
13107.8
11958.2
534.943
10915.5
1075.17
7025.14
1166.33
11053.3
4582.77
287.324
2508.72
1505.03
16.4755
133.373
2257.56
1308.96
443.462
916.462
5764.36
251.038
167.257
925.528
185.072
346.59
1786.46
0
205.615
3385.17
126.305
10265.8
462.893
1096.46
0
617.309
163.979
0
767.773
72.9105
0
0
0
0
0
72.4367
89.184
5785.99
417.907
1896.33
1975.05
908.012
222.192
2790.71
304.133
2148.17
3423.29
3129.58
7357.49
54.0697
655.55
555.331
4865.38
6082.13
7187.11
8728.33
10129.1
9893.65
2377.68
7129.74
4354.52
1056.05
605.65
4202.36
4279.91
4330.58
10130
6546.57
1856.44
3834.57
668.955
515.699
301.887
3444.82
2568.7
1041.49
4672.57
513.817
2619.53
11103
8604.57
1000.27
1462.62
9168.41
8403.71
149.694
3151.54
2361.78
347.574
267.112
3261.08
4191.9
394.861
9548.28
10453.8
1585.77
2284.57
8392.79
5515.07
5036.22
5941.65
1925.09
3753.19
5899.5
4914.44
7696.98
4437.71
5244.1
0
1017.74
5.44809
0
2301
10.918
0
8.59437
0
1.3615
0
56.1552
31.3714
352.366
2.97465
2264.71
45.9762
764.272
91.0016
500.458
0
64.3533
151.598
17.2784
2143.79
19.8325
106.005
4.58194
1234.79
2824.35
1119.29
462.908
589.375
357.011
51.0175
13.8557
47.4358
1348.08
3333.33
377.416
800.688
138.709
385.983
65.7305
1.51255
51.1681
111.044
2668.59
1397.44
1103.66
235.023
599.8
817.626
2022.87
1148.42
2527.72
2615.67
618.544
355.095
1690.14
654.967
1156.15
2491.48
6392.29
970.937
2895.98
2595.51
8553.5
3156.56
10598.8
6668.98
8529.59
8162.09
5951.69
8104.21
8844.87
4406.7
8934.28
8418.79
5454.5
9502.82
6080.57
3049.21
1628.8
0
4804.86
370.123
726.008
7299.82
2814.81
0
0
210.417
88.0303
0
1.28626
1.78386
0
0
26.0286
0
0
0
0.95364
0
0
185.107
0
735.13
22.7608
217.432
3.40094
1145.66
1315.8
1091.72
0
13.9604
14.6903
0
0
0
973.43
141.622
550.308
1461.48
663.301
153.162
500.971
288.714
223.968
753.242
179.245
289.031
2264.46
563.545
946.543
3606.26
3166.1
45.2082
1719.71
386.475
357.972
81.0351
1237.98
233.043
2527.32
2718
10043.3
241.823
1800.63
2201.53
8618.46
3367.4
1810.44
1073.5
5072.4
7657.36
730.419
2189.76
7054.51
8271.97
9395.21
7656.72
10365.9
9339.69
10155.8
945.924
546.21
4438.43
7612.26
6944.63
8023.73
6678.62
9413.57
841.216
112.015
5877.59
5676.27
1657.15
153.499
1060.68
0
0
0
0
0
0
0
0
0
677.733
420.543
2328.04
1717.83
2320.62
2665.15
1108.51
884.821
444.027
0
0
0
0
155.473
6.00782
3777.46
1011.46
6976.13
601.872
5721.69
446.435
3283.6
11693.9
9981.7
11250.5
10307.2
9882.95
11171.9
10266.3
268.079
975.92
1557.89
298.899
901.487
7051.49
1553.23
3429.44
231.91
3534.04
579.629
7666.97
11515.9
9474.03
10522.9
10667.3
10485.4
10823.3
9937.38
2163.74
1063.83
127.977
812.02
170.048
151.326
101.127
539.372
141.527
516.358
2419.9
5694.29
157.859
481.459
3808.28
6098.42
2008.5
692.189
535.433
740.322
7314.78
433.593
381.292
5776.88
10749.7
9093.81
3022.18
12272.4
10549.3
17457.5
562.466
486.934
9070.64
7075.62
10890.2
4272.8
5468.12
6821.82
8629.31
1324.96
958.766
2115.9
377.049
722.268
275.219
0
0
0
0
0
0
0.0582914
0
0
630.581
507.674
553.518
315.439
193.98
254.878
180.61
245.311
251.814
76.5885
0.68237
857.692
64574.6
4.29834
35.2903
0
350.92
12.295
0
205.544
12.6761
411.623
898.642
354.306
260.65
79.9498
409.146
91.5362
8393.32
1457.79
8018.57
8.19033
43.1499
21.2341
45.5724
210.02
585.787
802.647
149.23
399.543
469.579
275.632
794.49
1761.66
268.508
789.895
741.47
9699.08
2883.3
8771.94
52.2689
82.765
199.168
220.019
479.155
349.211
56.2961
414.478
120.432
79.2001
41.2342
390.099
99.6465
861.86
6098.98
9887.99
217.598
1690.07
5619.26
13847.2
805.092
2813.94
1777.03
8926.03
198.611
89.2814
406.614
405.766
236.243
4441.55
264.745
232.885
3536.67
11647.2
15408.8
1320.36
9662.56
16209.8
15106.7
493.191
804.219
519.186
3408.18
894.115
107.213
2716.34
319.308
124.527
89.4583
28.7024
33.5541
13.5542
113.358
50.7026
0
0
-1.22639e-17
0
0
22.3563
19.8879
6.40352
0
18.2057
319.105
66.7097
31.7183
21.2083
155.281
37.2745
84.585
14.6924
34.2813
9.13962
4.72482
0
0
0
8.34676
436.68
34.7276
0
661.408
50.0455
19.4903
135.191
28.7467
46.7751
9.67133
54.8241
0.888566
0
13.8357
10.1197
4.84694
0
2.88287
3.99858
228.155
391.067
1590.74
458.862
290.461
54.4078
1507.32
469.412
167.822
48.6855
1138.78
536.008
16.7677
189.027
23.8856
62.6916
18.6612
104.723
19.9658
439.088
461.852
22.6221
376.063
92.7894
117.094
4.84977
415.121
109.136
1851
3167.3
17563.9
16.8517
1987.82
2165.12
15923.9
1784.16
7209.57
388.589
20.5722
9.34469
17.1398
405.348
338.92
178.614
2616.55
297.001
191.658
1054.87
6148.47
7874.06
692.363
3635.46
7127.98
13221.5
1465.84
627.862
40.5959
979.026
85.697
0
201.863
24.2388
19.6779
21.6099
0
9.07843
3.10194
0
70.865
0
61.9312
181.004
-1.90051e-15
33.9188
138.313
697.29
48.7998
217.934
-5.86317e-15
38.3145
5.21343
8.14937
0
24.1789
17.4251
24.4381
32.8769
34.034
1101.55
183.194
248.919
717.799
415.256
7.9903
24.5548
31.225
9.87554
10.8292
12.6915
21.4598
0
6.39344
0
0
0
6.13673
0
511.382
231.747
447
262.364
220.895
96.8177
491.33
451.581
56.0387
131.132
457.574
346.894
4.94816
58.9032
11.8687
62.8057
0
35.9497
0
280.795
141.584
35.4002
193.936
105.768
185.674
62.1231
157.837
99.8167
2344.82
3130.69
12303.2
1056.31
868.129
3616.69
9563.66
3126.13
456.971
401.891
181.47
885.516
242.732
181.427
605.332
3486.99
2746.02
382.952
4483.34
1451.76
9948.5
212.605
79.3505
11.9463
39.9876
9.75323
0
8.90434
0
4.39624
14.6973
0
0.501333
6.15301
18.7003
15.3055
132.39
377.158
607.519
306.31
632.531
282.795
166.787
778.68
397.779
10.6668
8.92166
8.71776
17.6256
12.0234
5.91742
21.7906
32.9998
14.1885
702.554
357.531
715.578
413.874
205.439
345.723
6.2319
0
-2.57557e-16
7.02871
39.9717
192.519
162.207
58.076
98.7757
56.8257
37.8903
219.797
28.7111
62.6617
53.259
66.3736
32.3494
60.9928
127.571
130.98
44.7781
87.0685
99.3908
137.286
301.984
535.568
3876.86
47.4449
82.9256
174.274
443.939
194.742
354.125
201.688
200.37
205.524
164.003
159.472
121.791
1340.13
795.672
247.977
183.837
164.4
277.067
17.0827
0
0
7.89704
9.29289
0
8.68071
9.74388
14.3972
0.142508
16.9935
10.2888
14.7159
15.27
-1.35391e-14
135.314
28.1944
29.9976
252.407
63.5681
0
5.99005
16.8486
17.7361
12.3919
0
3.57125
13.1438
18.7662
11.873
15.2491
32.0532
27.0021
119.712
126.57
43.9649
21.7837
0
22.9833
14.6725
18.5228
10.665
12.5485
32.9856
13.9011
11.4457
0
6.41998
5.62122
58.0419
28.7378
8.22936
0
8.82799
27.4947
22.1886
197.562
86.0036
224.413
93.195
232.393
82.6565
124.351
18.9208
10.7129
21.3894
8.08881
11.4448
21.4753
11.2786
16.4339
120.919
28.8103
65.3659
91.6064
48.3012
29.6034
17.1656
9.58498
13.1796
21.5356
18.2159
0
0
11.323
0
0
0
4.46836
0
12.0148
0.1769
22.7057
-2.27615e-15
16.8166
1.75761
7.31493
0
15.1444
43.8763
0
0.137513
8.63499
11.5891
10.5433
0
6.43485
-1.7702e-16
46.2091
13.4964
8.42686
6.57658
14.1663
17.6121
12.0799
39.7635
17.1496
2.08731
18.8572
20.2114
0.275015
0
0
41.1019
-5.31062e-16
15.4881
6.45125
0
14.1113
7.04568
19.517
10.4454
13.7274
25.5359
21.3522
14.37
0
0
11.7949
0
63.1725
10.1749
41.5123
1.19809
3.95723
24.2537
5.3122
8.66878
11.1562
-1.59926e-16
0
1.67216
9.11753
3.82257
5.5415
0
11.9774
29.2669
0
18.6957
16.0302
0
13.8451
9.24902
7.95942
12.543
17.4998
27.7009
0
12.3461
0
9.85076
0
0
-3.40417e-15
6.85168
7.66385
0
3.25763
1.22721
7.56148
15.0267
0
0
38.1341
5.69599
4.62519
0
7.24784
5.53492
17.4744
0
1.92647
-5.21798e-15
5.89455
0.652626
0
0
5.0286
14.5184
0
20.8922
11.4342
11.1705
19.9548
15.3436
15.7941
5.61008
35.6192
16.5069
27.3719
0
19.846
12.3283
0.660523
3.5768
5.14644
33.6297
14.687
7.57973
-5.8116e-15
26.9088
0
12.8027
6.49844
4.3453
5.17602
6.57046
4.25133
14.7957
0
8.15998
10.6517
0.192222
15.3578
15.0804
12.4242
0.219695
18.7856
0.758583
35.8956
3.93149
0
1.82592
0
18.6657
5.61376
0
9.44955
0
20.4972
0
0
0
0
0
0.153297
0
5.67342
3.08506
5.28051
14.2934
0
15.3844
0
0
13.9222
0
14.1253
0
-8.22886e-16
0
16.9094
0
0
0
0
21.4283
16.6455
5.79119
0
-5.24723e-15
2.43407
6.53355
16.3217
4.52565
18.8717
10.2296
8.83233
38.6035
-1.54537e-16
13.3745
34.5074
21.7242
20.1419
14.9488
11.1566
2.42734
20.0807
11.2279
7.23599
31.6844
17.8806
5.25141
15.2755
0
0
0
5.90152
9.85172
8.60918
0
6.07045
9.7827
5.19899
13.7279
3.65332
11.932
0
9.19759
1.37812
20.4238
0
5.17036
0
15.3171
18.2493
0
7.21617
0
10.4026
56.9451
8.38077
0
0
0
0
0
36.2369
5.75996
0
0
-1.74655e-15
4.94259
0
9.18258
0
5.10576
-6.15024e-15
28.9845
0
15.3326
0
0
9.4731
0
0
0
0
10.4425
11.7459
5.45154
6.22127
6.93564
0
5.86729
0
14.9849
14.4839
19.2438
-1.35798e-14
5.00557
5.72244
0
26.3183
5.44349
16.9029
7.34944
10.6549
-5.58713e-15
10.7293
14.4344
16.6617
9.81429
3.08674
0
22.0682
5.02869
0
21.0776
0
0
6.01767
0
5.53764
0
4.67194
13.4358
5.3198
7.84895
5.43549
8.94828
0
0
10.5074
0.282129
0
0
0
3.588
13.4362
0
5.01058
6.30947
5.08659
17.3907
7.28299
1.48945
-3.2083e-15
0
10.1498
0
0
0
8.65857
0
0
1.01007
0
13.6649
18.3736
0
7.35423
13.8628
-2.23761e-15
13.9571
0
4.74573
0
-1.58334e-16
0
9.11591
0
0
11.6921
0
13.1836
5.69825
11.5244
11.9514
21.7672
39.525
18.7935
12.8718
26.4423
5.34354
18.6645
19.4687
15.607
6.09764
-2.29625e-14
15.1333
0
33.0671
6.88301
7.18515
0
6.05359
7.64522
0
0
4.84087
46.6809
0
0
0
0.191335
17.1683
21.2104
9.3044
0
0
5.3348
0
0
14.5677
8.75087
2.03821
3.66908
0
0
12.2006
0
17.4181
0
12.5054
10.121
18.5658
7.76181
0.561089
3.47216
6.43933
0
9.20489
9.68117
0
0
5.88432
4.94758
0
5.89096
4.87711
0
-4.70946e-15
-5.73196e-15
0
0
13.938
0
0
13.8073
-2.44643e-15
0
0
0
2.21527
0.233568
5.19694
0
6.0253
18.0896
5.49876
0
9.94407
7.26155
28.4219
14.2289
0
18.6196
5.15672
0
20.0339
0
4.27576
0
29.7148
1.87815
30.9595
0
7.17043
20.0837
11.2917
0
0.447902
6.39911
9.87426
28.0243
0
0
0
0
10.1186
5.33258
-1.80178e-16
0
0
5.62478
4.80411
3.79759
0
-3.0445e-15
6.07864
5.73638
0
10.4161
0
0
0
0
6.76071
4.12874
0
4.29264
0
0
1.87974
0
5.16456
0
0
0
0
6.55173
0
0
0.171119
0
1.93545
0
5.03656
0
16.6148
0.488535
0
0
2.61755
5.03826
0.744109
0
0
0
0
14.2002
0.13751
11.9749
-3.83007e-15
-1.01624e-14
0
5.89292
27.8236
14.0194
0
0
5.43649
0
0
5.23032
0
24.3629
9.51701
8.90343
21.281
0
7.39639
0.81469
3.86384
-2.27382e-16
14.4067
23.4162
13.882
27.4705
0.201678
0
0
0.165438
9.84586
5.33547
5.63548
0
0
5.33304
0.825627
4.03746
7.89155
0
4.69374
3.37783
0.926576
9.59393
0
12.5529
11.2428
19.142
6.83029
10.4586
0
5.66519
18.2832
12.6129
5.76251
-1.56419e-14
9.17595
19.4311
-8.49925e-15
1.11815
0
0
0
0
0
8.75804
0
0
0
0
0
36.4625
0
0
8.20058
5.52311
5.41692
0
3.9224
0
0
0
5.97397
0
11.9826
29.8095
0
0
0
0
0.278393
0
5.34487
0
0
-1.69128e-15
6.48441
1.02802
7.3675
10.4708
14.2522
1.94819
7.20267
19.7459
0
7.23317
1.01508
5.61808
0
13.3208
1.5106
13.2054
9.80442
0
3.75797
0
3.79218
7.90705
6.70218
0
4.61386
0
16.0452
0
4.77266
0
0
31.3188
-3.86608e-16
0
0
0
0.814321
0
0
0
0
4.92517
0
17.7769
6.04017
0
0
0
5.97348
4.41775
0
0
5.04301
0
9.1235
17.7543
0
-5.84588e-15
0
12.944
10.7967
0
4.11065
5.28842
0
0
0
0
0
3.94233
16.1622
0
14.7519
11.0838
-3.23106e-16
0
15.2702
14.2995
2.11755
0
0
0
0
0
5.06199
28.4433
8.1355
9.33205
0
0
-2.2232e-16
0
0
0
0.5091
0
4.66338
48.1711
5.91777
4.68915
0
0
4.03479
0
5.56597
6.12554
16.9299
5.40537
4.67961
4.07413
0
4.87554
13.6342
8.0512
0
0
0
0
0
19.1287
6.84775
0
0
0
0
2.01431
0
10.4022
0
0
0
0
0
-4.37299e-15
18.1878
0
0
0.242436
0
30.2306
0.50363
8.96002
0
0
0
0
0
0
0
9.14745
0.317379
0
0
0
0
11.9726
0
0
0
24.8392
0
11.7542
0
0
0
0
0
0
0
4.56603
7.13284
0
14.1326
5.16343
0.479173
0
11.2754
-2.11588e-16
25.7043
21.187
4.24758
13.2337
5.96962
0
0
0
0
0
0
0
0
0
5.54686
-7.36734e-16
0.36107
0
0
0.201641
22.7729
-3.19685e-16
12.8264
12.4632
5.19332
0
6.78277
-3.01521e-15
18.5161
0.291679
-3.2859e-15
0
0
0
0
0
0
-1.06177e-14
6.06332
4.97626
0
0
4.80548
0
-5.99915e-15
0
4.74322
0.248712
0
0
0
0
0
0
0
0
8.82117
0.201161
0
0
2.55267
6.03209
0
0
4.01251
6.11113
13.5919
0
0
0
0
0
0
0
0
27.4433
7.0013
9.18733
13.6716
5.46363
0
19.9136
0
0
0.484318
5.59553
10.4944
0
0
0
0
0
10.6347
0
0
0
0
0
9.08996
4.17315
7.30812
0
7.26838
4.12929
0
4.24598
12.4011
0
0
0
13.8264
0
12.0964
2.16829
0
0.129181
3.53596
7.28251
0
0
21.7532
0
0
0
18.1043
0
0
0
0
0
0
0
0
0
0
0
8.90985
4.90302
0
0
0
0
0
0
4.93974
7.64959
3.77594
3.4794
14.8541
-7.06565e-15
0
42.9831
0
0
0
0
0
0
1.31353
26.6773
1.78685
5.11457
13.5445
6.31801
4.78904
0
-1.9459e-15
0
14.1515
5.68647
4.27805
15.3691
0
0
0
0
0
0
0
0
0
0
0
0.823533
6.00238
0.224569
9.2868
4.11435
7.93529
0
0
0
6.75493
18.2101
0
5.27842
0
0
0
4.93436
0
0
0
0
0
0
0
0
0
0
0
5.1458
0
0
5.29294
6.92577
0
0
0
0
0
0
0
0
0
0
0
0
6.31991
6.0081
0
0
6.34804
0
-2.32528e-14
0
6.54437
0
0
0
0
0
4.57908
0
5.8344
0
6.74791
5.64267
0
0
-3.94985e-15
0
15.3069
0
4.75359
25.0319
6.13063
0
0
0
0
0
0
5.99452
0
0
3.69538
0
11.8287
0.3385
8.0594
0
0
0
0
0
0
0
0
0
0
5.55952
17.1196
0
0
0
6.04942
0
11.5467
0
0.261567
0
0
0
0
-3.11932e-15
0
0
0
0
0
0
0
0
4.76634
4.49345
0
0
4.79126
4.18308
0
4.52621
0
0
0
7.29477
0
0
0
5.78096
3.41325
0
0
8.68974
0
0
4.43319
10.2623
7.86848
0
0
0
0.279191
0
0
7.06593
4.87038
1.67369
5.1332
0
10.0227
0
8.55437
0
0
0
0
5.70976
9.96691
0
0
0
0
-9.09992e-16
5.05058
1.82646
0
10.1551
0
-3.08709e-16
0
0
11.1156
5.06432
0
0
16.1008
-2.67578e-15
5.7294
0
9.42243
0
0
18.3632
0
0
0
0
0
0
0
0
0
0
0
0
9.9984
-1.2869e-15
4.9044
0.148185
0
0
0
0
1.62204
0
0
0
6.07164
0
0
0
0
20.8599
0.401986
0
0
-3.44192e-16
0
0
0
0
0
9.46205
0
0
0
19.8139
0
0
18.0986
12.2441
14.6672
-1.29777e-14
6.67496
4.56409
0
1.70751
0
3.2521
2.14897
5.6182
5.77007
3.19712
4.54373
0
8.24673
0
9.22716
4.45115
3.46539
3.62295
1.81981
0.534564
4.43692
0
0
4.47629
0
0
0
0
0
0
19.1802
0.511629
-4.53047e-15
0
4.67341
0
0
2.29903
0
0
0
0
0
0
0
0
0
0
4.82214
0
0
0
0
0
0
0
6.90383
0
0
0
4.52178
0
0
10.2636
3.99647
0
0
-1.79183e-16
0
0
0
0.680717
0.266894
4.63089
28.0622
0
0
0
0
7.09068
0
0
0
0
0
0
6.54026
0
0
7.66048
6.99191
0
0
4.57002
0
0
5.60651
5.20588
9.37001
0
0
0
0
0
0
0
0
2.97838
0
0
0
0
5.50636
0
0
0
0
0
0
0
0
0
0
0.200979
0
0
0
0
0
0
0
11.7185
5.1254
0
0
0
0
0
0
0
0
0
0
0
0
0
0
10.4307
0
0
5.08684
0
0
0
7.81524
5.8267
12.0353
11.9858
0
0
0
0
0
0
-5.09663e-16
6.09858
0
0
12.4564
2.85305
0
5.37905
0
0
0
-1.64824e-15
0
0
4.8527
0.578127
0
5.29477
0
2.70449
0
0
0
0
5.94303
15.0166
0
0
0.533016
0
0
0
0.746136
0
13.3697
0
0
0
0
0
0
6.19113
0
0
0
0
0
0
0
0
0
0
0
0
4.95403
0.307875
4.82581
0
0.179409
0
0
0
0
0
0
0
0
0
0
0
5.46638
0
0
0
4.90151
18.5976
-1.88135e-16
9.99359
0
0
0
0
0
0
0
12.4624
4.97465
0
5.78394
0
0
0
0
0
0
0
0
0
0
7.9701
0
0
4.38445
4.73797
8.64093
19.1691
0
0
0
0
0
0
0
5.69818
0
0
3.77748
0
10.4544
0
0
0
0
0
0
0
0
0
0
0
0
0
0
0
0
0
0
0
0
0
0
0
5.26649
0
0
0
0
0
0
0
0
0
0
0
0
0
0
0
5.11992
18.4728
6.46799
5.07834
18.6241
0
0
0
0
0
0
0
9.20682
0
6.43801
0
0
0
0
0
0
0
0
0
1.00689
0
0
0
0
0
0
0
0
0
0
0
0
0
0
0
0
0
0
0
0
0
0
0
0
0
0
0
0
0
0
0
0
0
0
0
0
0
0
0
-3.59732e-15
0
9.17558
0
0
0
0
0
0
10.2297
2.12551
3.53419
0
0
0
0
0
0
0
5.3048
0
0
0
5.42788
0
0
0
0
0
0
18.6484
0
0
0
0
0
10.155
0
0
4.61903
0.157084
0
0
4.45056
0.158368
0
7.24511
0
5.15342
10.0811
1.86731
22.5072
0
0
0
0
3.7807
-4.11869e-15
0
0
17.4959
9.30252
0
0
0
0
0
0
0
0
0
0
0
0
0
0
0
0
0
0
11.4211
0
0
0
0
0
0
0
0
0
0
0
0
0
0
0
0
0
0
0
4.97147
0
0
0
0
0
0
10.6981
0
0
0
0
0
0
0
11.8326
5.387
0
1.34955
0
0
0
0
0
0
0
0
0
0
0
9.09328
0
0
0
18.5187
0
0
0
0
0
5.79932
0
0
0
0
0
0
0
0
0
0
0
0
0
0
0
0
0
0
0
0
0
0
0
0
0
4.25622
0
0
7.99856
0
0
0
0
0
0
0
0
0
0
0
0
0
0
1.67278
0
0
3.02951
0
0
0
3.92977
0
0
0
0
0
0
6.76105
0
5.21012
7.26867
0
0
0
0
0
0
0
0
0
0
13.7886
14.1415
0.353329
-1.74702e-15
0
5.15583
0
0
0
0
0
0
0
0
0
5.97071
0
0
0
0
0
0
0
0
0
0
0
0
0
0
0
0
0
0
0
0
0
0
0
0
0
0
0
0
0
0
0
0
0
0
0
0
0
0
0
0
0
0
0
0
1.86545
0
0
5.62396
0
0
0
0
0
0
12.9074
0
1.09799
0
2.28012
0
9.79907
0
0
0
0
0
0
0
0
0
0
0
0
5.05081
0.346544
0
0
0
4.7082
0
2.01498
0
0
0
0
0
0
0
0
0
0
0
0
0
0
0
0
0
0
0
0
0
0
0
0
0
0
0
0
0
0
0
0
0
0
0
0
0
0
0
0
0
0
0
1.4033
0
0
2.76222
0
20.4952
0
0
0
0.300548
5.19195
0
0
0
0
3.68076
0
0
0.539276
0
0
0
0
0
0
0
0
4.43745
0
0
9.14771
0
0
0
0
11.5504
0
0
4.68987
16.4675
0
0
0
0
0.566623
4.75314
6.16895
0
0
0
0
0
0
0
0
0
0
0
0
0
0
0
0
0
8.50671
0
0
0.588768
0
0
0
0
0
0
0
0
0
0
0
0
0
0
5.30478
0
4.41454
0
0
0
0
0
0
0
20.48
0
0
0
0
0
0
6.63108
5.24562
0
2.54776
0
0
0
0
0
0
0
0
0
3.41617
5.16502
0
0
1.80382
5.0463
0
0
0
0
0
0
0
0
0
0
0
3.70013
6.26282
0
0
0
9.83716
0
0
0
0
0
0
0
0
0
0
0
0
0
0
0
0
4.18838
0
7.82118
0
0
0
0
0
0
0
0
0
0
0
0
0
0
0
0
0
0
0
0
0
0
0
0
0
0
0
0
0
4.42013
4.5426
2.43856
0
0
0
1.60817
0
7.38199
0
0
0
0
0
3.36172
0
0
0
5.03556
0
0
0
0
0
0
0
0
0
6.13016
0
0
0
0
0
0
0
0
0
0
0
0
0
0
0
0
0
0
0
0
0
0
0
0
0
0
0
0
0
0
0
0
0
0
0
0
0
0
0
0
0
0
0
4.18899
0
0
0
0
0
0
0
0
0
0
0
6.68858
0
0
1.92375
0
0
4.86898
0
0
0
0
0
0
0
5.08339
0
0
0
0
0
0
10.418
0
0
0
0
0
0
6.14245
0
4.67863
0
0
0
0
0
0
0
0
0
0
0
0
0
0
0
0
0
0
0
0
0
0
0
0
0
0
0
0
0
0
0
0
0
0
0
0
0
0
0
1.08828
0
0
0
0
0
0
0
0
0
0
0
0
11.7292
0
0
0
0
0
0
0
0
0
0
0
0
0
0
0
0
0
0
0
0
0
0
0
9.23175
0
5.77825
0
0
0
0
4.66353
0
0
0
0
0
0
0
0
0
0
0
0
4.97277
0
0
0
0
0
18.7982
0
0
0
0
0
0
0
0
0
0
0
0
0
0
0
0
0
4.21884
0
0
0
0
4.01926
0
0
0
0
0
0
0
0
0
0
0
0
0
0
0
9.52121
1.68302
0
0
0
0
0
0
0
0
0
0
0
5.09509
5.16175
0
12.0002
0
0
0
0
0
0
0
0
0
1.56205
0
0
0
0
0
0
0
0
0
0
0
0
0
0
0
0
0
0
0
0
0
0
0
7.56261
0
0
0
0
0
0
0
0
0
0
0
0
0
0
0
0
0
0
0
0
0
0
0
4.17987
0
0
0
0
0
0
0
0
6.79457
7.06459
0
0
0
0
0
0
0
0
0.178919
0
0
0
0
0
9.90469
0
0
10.6911
4.79093
0
0
0
0
0
0
0
6.40524
0
0
8.77378
0
0
0
0
0
0
0
0
0
0
0
0
0
0
0
0
0
0
0
0
0
3.81559
0
0
0
0
0
0
0
0
0
0
0
0
0
0
0
0
0
0
0
0
0
0
0
0
0
0
0
0
0
0
0
0
0
0
0
0
0
0
0
0
0
0
0
0
0
0
0
0
0
0
9.71103
0
0
0
0
0
0
5.10203
6.69948
0
0
0
0
0
0
0
0
0
0
0
0
0
0
0
0
0
0
0
0
0
0
0
0
0
0
0
0
0
0
0
0
0
0
0
0
0
0
0
0
0
0
0
0
0
0
0
0
0
0
0
0
0
0
0
0
0
0
0
0
0
0
0
0
0
-1.68009e-16
5.46616
0
0
0
-1.00173e-15
0
0
0.399806
0
0
0
0
0
0
0
0
0
0
0
0
0
0
0
0
0
0
0
0
0
0
0
0
0
0
0
0
0
0
0
0
0
0
0
0
0
0
0
0
0
0
0
0
0
0
0
0
0
0
0
0
0
0
0
0
0
0
0
0
0
0
0
0
0
0
0
0
0
0
0
0
0
0
0
0
0
0
0
0
0
0
0
0
0
0
0
0
0
0
0
0
0
0
0
0
6.88219
1.42608
0
0
0
0
0
0
0
0
0
0
0
0
0
0
0
0
0
0
0
0
0
0
0
0
0
0
0
0
0
0
0
0
0
0
0
0
0
0
0
0
0
0
0
0
0
0
0
0
0
0
0
0
0
0
0
0
0
0
0
0
0
5.68264
0
0
0
0
0
0
0
0
0
0
0
0
0
0
0
0
0
0
0
0
0
0
0
0
0
0
0
0
0
0
0
0
0
0
0
0
0
0
0
0
0
0
0
0
0
0
0
0
0
0
0
0
0
0
0
0
0
0
3.68246
5.75082
0
0
0.207042
0
0
0
0
0
0
0
0
0
0
0
0
0
0
0
0
0
0
0
0
0
0
0
0
0
0
0
0
0
0
0
0
0
0
0
0
0
0
0
0
0
0
0
0
0
0
0
0
0
0
0
0
0
0
0
0
0
0
0
0
0
0
0
0
0
0
0
0
0
0
0
0
0
0
0
0
0
0
0
0
0
0
0
0
0
0
0
0
0
0
0
0
0
0
0
0
0
0
0
0
0
0
0
0
0
0
0
0
0
0
0
0
0
0
0
0
0
0
0
0
0
0
0
0
0
0
0
0
0
0
0
0
0
0
0
0
0
0
0
0
0
0
0
0
0
0
0
0
0
0
0
0
0
0
0
0
0
0
0
0
0
0
0
0
0
0
0
0
0
0
0
0
0
0
0
0
0
0
0
0
0
0
0
3.8485
0
0
0
0
0.200023
0
0
0
5.48387
0
0
0
0
0
0
0
0
0
0
6.78252
0
0
6.50991
0
0
0
0
0
0
0
0
0
0
0
0
0
0
0
0
0
0
0
0
0
0
0
0
0
0
0
0
0
0
0
0
0
0
0
0
0
4.06176
0
0
0
0
0
0
0
0
0
0
0
0
0
0
0
0
0
0
0
0
4.14767
0
0
0
0
0
0
0
0
0
0
0
0
0
0
0
0
0
0
0
0
0
0
0
0
0
0
0
0
0
0
0
0
0
0
0
0
0
0
0
0
0
0
0
0
0
0
0
0
0
0
0
0
0
0
0
0
0
0
0
0
0
0
0
0
0
0
0
0
0
0
0
0
0
0
0
0
0
0
0
0
0
0
0
0
0
0
0
0
0
0
0
0
0
0
0
0
0
0
0
0
0
0
0
0
0
0
0
0
0
0
0
0
0
0
0
0
0
0
0
0
0
0
0
0
0
0
0
0
0
0
0
0
0
0
0
0
0
0
0
0
0
0
0
0
0
0
0
0
0
0
0
0
0
0
0
0
0
0
0
0
0
0
0
0
0
0
0
-8.18344e-16
0
3.98703
0
4.35138
0
0
0
0
0
0
0
0
0
0
0
0
0
0
0
0
0
0
0
0
6.48405
0
0
0
0
0
0
0
0
0
0
0
0
0
0
0
0
0
0
0
0
0
0
0
0
0
0
0
0
0
0
0
0
0
0
0
0
0
0
0
0
0
0
0
0
0
0
0
0
0
0
0
0
0
0
0
0
0
0
0
0
0
0
0
0
0
0
0
0
0
0
0
0
0
0
0
0
0
0
0
0
0
0
0
6.4021
0
0
0
0
0
0
0
0
0
0
0
0
0
0
0
0
0
0
0
0
0
0
0
0
0
0
0
0
0
0
0
0
0
0
0
0
0
0
0
0
0
0
0
0
0
0
0
0
0
0
0
0
0
0
0
0
0
0
0
0
0
1.56915
0
0
0
0
0
0
0
0
0
0
0
0
0
0
0
0
0
0
0
0
0
0
0
0
0
0
0
0
0
0
0
0
0
0
0
0
0
0
0
0
0
0
0
0
0
0
0
0
0
0
0
0
0
0
0
0
0
0
0
0
0
0
0
0
0
0
0
0
0
0
0
0
0
0
0
0
0
0
0
0
0
0
0
0
0
0
0
0
0
0
0
0
0
0
0
0
0
0
0
0
0
0
0
0
0
0
0
0
0
0
0
0
0
0
0
0
0
0
0
0
0
0
0
0
0
0
0
0
0
0
0
0
0
0
0
0
0
0
0
0
0
0
0
0
0
0
0
0
0
0
0
0
0
0
0
0
0
0
0
0
0
0
0
0
0
0
0
0
0
0
0
0
0
0
0
0
0
0
0
0
0
0
0
0
0
0
0
0
0
0
15.4068
0
0
0
0
0
0
0
0
0
0
0
0
0
0
0
0
0
0
0
0
0
0
0
0
0
0
0
0
0
0
0
0
0
0
0
0
0
0
0
0
0
0
0
0
0
0
0
0
0
0
0
0
0
0
0
0
0
0
0
0
0
0
0
0
0
0
0
0
0
0
0
0
0
0
0
0
0
0
0