/*--------------------------------*- C++ -*----------------------------------*\
| =========                 |                                                 |
| \\      /  F ield         | OpenFOAM: The Open Source CFD Toolbox           |
|  \\    /   O peration     | Version:  5.x                                   |
|   \\  /    A nd           | Web:      www.OpenFOAM.org                      |
|    \\/     M anipulation  |                                                 |
\*---------------------------------------------------------------------------*/
FoamFile
{
    version     2.0;
    format      ascii;
    class       volScalarField;
    location    "1";
    object      p;
}
// * * * * * * * * * * * * * * * * * * * * * * * * * * * * * * * * * * * * * //

dimensions      [0 2 -2 0 0 0 0];

internalField   nonuniform List<scalar> 
10571
(
99.0511
200.166
128.585
97.0524
120.783
175.225
97.6256
93.471
90.5596
100.394
187.922
136.454
98.0398
93.3866
96.4094
97.4841
166.674
103.606
99.8979
101.291
114.37
113.11
111.309
118.404
75.7143
76.3316
73.8783
75.3953
76.5908
85.7869
85.4395
92.6331
94.8307
92.388
130.816
85.266
89.9245
91.8386
92.4035
91.2443
93.9853
97.2807
90.7764
88.1954
89.0659
103.704
105.048
98.0327
73.8525
65.8888
76.3752
71.9092
68.0251
67.3712
75.0739
74.4348
85.0993
89.7612
65.0787
72.0418
82.0209
84.8358
84.0303
88.1447
65.9248
84.5722
81.0761
84.7996
86.1874
100.881
105.925
87.7512
71.9668
58.3218
70.394
69.9287
66.5113
56.517
64.9448
60.7863
64.7109
66.0175
57.3229
60.3243
72.993
70.791
66.3494
70.5348
59.1645
63.5971
70.9501
77.0003
79.9187
70.0025
84.3223
74.9784
72.2419
55.8122
59.1381
68.5725
66.2968
55.7078
57.6361
59.0952
61.479
63.3133
55.7773
53.9773
57.9525
59.3906
60.4237
64.1966
54.8455
52.4996
60.4884
61.5454
64.1311
54.0706
62.3058
63.4471
71.4812
53.4495
51.2186
68.1505
68.8905
54.3521
53.0264
58.7603
57.1071
58.5781
53.8805
54.1978
53.3162
50.9353
55.5171
56.7772
55.4991
54.4283
52.6567
51.2124
53.1132
55.1413
56.0808
52.2139
54.0703
55.9858
52.5421
51.992
50.0908
55.2757
53.6973
53.1073
50.9252
57.69
53.4412
52.6283
51.5034
52.3031
52.0966
51.308
53.5829
54.3611
53.8581
51.5558
51.7527
51.0735
50.8295
53.9386
53.8479
51.7406
51.2912
51.7888
53.7277
48.7014
51.8827
50.0819
48.686
49.5778
52.781
50.659
53.1062
49.8767
50.3462
51.4042
52.198
51.5143
51.3682
52.6872
52.3468
50.2148
51.4249
51.2279
50.6865
51.0172
51.8002
51.4659
51.3689
50.7362
50.9002
51.7224
48.3471
52.2275
49.1205
48.1937
48.7111
53.4162
50.0253
47.5295
48.0003
49.2223
51.4349
50.4357
50.6909
50.8724
51.6397
49.2726
49.6196
51.2521
50.4214
50.1975
50.8385
52.1813
49.5707
50.0031
49.9438
50.4269
48.1096
50.8036
47.6566
48.0118
48.1919
52.8821
48.1677
47.3291
48.0207
47.3897
49.1544
50.0058
49.4914
48.5551
47.7603
48.3475
49.2725
49.3229
48.4869
47.7294
47.6393
49.1163
48.5991
47.6864
47.8666
47.0071
47.706
47.7766
47.8372
46.0247
47.0348
47.3803
47.778
47.1889
47.9213
47.5438
47.3544
46.6051
47.468
47.6489
48.4981
47.6728
47.1405
47.4075
47.5194
48.1171
47.5002
47.5338
47.6263
47.4191
47.5493
47.5963
47.6287
47.2757
47.2718
47.398
47.5543
47.4389
47.6464
47.2967
46.6104
47.0625
47.4323
47.5464
47.6234
47.0325
47.3889
47.4811
47.5826
47.5413
47.4028
47.4945
47.4994
47.3646
47.4394
47.4706
47.5037
47.2847
47.4201
47.3582
47.4445
47.4027
47.4177
47.3405
47.109
47.2968
47.3814
47.4735
47.4183
47.3463
47.3855
47.4789
47.5454
47.4792
47.3402
47.4342
47.4056
47.3145
47.3921
47.3748
47.4284
47.252
47.3404
47.3143
47.381
47.3285
47.3116
47.276
47.2961
47.2514
47.3238
47.4041
47.4198
47.4287
47.286
47.3999
47.4357
47.4591
47.3052
47.4007
47.3237
47.2967
47.3346
47.2927
47.3414
47.234
47.252
47.2662
47.3003
47.2831
47.2473
47.2333
47.2301
47.2107
47.2703
47.3335
47.3143
47.3192
47.2238
47.3351
47.3299
47.3868
47.263
47.3495
47.2542
47.2751
47.2556
47.2151
47.2406
47.2217
47.2018
47.2206
47.2247
47.2609
47.1645
47.177
47.1697
47.1825
47.232
47.2921
47.2557
47.2267
47.1845
47.2817
47.2595
47.3333
47.23
47.2995
47.2063
47.2562
47.1968
47.1728
47.1906
47.1629
47.1554
47.1877
47.1745
47.2046
47.1348
47.1115
47.1452
47.1636
47.1932
47.1562
47.2012
47.1897
47.1578
47.2113
47.2453
47.2552
47.1812
47.2455
47.2071
47.2084
47.1207
47.148
47.1577
47.1131
47.107
47.1481
47.1723
47.1157
47.0762
47.0729
47.1276
47.1378
47.1595
47.1647
47.1711
47.1634
47.1299
47.1789
47.1974
47.19
47.1583
47.2046
47.1887
46.9863
47.056
47.1339
47.1774
47.0727
47.0953
47.1092
47.1937
47.1259
47.0787
47.056
47.1018
47.1145
47.1376
47.1277
47.1283
47.13
47.1019
47.1457
47.1899
47.1499
47.1214
47.1704
47.1643
46.9011
47.0218
47.1292
47.1586
47.0157
47.0943
47.1001
47.1759
47.1405
47.0528
47.0499
47.0729
47.1092
47.1269
47.1407
47.1009
47.1066
47.0791
47.1501
47.1498
47.1415
47.1046
47.1555
47.1477
46.982
47.0224
47.1187
47.1222
47.018
47.104
47.1059
47.1707
47.1384
47.0913
47.0736
47.0479
47.1191
47.1293
47.1456
47.0847
47.0775
47.0671
47.1447
47.137
47.1181
47.09
47.1439
47.1104
47.027
47.0271
47.0979
47.133
46.9954
47.0491
47.0955
47.1434
47.0632
47.1296
47.0634
47.0593
47.1377
47.1137
47.1249
47.1076
47.0573
47.0437
47.1459
47.1596
47.1237
47.0817
47.1395
47.1234
47.1571
47.0161
47.062
47.1113
46.9999
47.0343
47.0635
47.1087
47.0052
47.1088
47.087
47.071
47.1398
47.1047
47.0953
47.1157
47.0449
47.0371
47.1583
47.1601
47.0704
47.0877
47.1467
47.1033
47.1857
47.025
47.0166
47.0373
47.0727
47.0783
47.056
47.105
47.168
47.1222
47.0249
47.0911
47.1335
47.1402
47.0889
47.1174
47.0741
47.0606
47.1485
47.1812
47.1545
47.12
47.1627
47.0901
47.1707
47.0165
46.9968
47.0224
47.2258
47.0962
47.0621
47.0809
47.2378
47.1331
47.0222
47.1045
47.122
47.1385
47.0909
47.1191
47.1035
47.0768
47.1349
47.1685
47.1861
47.1376
47.151
47.0936
47.1318
46.9918
46.9592
47.0301
47.2327
47.0699
47.0603
47.0694
47.1256
47.1735
47.0816
47.1222
47.1162
47.114
47.1071
47.1113
47.1076
47.0905
47.1249
47.1283
47.1441
47.1418
47.145
47.1238
47.1222
46.9739
46.9213
46.94
47.231
47.0342
46.972
47.0311
47.0876
47.1649
47.1408
47.1126
47.1166
47.0818
47.0725
47.1035
47.1076
47.0826
47.1099
47.1126
47.115
47.1199
47.1186
47.1653
47.178
47.034
47.0286
46.8117
47.1935
47.0599
46.9783
46.9801
47.0451
47.1816
47.1676
47.1013
47.0963
47.0488
47.065
47.0764
47.0959
47.0967
47.0926
47.1151
47.0927
47.1226
47.1287
47.3348
47.1671
47.0829
47.2549
46.8799
47.1207
47.0521
47.0597
46.972
47.0408
47.1571
47.147
47.0883
47.0687
47.0504
47.0533
47.0372
47.0809
47.0949
47.0837
47.115
47.0987
47.0996
47.1161
47.1658
47.0844
47.0079
47.145
46.9875
47.0586
46.9997
47.0065
47.0227
47.0317
47.1448
47.1215
47.0567
47.0462
47.0386
47.0458
47.1022
47.0716
47.0856
47.0778
47.0889
47.1072
47.1051
47.109
47.0619
47.0333
46.9827
47.0102
46.8579
47.0385
46.9538
46.9356
46.9937
47.0155
47.1269
47.0797
47.0306
47.0097
47.0204
47.0336
47.0981
47.0559
47.0677
47.0578
47.1005
47.0948
47.0999
47.1005
46.9623
47.0099
46.9765
46.9007
46.7187
47.0306
46.9236
46.8883
46.897
47.0098
47.0917
47.0704
47.0228
46.976
46.9907
47.0398
47.067
47.0298
47.0438
47.0348
47.0628
47.0588
47.0565
47.0897
46.9104
47.0114
46.9686
46.8457
46.7581
47.0187
46.8974
46.8313
46.8647
46.9939
47.0633
47.0304
46.9878
46.947
46.9685
47.0218
47.0234
47.0061
47.0203
47.0121
47.0578
47.0298
47.0302
47.0491
46.9052
46.9943
46.9528
46.8369
46.8275
47.021
46.8721
46.7724
46.8458
46.9828
47.0135
46.9945
46.9446
46.9161
46.9537
46.9751
46.9859
46.9874
46.9935
46.9851
47.03
47.011
47.0096
47.0137
46.9207
46.9694
46.9322
46.8587
46.9036
46.9723
46.8276
46.7397
46.8326
46.9692
46.9626
46.9433
46.9011
46.8894
46.9294
46.967
46.9595
46.9649
46.9543
46.9596
47.0259
46.9899
46.9808
46.9896
46.9354
46.9352
46.9131
46.8844
47.0093
46.9194
46.7944
46.7294
46.8329
46.9634
46.9273
46.9114
46.8825
46.8645
46.9025
46.9485
46.9404
46.9363
46.9216
46.9373
46.9774
46.9664
46.952
46.9652
46.9396
46.9056
46.8958
46.8975
47.1554
46.8802
46.7787
46.7619
46.8307
46.9613
46.9057
46.8984
46.8768
46.8324
46.8767
46.9204
46.9219
46.9086
46.8944
46.9149
46.9363
46.9486
46.9224
46.9406
46.9317
46.8702
46.8791
46.9124
47.1824
46.8535
46.7889
46.8282
46.8188
46.9661
46.89
46.8838
46.861
46.8272
46.8524
46.8951
46.9019
46.8878
46.8671
46.8863
46.9323
46.9217
46.9122
46.9214
46.9031
46.8501
46.8588
46.9024
47.0835
46.8322
46.8024
46.892
46.8254
46.9609
46.8717
46.8634
46.844
46.837
46.8221
46.8771
46.8826
46.8746
46.876
46.8651
46.9143
46.9014
46.9058
46.9158
46.8552
46.8248
46.8289
46.8667
47.0123
46.8143
46.8045
46.9514
46.7868
46.9297
46.8403
46.8407
46.8263
46.8185
46.7909
46.8442
46.8524
46.8684
46.8814
46.8381
46.8997
46.8781
46.8907
46.9051
46.7979
46.7934
46.7874
46.8125
46.9225
46.7784
46.7781
46.9179
46.7251
46.8702
46.8118
46.8
46.7903
46.7678
46.7392
46.803
46.8213
46.8394
46.8526
46.8072
46.854
46.855
46.8721
46.8984
46.7244
46.7449
46.7316
46.7349
46.7688
46.732
46.7155
46.7964
46.6109
46.7818
46.758
46.7429
46.7451
46.6899
46.6672
46.7384
46.7662
46.7985
46.803
46.75
46.806
46.8263
46.8443
46.8628
46.6352
46.6974
46.6676
46.6337
46.5109
46.6704
46.6427
46.6222
46.4601
46.6719
46.7179
46.7079
46.6872
46.5906
46.5951
46.6665
46.7488
46.7405
46.7298
46.6845
46.7653
46.785
46.7834
46.7927
46.54
46.6505
46.606
46.514
46.1568
46.6088
46.562
46.4268
46.3512
46.5661
46.7176
46.6762
46.6182
46.4877
46.5225
46.6
46.716
46.6617
46.6231
46.6025
46.6826
46.7548
46.7085
46.6978
46.4681
46.6164
46.5646
46.4036
45.8785
46.5666
46.5193
46.2638
46.2779
46.4851
46.7232
46.6538
46.5538
46.3996
46.4431
46.5382
46.684
46.6047
46.5424
46.5322
46.6256
46.7347
46.657
46.633
46.4523
46.6064
46.5576
46.3588
45.8895
46.5498
46.502
46.2117
46.2388
46.4509
46.7424
46.6449
46.4926
46.3509
46.3724
46.4901
46.6643
46.5641
46.4688
46.4714
46.5553
46.6501
46.5794
46.5717
46.5245
46.6228
46.592
46.4076
46.1284
46.5599
46.5177
46.2511
46.2467
46.4615
46.7703
46.6613
46.4834
46.3705
46.3329
46.475
46.6789
46.5488
46.4063
46.4136
46.5156
46.5743
46.4908
46.5111
46.6579
46.6682
46.6587
46.5385
46.4531
46.5936
46.5671
46.3434
46.3215
46.5042
46.8095
46.6984
46.5343
46.4563
46.3393
46.4963
46.723
46.5426
46.4475
46.3587
46.5099
46.5686
46.4933
46.4886
46.8028
46.7283
46.7379
46.7001
46.8554
46.643
46.6401
46.4468
46.4603
46.5802
46.854
46.7411
46.611
46.5323
46.4296
46.574
46.7778
46.6154
46.5112
46.3769
46.5445
46.6184
46.5019
46.4847
46.9206
46.7884
46.8116
46.8343
46.9919
46.6954
46.7216
46.5471
46.6108
46.6462
46.8961
46.7786
46.6936
46.5929
46.5436
46.6218
46.8273
46.6941
46.519
46.4905
46.5932
46.6715
46.5156
46.4919
46.9944
46.8425
46.8698
46.9339
47.0783
46.7481
46.799
46.6463
46.8501
46.7326
46.9181
46.8062
46.7588
46.6486
46.6902
46.6639
46.8672
46.7408
46.5329
46.6599
46.6801
46.7225
46.5578
46.5568
47.022
46.8848
46.9054
46.9954
47.1289
46.7934
46.8523
46.8
47.0855
46.8525
46.9389
46.8312
46.8091
46.7421
46.8733
46.6864
46.8935
46.795
46.6633
46.7706
46.7572
46.7977
46.6527
46.7725
47.0184
46.9176
46.9269
47.0048
47.1163
46.833
46.8843
46.8947
46.9823
47.0052
46.9478
46.8486
46.8555
46.8299
46.8311
46.5988
46.9126
46.861
46.7873
46.857
46.7215
46.8928
46.8286
46.8916
47.0083
46.9459
46.9429
46.9972
47.054
46.871
46.8998
46.9205
46.9363
47.207
46.9483
46.8488
46.8856
46.8831
46.748
46.7436
46.9274
46.9041
46.875
46.8897
46.7178
46.9621
46.9447
46.9167
47.0006
46.9767
46.9604
46.9909
47.0119
46.9174
46.9211
46.9302
47.0169
47.2162
46.9638
46.8736
46.9186
46.9252
46.8482
46.8917
46.9349
46.9315
46.941
46.9462
46.9196
46.9864
46.9794
46.9486
46.9909
47.0166
46.9831
46.9765
46.977
46.9781
46.9446
46.9081
46.9128
47.0084
47.0004
46.9387
46.958
46.9526
46.9473
46.9232
46.9645
46.9462
46.9672
46.9831
46.995
46.9969
46.9814
46.9729
46.9768
47.0689
47.0121
46.9561
46.882
47.047
46.9774
46.8887
46.795
46.8502
47.0666
47.0337
47.0056
46.9504
46.8955
46.8988
47.0224
46.9753
46.965
46.9605
46.9611
47.0059
46.9784
46.9706
46.971
47.143
47.0565
46.9404
46.8029
47.1397
47.0312
46.8617
46.6844
46.7224
47.1573
47.1329
47.0661
46.9295
46.7979
46.7503
47.1033
47.0279
46.9527
46.9103
46.846
47.0297
46.9811
46.9578
46.9847
47.2458
47.13
46.9393
46.7088
47.2515
47.1086
46.8317
46.5149
46.5205
47.2757
47.242
47.1494
46.9192
46.6495
46.5246
47.2144
47.1099
46.9499
46.8292
46.6925
47.0912
46.9826
46.9372
47.0452
47.4072
47.2494
46.9779
46.607
47.4065
47.2228
46.8113
46.262
46.1523
47.4314
47.3888
47.267
46.9047
46.4438
46.0506
47.3554
47.2236
46.9613
46.7301
46.4576
47.2032
47.0125
46.9173
47.1786
47.6309
47.4375
47.0759
46.536
47.6169
47.3926
46.781
45.8171
45.4031
47.6326
47.5851
47.4261
46.8999
46.1307
44.8895
47.5392
47.3892
47.004
46.5951
46.0218
47.3593
47.0804
46.9112
47.3837
47.9309
47.7106
47.2294
46.4734
47.8838
47.6111
46.7328
45.2118
43.2789
47.8733
47.8228
47.6217
46.9172
45.6922
41.8212
47.7782
47.6273
47.1036
46.4198
45.0894
47.559
47.2044
46.9306
47.6616
48.3204
48.0926
47.449
46.5058
48.2052
47.8806
46.734
44.529
36.9801
48.1507
48.0864
47.8172
46.9624
45.2554
37.4151
-26.4935
48.0467
47.9127
47.2669
46.3342
42.8363
47.8041
47.4156
47.0366
47.9925
48.8041
48.5877
47.7354
46.6791
48.5766
48.141
46.9638
44.4541
32.2339
1.63884
48.4552
48.3653
47.9817
47.1514
45.119
36.0236
6.59732
48.3205
48.252
47.4968
46.4901
39.2976
48.054
47.6915
47.2983
48.5191
49.3735
49.1685
48.111
47.0228
48.9493
48.3749
47.1473
45.1761
36.454
10.2974
48.8111
48.6499
48.1645
47.3842
45.3722
35.9266
12.5905
48.5969
48.48
47.8323
46.9149
40.4014
12.4536
48.3281
48.0079
47.7082
48.877
49.9604
49.6003
48.4293
47.6732
49.3168
48.6452
47.4571
46.2227
37.9226
10.2491
49.2783
48.993
48.4305
47.7663
46.3008
37.1063
8.64485
48.9464
48.5632
48.2611
47.1966
41.4838
48.5887
48.4269
48.2825
48.6871
49.7976
48.9953
48.2419
48.3585
49.5263
48.5551
47.8799
47.5752
43.8441
49.8765
49.431
48.5811
48.2664
47.7125
41.074
-16.6675
49.3555
48.7067
48.7328
48.1205
45.8358
48.8438
48.9013
48.9991
47.7733
49.3083
47.8275
47.3776
48.5158
50.058
48.0536
47.7877
48.399
48.5721
50.2678
49.7696
48.6091
48.5284
48.6803
47.0896
49.6673
48.894
48.6572
48.7809
48.6471
49.0802
48.9196
49.072
47.0569
48.7005
47.1275
46.6241
48.3117
49.4072
47.7133
47.5388
48.4176
49.0135
50.0446
49.4305
48.4124
48.3088
48.9815
49.2751
49.6989
48.9245
48.7771
49.0427
49.5385
49.0991
48.8563
49.4337
47.2925
48.5718
47.3705
47.094
48.2718
48.9332
47.773
47.9896
48.6438
49.1685
49.4945
48.9926
48.2338
48.2239
48.9344
49.3535
49.5432
48.7589
48.7698
49.1429
49.4966
49.0576
48.9542
49.6251
48.2751
48.7452
47.9427
47.7098
48.4135
48.7798
47.9247
48.1116
48.8226
49.2065
49.1882
48.7279
48.0587
48.208
48.8093
49.2554
49.1072
48.4431
48.583
49.0275
49.3499
48.9376
48.8925
49.4311
48.7996
49.087
48.5415
48.4507
48.8267
48.7917
48.2007
48.3573
48.9053
49.2128
48.9735
48.5216
48.1062
48.3028
48.8368
49.2596
48.691
48.1188
48.3969
48.9772
49.2734
48.5775
48.7981
49.2506
49.2962
49.5159
49.0847
48.9002
49.2425
48.8539
48.5076
48.7894
49.1709
49.4122
48.7919
48.3266
48.2869
48.5406
49.0661
49.4217
48.2899
48.0058
48.5006
49.0881
49.4007
48.3148
48.8188
49.2545
49.7819
50.0548
49.6104
49.2795
49.5546
49.069
48.9428
48.9774
49.2738
49.7054
48.6836
48.3466
48.4583
48.6902
49.1497
49.6922
48.1202
48.1798
48.6079
49.3097
49.6969
48.4445
49.1224
49.5955
50.0918
50.2763
49.8674
49.4727
49.7069
49.3099
49.1555
49.1175
49.4428
49.9185
48.8643
48.5656
48.6258
48.816
49.3403
49.8856
48.2431
48.3906
48.8297
49.5136
49.9214
48.9086
49.6295
50.0439
204.958
156.384
192.928
182.092
149.478
170.011
166.684
181.561
200.213
216.718
224.356
211.743
199.907
198.907
174.06
145.414
118.853
170.952
174.752
121.982
132.706
195.591
195.523
161.045
186.122
171.283
194.699
192.219
193.528
194.345
158.23
182.095
133.148
116.302
107.328
109.853
107.662
104.974
107.768
105.207
104.048
117.442
132.396
106.178
107.646
164.938
131.869
134.916
193.54
199.891
210.218
194.35
127.679
202.808
135.684
108.832
107.312
112.788
109.658
105.462
105.729
108.936
110.716
105.768
106.039
114.345
133.221
131.427
129.271
173.435
204.928
201.175
167.915
200.247
183.187
127.105
128.107
135.472
134.416
138.469
150.783
136.632
146.049
164.993
183.331
194.492
205.108
184.783
188.048
147.298
128.121
134.928
122.081
127.695
128.785
156.159
179.01
95.9031
94.8861
148.487
106.037
72.7781
78.8824
74.3018
107.5
96.9966
72.7016
74.3653
73.1994
100.227
76.0916
194.126
172.91
189.376
197.829
150.391
136.102
98.5499
149.488
103.951
134.46
98.0552
110.778
82.3716
91.4109
87.7022
90.7899
112.334
92.0267
192.394
185.096
186.702
180.165
173.946
174.963
95.59
98.15
91.3567
93.3491
92.8401
188.775
184.62
174.295
161.603
138.203
99.9263
108.019
92.7513
92.6618
88.7959
179.128
139.908
117.011
165.724
132.149
124.414
97.722
118.495
105.286
105.428
128.278
129.822
87.8099
88.0098
96.6158
92.989
89.5521
129.688
105.969
111.518
107.139
102.95
106.637
106.523
111.679
107.407
106.607
109.472
106.663
105.501
74.8798
74.4373
75.9259
74.5714
76.2061
75.8461
76.629
76.0255
75.832
75.5853
75.6225
75.536
74.7251
75.7981
73.3452
120.959
75.6473
74.055
89.024
74.2056
70.5621
73.5584
70.6261
71.1911
85.6737
89.7638
93.2661
70.3162
74.1337
83.3761
89.2
92.994
91.3355
135.159
135.176
127.054
81.8069
90.3934
80.6688
92.9058
92.6097
91.894
91.7405
91.2176
110.712
102.374
88.7659
81.0451
77.6927
91.3221
89.0519
90.0087
89.7293
88.3478
101.09
76.6854
93.1598
100.678
100.484
80.8888
87.8613
89.5175
95.9157
88.8792
90.9758
89.9404
87.0527
88.0932
88.631
89.1217
88.1325
102.604
103.172
105.588
105.802
104.865
106.111
106.061
106.029
106.051
106.341
100.907
106.917
93.0092
73.6182
71.3638
74.2209
75.8383
74.228
73.2137
73.8413
72.9957
73.6968
72.1816
72.5338
72.2335
70.436
70.4457
68.6976
61.0289
59.481
71.5569
64.0296
69.9499
61.5191
65.643
59.4953
64.0286
67.8764
69.9159
78.1985
67.3094
66.4381
65.2132
68.0458
87.0063
73.6235
64.6312
68.3488
66.661
58.2634
57.9533
58.4289
90.0306
89.7393
76.8926
80.8716
83.3074
68.017
62.8553
57.7762
58.6227
59.2002
88.2281
86.4203
81.4865
82.5953
82.2946
62.2543
60.534
76.2359
73.2987
82.6888
61.0606
65.5949
63.1728
66.6369
86.4193
84.6314
86.7141
82.0425
84.9247
79.9674
84.008
84.2248
91.7295
75.8171
105.357
105.133
84.1749
97.2939
98.004
95.4953
107.188
97.8285
83.6851
100.24
81.0427
67.4523
58.496
72.9969
71.9578
72.7479
73.4594
69.4158
73.5341
71.4417
69.5941
71.9352
71.1511
69.3413
67.7497
67.541
58.1763
57.2313
58.1079
57.8971
57.4233
56.593
54.3045
57.0522
55.3843
65.8226
64.6786
65.4782
66.1202
65.6745
64.4202
65.0311
66.8746
65.231
56.4746
56.5562
56.3818
56.3538
56.2874
56.3564
68.052
67.0684
64.4172
65.4463
64.8648
56.3634
57.886
56.6389
56.1864
57.7801
69.5852
73.1963
66.4428
65.4198
66.3472
59.1014
56.9597
59.6273
58.7867
58.1333
56.9466
55.4833
57.0335
55.6319
81.9737
73.8145
77.3501
69.7276
73.8588
68.52
70.9587
70.2808
62.8287
56.378
81.3792
83.9938
57.9257
65.1254
68.25
75.9695
86.2866
70.0906
69.4719
71.3388
69.2606
54.875
53.2028
74.3576
66.8075
74.499
73.9043
59.1003
72.8719
71.2499
69.6211
72.5476
71.5025
69.9204
67.9739
68.7407
56.622
55.8608
53.452
56.3102
54.9727
54.6848
53.0293
55.3995
54.3766
65.6818
64.3653
64.4691
67.1424
66.3928
64.7653
64.9439
64.0257
62.356
56.0806
55.7394
55.7855
55.5961
55.0271
55.0452
63.7866
63.9137
61.5722
61.1109
62.2251
55.4279
56.9793
54.9793
54.56
55.3148
63.9747
64.6658
60.8728
61.8935
63.5675
54.7411
53.647
53.7831
54.5921
54.2299
53.5108
53.3986
53.3502
53.2445
63.6554
62.9748
63.5851
56.1532
57.5116
58.8453
58.9688
60.3591
54.0654
53.0957
56.3158
58.5687
53.0262
53.0925
54.1515
64.2176
62.396
56.9971
59.3881
56.9882
58.5651
52.2443
51.6769
71.1301
53.1575
66.3203
62.2671
51.3886
58.625
70.2315
69.6479
66.5438
66.1679
65.3459
69.2965
64.6185
55.0262
54.287
52.4711
54.3616
53.6222
52.5738
51.7048
53.5139
52.832
67.32
65.5176
61.8741
66.13
60.699
60.1049
54.8888
58.3604
54.2824
54.8993
54.537
54.2216
54.22
54.2021
53.5893
57.7527
57.2096
61.8027
54.9149
52.086
54.7814
52.8663
52.2731
54.5348
52.5774
51.9686
51.6493
52.0793
51.8556
53.6474
53.713
53.2219
52.6702
52.5058
61.877
58.5795
57.8905
53.9688
53.1409
54.3713
53.739
52.6128
54.2518
52.5491
51.9925
51.9543
52.5689
51.9711
52.7077
52.0651
52.8625
52.5419
52.5999
52.098
52.1938
52.062
52.1436
55.3489
56.2226
56.1019
55.0123
54.9277
54.826
55.1482
54.505
52.4649
52.0292
51.9566
52.1373
51.6837
51.5218
51.4997
56.8903
54.0725
52.557
55.0364
52.6497
54.8597
51.3377
51.1301
53.3758
51.0328
52.8524
49.1937
50.7941
49.5248
53.308
54.0813
48.8349
48.8631
49.1635
54.3172
49.7283
53.7264
53.3386
51.0212
52.9035
52.1387
51.7663
50.8381
52.528
51.7054
52.1144
52.0611
51.7452
49.6426
50.2846
51.3167
50.7571
52.0458
50.7292
51.1818
51.2424
51.4004
51.4612
51.333
51.397
53.7773
53.6669
53.2618
53.5767
53.5142
53.187
50.9377
52.9768
51.2513
51.2411
51.238
51.2345
51.2642
51.4278
51.4956
51.4485
51.334
51.416
51.3727
51.4256
51.9942
51.8775
52.2099
51.7942
51.7336
51.7984
54.1384
52.8178
52.1196
51.2326
53.728
51.9122
51.5121
51.8663
51.6023
51.3617
51.4574
51.4515
51.5449
51.7199
51.5459
51.7035
51.7265
51.7489
51.508
51.4036
51.4526
51.4169
54.1446
53.1842
53.8607
52.4944
52.7551
52.4002
52.7503
52.704
52.7979
51.8576
51.5102
51.4102
51.5032
51.6434
51.327
51.2041
51.1812
50.9796
50.925
50.9854
53.7724
51.768
51.2281
52.8271
51.4015
52.736
51.1274
51.1224
48.7676
50.289
48.7621
48.5618
49.3703
48.4971
48.6613
48.8971
48.5389
48.5234
48.7755
49.3513
49.1171
53.0962
52.9798
51.0977
52.3809
51.4433
52.1901
51.5533
52.3295
51.2815
49.9892
50.566
50.2441
49.1498
49.5974
48.9782
49.621
50.8207
51.537
49.9846
51.4968
51.4325
51.429
51.4773
51.4307
53.6218
53.8368
53.31
53.803
53.6861
53.5827
51.2894
50.3529
51.1912
49.7547
51.1183
49.9383
50.9601
51.4165
51.4169
51.444
51.3745
51.4219
51.3326
51.4014
51.7108
51.4215
51.6189
51.236
50.9415
51.0341
52.1758
51.2624
49.8564
50.9987
50.2593
50.9277
51.4725
51.4326
51.5155
51.3046
51.4238
51.2887
51.4405
51.2485
50.8339
51.1628
51.1623
51.141
50.924
50.8915
50.8114
50.8422
51.0589
51.2904
51.3633
51.9208
49.9112
51.1471
50.7564
51.0928
50.5479
50.9844
51.4796
51.3035
51.4261
51.0385
50.7456
50.6543
50.6335
50.3998
50.3224
50.3574
52.3863
51.0214
50.3831
51.504
50.5973
51.1518
50.441
49.0528
48.3535
48.2894
48.3205
48.2608
47.9631
48.2508
48.3292
48.4722
48.2219
48.1909
48.2052
48.7792
48.4177
52.8499
52.6059
51.8575
52.3116
51.1159
51.9345
50.676
52.3171
51.074
49.0239
48.3468
49.0198
48.4183
48.553
48.191
48.5558
49.0951
48.2911
54.0298
52.8905
53.6388
53.8563
51.5444
52.7721
51.0362
49.4603
50.5445
48.4291
50.24
48.7951
49.6075
51.4418
51.304
51.4177
51.299
51.4098
51.1151
51.3778
50.3547
50.3984
49.6456
49.6329
49.8937
50.6879
49.5908
50.5122
49.0654
49.7942
48.7801
49.737
51.4366
51.2567
51.4405
51.106
51.3793
51.1534
51.3852
50.3112
49.8129
50.5968
50.3594
50.4973
49.7933
50.2219
49.9556
50.1204
49.0089
50.471
49.74
50.0347
47.9181
48.2063
48.2582
48.4682
50.4153
49.9867
49.9282
49.8914
49.5863
49.4726
49.4017
50.8586
50.0622
49.5156
49.4826
49.5033
49.012
48.1346
47.7609
48.1374
47.9344
48.1295
47.9885
47.9057
47.9824
48.0869
48.0537
47.997
47.9798
47.9023
48.0855
47.9319
51.6078
48.9275
48.4875
51.7419
49.8705
48.4557
47.2659
48.9245
47.517
48.2237
48.0324
48.2116
47.9686
48.0273
47.8909
47.9919
47.8703
47.8332
51.6557
49.9387
50.3798
48.0325
48.2743
47.7752
48.0474
48.0318
47.0726
47.6838
44.8942
48.9963
49.3228
48.4664
48.3126
48.7372
48.4952
47.6766
47.8506
45.7589
47.408
49.3696
48.9317
49.7494
49.4942
49.6578
48.8735
49.2723
49.0583
49.1755
47.4383
47.5856
47.6218
47.4244
47.4007
47.5318
47.5475
47.4824
49.4908
49.0416
48.8743
48.8158
48.6415
48.2705
48.3895
47.9696
48.538
47.8672
47.6675
47.9297
47.5708
47.6566
47.6277
47.8499
47.8247
47.8393
47.7213
47.7185
47.7085
47.85
47.7861
47.7246
47.7251
47.6708
47.7961
47.6897
46.7368
46.7313
47.2956
46.5288
46.8087
47.1268
47.4885
46.6307
47.1762
47.8928
47.753
47.7992
47.7211
47.7614
47.6525
47.6521
47.7683
47.6518
46.5392
47.2385
46.9064
46.9109
47.2177
47.2827
47.707
46.842
47.3517
47.6797
47.5907
47.8568
48.3346
47.7101
47.7342
48.0771
46.9607
47.3509
47.588
47.5357
47.3376
48.5267
48.1745
48.6981
48.6314
48.5622
48.0583
47.7502
48.1183
47.8298
47.4399
47.5033
47.5086
47.4574
47.4844
47.5303
47.4957
47.5842
48.4637
47.9611
47.7784
47.9497
47.7097
47.5383
47.7081
47.5775
47.6104
47.4312
47.5198
47.5191
47.5178
47.572
47.5146
47.622
47.6296
47.6151
47.5558
47.5598
47.5567
47.6151
47.5728
47.5556
47.5345
47.5112
47.6355
47.5652
47.2644
47.4416
47.548
47.1732
47.3839
47.4391
47.483
47.3319
47.3622
47.6183
47.5627
47.5446
47.5641
47.483
47.4824
47.4473
47.5474
47.4458
47.3142
47.4279
47.4774
47.427
47.4504
47.4367
47.5488
47.4483
47.4527
47.445
47.433
47.6393
47.8323
47.5619
47.5195
47.6011
47.5217
47.3255
47.505
47.4781
47.3435
47.8214
47.5431
47.1181
47.7011
47.4407
47.4293
47.1163
47.519
47.3785
47.4954
47.5038
47.4864
47.4827
47.492
47.474
47.4824
47.5707
47.6739
47.5506
47.427
47.6431
47.5243
47.3508
47.5468
47.4686
47.4955
47.3656
47.4199
47.4539
47.4569
47.4798
47.4534
47.5047
47.4938
47.5101
47.4585
47.4511
47.4615
47.4915
47.4757
47.4422
47.4467
47.4503
47.4792
47.4439
47.3797
47.2818
47.4219
47.3088
47.3286
47.3033
47.3919
47.2871
47.3183
47.4207
47.436
47.3945
47.4594
47.3932
47.4263
47.3863
47.4121
47.3922
47.3729
47.3803
47.3854
47.2789
47.3258
47.3186
47.4294
47.4114
47.3308
47.4111
47.4085
47.4176
47.4521
47.3301
47.3434
47.3786
47.4551
47.3585
47.4464
47.4269
47.3275
47.4394
47.4433
47.3031
47.5016
47.4544
47.4376
47.3856
47.5275
47.4822
47.4834
47.4497
47.4751
47.4437
47.4417
47.4122
47.4466
47.4994
47.5202
47.5215
47.3364
47.4781
47.463
47.3585
47.4753
47.3918
47.4196
47.3284
47.3912
47.411
47.4269
47.4278
47.456
47.4209
47.4262
47.4221
47.3852
47.4057
47.3837
47.4092
47.3942
47.3744
47.3644
47.3483
47.4383
47.4277
47.2617
47.2996
47.3777
47.293
47.3205
47.3274
47.3699
47.3204
47.3206
47.3854
47.3835
47.3615
47.3895
47.3688
47.326
47.3305
47.3932
47.3824
47.2619
47.2838
47.2628
47.3028
47.2507
47.2567
47.3676
47.3971
47.3147
47.318
47.32
47.3091
47.3735
47.2888
47.2694
47.3654
47.3933
47.274
47.3586
47.3582
47.2379
47.4133
47.362
47.3688
47.4784
47.4382
47.366
47.3069
47.3962
47.3666
47.3839
47.3705
47.405
47.369
47.329
47.3423
47.3592
47.3776
47.4446
47.3905
47.3532
47.4315
47.4251
47.3065
47.3837
47.38
47.3516
47.2824
47.3687
47.2998
47.3753
47.4633
47.4309
47.3484
47.3685
47.332
47.2775
47.32
47.2837
47.3104
47.3117
47.2758
47.2608
47.2823
47.3597
47.2727
47.2903
47.2365
47.3787
47.3091
47.3231
47.2789
47.4043
47.2638
47.3129
47.3291
47.2937
47.3063
47.2815
47.2825
47.2449
47.2985
47.3542
47.3492
47.2827
47.2357
47.2732
47.2332
47.2285
47.229
47.311
47.2898
47.2662
47.3049
47.2933
47.2323
47.2919
47.2142
47.1973
47.2451
47.3343
47.2253
47.319
47.329
47.2096
47.2995
47.2507
47.2495
47.3504
47.3213
47.276
47.2284
47.3278
47.3104
47.2875
47.3176
47.3087
47.306
47.2664
47.295
47.2877
47.2939
47.3452
47.321
47.2815
47.3505
47.3571
47.2816
47.3287
47.3506
47.2773
47.2482
47.3279
47.2606
47.3194
47.3684
47.3051
47.2388
47.2651
47.2381
47.2188
47.2264
47.2147
47.2234
47.2541
47.238
47.2021
47.2099
47.2361
47.2153
47.2164
47.198
47.4283
47.2363
47.2886
47.2643
47.3713
47.2222
47.254
47.2603
47.2134
47.29
47.215
47.2097
47.1985
47.2355
47.3015
47.2462
47.2088
47.1785
47.1697
47.1613
47.1308
47.1327
47.2639
47.3054
47.2589
47.213
47.2468
47.1557
47.2256
47.1313
47.1235
47.1879
47.3287
47.199
47.2229
47.2529
47.2037
47.2317
47.2161
47.2139
47.2942
47.2795
47.2372
47.1933
47.2531
47.2231
47.2478
47.2734
47.2737
47.2449
47.2407
47.2515
47.2492
47.2452
47.2933
47.2467
47.2495
47.3143
47.3002
47.2071
47.2652
47.3012
47.2488
47.1989
47.2721
47.2159
47.2766
47.2449
47.1924
47.2057
47.193
47.201
47.1915
47.1502
47.1797
47.1935
47.1993
47.2015
47.1926
47.2034
47.2179
47.2139
47.1746
47.1394
47.2881
47.2025
47.2109
47.2651
47.2234
47.1765
47.1582
47.1608
47.165
47.1664
47.1775
47.158
47.1192
47.1384
47.191
47.1377
47.1073
47.0993
47.0881
47.0873
47.0676
47.0645
47.1522
47.1643
47.1399
47.1419
47.1484
47.1174
47.157
47.1226
47.1057
47.1407
47.1707
47.2081
47.1561
47.1573
47.2099
47.1895
47.1667
47.1768
47.2157
47.1876
47.1805
47.1645
47.1967
47.1696
47.2338
47.2301
47.2308
47.1918
47.2165
47.214
47.2219
47.2124
47.212
47.1901
47.1972
47.2319
47.2113
47.1887
47.2342
47.2435
47.1996
47.1755
47.2227
47.2037
47.2204
47.1467
47.1115
47.1672
47.1221
47.15
47.1447
47.11
47.1237
47.1933
47.1995
47.2044
47.1896
47.1847
47.1913
47.1807
47.0865
47.0565
47.1534
47.1236
47.0905
47.0825
47.0794
47.0402
47.0131
47.1445
47.0932
47.1289
47.1569
47.138
47.1084
47.1118
47.1329
47.1118
47.0782
47.0387
47.0522
47.0616
47.0178
47.0205
47.1739
47.1497
47.1093
47.1851
47.1488
47.0744
47.1173
47.0638
47.0584
47.1045
47.1542
47.1921
47.1382
47.128
47.154
47.1553
47.1457
47.1538
47.1816
47.1585
47.1488
47.1481
47.162
47.1396
47.2068
47.1995
47.2115
47.1616
47.1976
47.182
47.1925
47.1937
47.1804
47.1655
47.1697
47.2095
47.1736
47.1424
47.1621
47.2011
47.1741
47.1378
47.1683
47.1431
47.1888
47.073
47.0393
47.1295
47.0975
47.1132
47.1221
47.0818
47.1058
47.1689
47.1742
47.1707
47.1503
47.1733
47.2122
47.1844
47.0188
47.0132
47.0206
46.9594
46.9343
46.9141
46.9708
46.9376
46.9255
47.174
47.1278
47.1218
47.1688
47.161
47.1393
47.1434
47.1192
47.1586
47.041
47.0008
46.9828
47.0289
46.9935
46.9761
47.1806
47.1639
47.1448
47.1831
47.1883
47.0546
47.1116
47.0676
47.0495
47.0783
47.1271
47.1527
47.1352
47.1451
47.1618
47.1444
47.1018
47.1434
47.1437
47.1187
47.1122
47.1273
47.1393
47.1126
47.1814
47.1705
47.1695
47.1446
47.1731
47.1669
47.1516
47.1744
47.134
47.1259
47.1213
47.1495
47.1446
47.1144
47.1493
47.1441
47.1428
47.1119
47.1346
47.1306
47.1615
47.038
47.0475
47.1096
47.0636
47.0922
47.0892
47.0514
47.0671
47.1422
47.1651
47.1497
47.1314
47.1582
47.1357
47.1385
47.0103
47.0111
46.9567
46.9496
46.9442
46.9361
46.9788
46.9677
46.9671
47.1419
47.139
47.1589
47.1415
47.1433
47.1153
47.1771
47.1869
47.1732
47.0158
47.0027
46.9877
47.0233
47.0183
47.0034
47.1643
47.1721
47.1333
47.1657
47.1675
47.0466
47.0513
47.0768
47.0671
47.0619
47.1611
47.1701
47.1509
47.1628
47.1702
47.0774
47.0833
47.1111
47.1299
47.1113
47.0937
47.0963
47.1053
47.1051
47.162
47.1645
47.1495
47.1503
47.1482
47.1539
47.1504
47.1342
47.1266
47.1264
47.1119
47.1363
47.1283
47.1114
47.1195
47.127
47.1174
47.0976
47.1214
47.1073
47.1519
47.066
47.0851
47.0881