/*--------------------------------*- C++ -*----------------------------------*\
| =========                 |                                                 |
| \\      /  F ield         | OpenFOAM: The Open Source CFD Toolbox           |
|  \\    /   O peration     | Version:  5.x                                   |
|   \\  /    A nd           | Web:      www.OpenFOAM.org                      |
|    \\/     M anipulation  |                                                 |
\*---------------------------------------------------------------------------*/
FoamFile
{
    version     2.0;
    format      ascii;
    class       surfaceScalarField;
    location    "1";
    object      phi;
}
// * * * * * * * * * * * * * * * * * * * * * * * * * * * * * * * * * * * * * //

dimensions      [0 3 -1 0 0 0 0];

internalField   nonuniform List<scalar> 
29271
(
-1.21658e-05
8.26319e-07
-5.68057e-07
1.20347e-05
-1.05533e-05
2.91099e-06
6.83425e-07
7.26085e-06
-3.75644e-05
-4.21521e-06
-6.93338e-06
5.61758e-06
1.25868e-05
3.05086e-05
-4.13712e-05
-3.88699e-06
1.03914e-06
-3.55589e-06
1.06716e-05
3.71033e-05
-3.56456e-05
1.64007e-06
-2.84122e-06
7.9897e-06
2.3485e-05
5.37206e-06
-4.26124e-05
-5.68341e-06
-1.70321e-05
3.37309e-05
1.30804e-05
1.85165e-05
-5.9715e-05
-2.09679e-05
-4.24554e-05
2.74329e-05
1.51174e-05
8.05881e-05
-5.02052e-05
-7.95491e-06
-1.13074e-05
1.55638e-06
3.40382e-06
6.45073e-05
-4.94452e-05
-1.32912e-05
6.82482e-06
-1.05386e-05
4.66385e-06
6.17863e-05
-3.00195e-05
-3.00248e-06
2.93942e-06
2.12373e-05
9.04195e-06
-1.33958e-05
2.70599e-06
6.34031e-07
1.00972e-05
-3.80927e-05
-2.46309e-05
-7.29049e-06
3.85382e-05
-6.99773e-07
3.21756e-05
-5.01739e-05
-5.99471e-06
-3.47212e-05
1.65201e-05
-4.67398e-06
7.90438e-05
-4.62276e-05
-1.05828e-06
-3.87047e-06
-3.06673e-06
-7.56386e-06
6.17869e-05
-5.46443e-05
1.74407e-06
1.00079e-05
-1.1339e-05
-9.03666e-06
6.32679e-05
-4.90007e-05
3.22638e-06
-5.27123e-06
-7.7243e-06
4.42176e-05
1.45522e-05
-4.55695e-05
-5.9363e-06
2.13664e-05
-6.68368e-07
2.29469e-05
7.86087e-06
-5.47559e-05
-1.59913e-05
1.67115e-05
7.37328e-06
-1.65712e-05
6.32336e-05
-3.69255e-05
1.47825e-05
1.01215e-06
-3.78975e-06
-1.12668e-05
3.61873e-05
-3.72132e-05
-2.84083e-06
-6.32992e-06
3.16467e-05
1.22969e-05
2.4404e-06
-1.0742e-05
2.1825e-06
2.93991e-06
5.84283e-06
-2.61147e-05
-2.94502e-06
5.27921e-06
2.14425e-05
2.2084e-06
-6.20734e-05
7.35138e-07
-1.86922e-05
5.94826e-06
8.09076e-05
-6.82537e-06
-1.37095e-05
-2.35824e-06
1.16931e-05
4.431e-06
-1.30902e-05
5.90385e-07
-3.51522e-06
1.60123e-05
-5.19961e-06
1.21286e-06
-1.31424e-06
5.33965e-06
-2.35559e-06
-2.94807e-06
-3.34856e-05
2.27419e-07
-2.60389e-06
4.11657e-05
1.12699e-05
-4.62953e-05
4.90461e-06
-6.30381e-06
-1.86296e-05
5.50542e-05
-1.57329e-05
1.11015e-05
-6.11851e-06
-2.32708e-05
2.77618e-05
6.25889e-06
5.89517e-07
-4.93522e-06
-1.30976e-05
3.52849e-06
-1.21428e-06
1.51291e-05
-4.20835e-06
-4.57585e-05
0.000354803
-7.73149e-05
-8.37809e-05
-9.14126e-05
-9.00533e-05
6.00505e-06
8.57339e-06
1.64582e-05
1.75742e-05
-3.50787e-06
-1.13482e-05
4.3495e-06
-3.78617e-07
-3.3896e-05
-2.64069e-05
0.000268137
-7.17453e-05
-7.24841e-05
-6.53617e-05
-6.29905e-05
1.19027e-05
1.23467e-05
2.3737e-05
1.25524e-05
7.28324e-08
1.3222e-05
0.000158382
1.62324e-05
6.28727e-06
8.33614e-06
4.14621e-06
-4.69583e-08
4.85376e-06
4.24679e-06
-6.61386e-05
-5.40372e-05
-6.32228e-05
-6.623e-05
-1.63517e-05
2.31099e-07
-2.43435e-07
1.64319e-05
-4.60879e-06
1.57918e-07
2.77592e-06
1.76653e-06
-7.7571e-06
-2.6926e-05
9.90799e-07
1.17779e-05
-2.09048e-06
2.40049e-05
4.02382e-05
-7.84858e-05
0.0004269
-0.000101683
-9.91203e-05
-0.00010007
-9.28239e-05
-1.88705e-05
-1.43444e-05
-4.44157e-06
-3.05685e-06
-8.70394e-06
-3.47617e-05
0.000376024
-8.24911e-05
-7.56863e-05
-7.99181e-05
-8.0632e-05
-1.72979e-06
-2.22202e-06
0.000228108
2.59924e-06
1.91559e-06
6.82123e-06
3.08727e-06
3.62402e-06
7.17143e-06
-6.70665e-05
-7.3773e-05
-6.1003e-05
-4.30141e-05
-3.52762e-05
-3.38308e-06
-1.83202e-06
9.54183e-06
2.92197e-05
-8.26336e-06
-2.54734e-07
4.99552e-06
-1.462e-06
3.15101e-06
1.83357e-06
1.64256e-05
-1.57089e-05
0.000154505
-7.79631e-06
-9.94812e-07
4.47973e-06
6.61675e-07
-1.12415e-05
-1.52688e-05
-2.15826e-05
-6.04554e-05
-4.95065e-05
-4.27026e-05
-2.93008e-05
3.55662e-06
-1.10587e-05
0.000127978
2.65054e-06
6.96688e-06
1.97609e-06
-1.23532e-05
-2.49437e-05
-8.05749e-06
-3.73744e-05
-2.9199e-05
-2.30322e-05
-1.54459e-05
-3.72371e-05
-8.5745e-07
-5.92675e-06
4.53559e-05
-2.83302e-06
-3.5743e-06
1.56838e-06
4.8206e-06
-2.04038e-05
6.68513e-06
-1.33319e-05
1.13374e-05
-8.577e-05
6.88501e-06
-4.25407e-06
7.11859e-08
7.20092e-05
5.80911e-07
2.84547e-06
-2.27363e-06
-1.1329e-06
-1.85625e-05
-6.14549e-07
-1.35874e-06
2.05357e-05
-1.45141e-05
-1.51587e-05
5.05225e-06
2.45863e-05
3.4664e-06
6.4516e-06
-3.90343e-05
6.0226e-07
-5.43327e-06
3.39473e-05
7.70321e-06
-6.27013e-05
-4.93801e-07
4.36446e-07
-1.46434e-05
6.96989e-05
-3.54821e-05
3.56947e-06
-2.60346e-06
-7.74581e-06
3.97212e-05
2.54067e-06
2.677e-06
2.10327e-06
-2.07235e-05
-7.41689e-06
-6.63892e-06
2.9999e-05
-1.90985e-05
-7.51137e-05
0.000348772
1.29119e-05
1.68239e-05
9.01283e-06
1.97973e-05
1.2172e-05
8.13475e-06
9.53452e-06
1.18557e-05
-2.51746e-05
-4.25828e-05
0.000254424
1.82502e-05
1.04883e-05
1.78194e-05
1.58145e-05
-1.5628e-06
4.41345e-07
0.000111498
5.57298e-06
2.47099e-06
1.50447e-05
2.65897e-06
-1.13648e-06
-7.07671e-07
-1.07206e-06
-1.83774e-05
1.70833e-06
-1.35262e-06
1.64738e-05
-9.05192e-07
1.12599e-07
-8.99119e-07
1.64521e-06
3.55427e-06
-2.10765e-05
7.77918e-06
-4.9898e-06
-8.07171e-07
1.554e-05
-1.30297e-05
-5.42842e-05
0.000366636
6.60567e-06
1.1009e-05
1.74866e-05
1.73634e-05
-6.99249e-06
-3.50884e-05
0.000362493
-2.36612e-06
-3.06179e-06
0.000222736
-4.73443e-07
-1.20203e-06
2.23102e-07
1.51705e-06
2.69185e-06
1.4914e-06
-2.59884e-05
-3.90732e-06
-2.16333e-06
1.12144e-05
1.84785e-05
-5.45281e-06
1.94221e-06
-5.43267e-06
-1.65616e-06
9.64998e-06
9.49448e-07
5.94686e-07
-5.4548e-06
0.000108393
6.0977e-06
1.90644e-06
1.17009e-05
2.09355e-06
-1.55986e-05
-3.6331e-06
-5.87893e-06
4.23561e-07
-2.29437e-05
0.000138394
3.71942e-07
-1.80091e-06
4.59679e-07
-6.21844e-06
-1.01033e-05
-5.09851e-06
-5.88206e-05
-2.66405e-06
-2.44278e-06
6.12892e-05
-9.7354e-06
-6.16331e-06
1.92561e-06
1.39606e-05
-4.54671e-06
1.04735e-06
-4.26981e-06
2.39843e-06
-4.29012e-05
-8.31594e-07
8.13924e-06
-5.87577e-06
1.85256e-05
1.07905e-06
1.07883e-06
-1.32595e-06
-8.24341e-07
-2.11886e-05
-3.55908e-06
3.94012e-06
2.08076e-05
-2.78465e-05
-1.06829e-05
1.24086e-05
2.61191e-05
-3.03671e-06
1.24048e-05
-2.92582e-05
-2.90319e-06
2.99909e-06
1.97942e-05
1.02395e-06
-7.5202e-05
-7.47284e-06
8.28184e-06
-8.39067e-06
8.17597e-05
-5.17127e-05
-6.3526e-06
4.88437e-06
-1.38508e-06
6.12561e-05
-6.69013e-06
-1.19355e-06
6.3046e-06
-4.12217e-05
-1.1236e-05
-6.77282e-06
5.41195e-05
-1.49771e-05
-5.43532e-05
0.000328609
1.94531e-06
1.13937e-05
1.66277e-06
1.1386e-05
1.36239e-05
1.19345e-05
1.97663e-05
1.77809e-05
-1.92736e-05
-4.47559e-05
0.00027859
9.27672e-06
6.05779e-06
6.44975e-06
3.10183e-06
-1.2153e-06
-1.38291e-05
0.000108857
4.74233e-06
-3.12589e-07
-2.58013e-07
-1.27172e-06
-1.65641e-06
-1.04152e-06
-1.79062e-06
-1.68499e-05
-2.34865e-07
-3.48599e-06
1.93709e-05
-3.83783e-06
2.14799e-06
-7.23228e-06
8.91393e-06
8.77267e-06
-1.54599e-05
3.69341e-06
-1.32048e-05
-1.00351e-07
1.6299e-05
-8.12385e-06
-1.34596e-05
0.000295446
1.07899e-05
1.19819e-05
7.09785e-06
8.55063e-06
1.58914e-06
-2.22302e-05
0.000330254
-1.45826e-06
-6.25825e-06
0.000235299
-1.88592e-06
1.78259e-08
-1.47106e-06
-6.26076e-06
-3.25735e-06
-4.22843e-06
-1.57687e-05
2.31101e-06
1.00457e-06
-3.18969e-06
1.41846e-05
-1.63765e-05
1.2805e-06
-4.39903e-06
1.0569e-06
1.98103e-05
-1.37215e-06
-1.28486e-05
-5.93647e-07
8.84019e-05
6.22522e-06
1.81208e-06
8.93626e-06
5.04958e-06
-1.27889e-06
-1.12685e-08
-7.5894e-07
-8.01277e-06
-2.87216e-06
0.000128595
-1.65105e-06
-5.77268e-06
-9.11462e-07
-2.41551e-06
-2.02967e-06
-1.6142e-06
-6.79128e-05
-9.23942e-06
3.36684e-07
6.25445e-05
-1.36057e-05
4.8048e-06
7.0265e-07
8.12071e-06
-1.85462e-07
1.23692e-07
-5.93505e-07
8.64559e-08
-6.26273e-06
-3.82947e-07
3.08455e-06
-8.17434e-07
1.5064e-06
4.78139e-07
6.86484e-07
-9.96508e-07
-2.23232e-07
-1.90162e-05
-8.83978e-06
1.29186e-05
1.49373e-05
-2.59889e-05
-1.07475e-05
7.68508e-06
2.90513e-05
-3.48892e-06
1.23722e-05
-9.61218e-06
-1.07634e-05
4.08114e-06
7.41115e-06
-1.15238e-05
-8.68731e-05
-6.74412e-06
1.47285e-05
7.25146e-06
8.31611e-05
-7.05481e-05
-1.5598e-05
1.26494e-05
1.38515e-05
7.49351e-05
-1.52899e-05
-2.12877e-06
1.03111e-05
-6.65202e-05
-1.55423e-05
-2.51022e-06
7.63904e-05
-3.10114e-05
-8.28598e-06
0.000309176
-6.31887e-07
-3.50632e-06
2.82673e-07
-8.68768e-06
1.8336e-05
1.55649e-05
1.87648e-05
1.86082e-05
-2.08612e-05
-2.38997e-05
0.000318683
-2.01689e-06
-7.67888e-06
-5.67606e-06
-1.0971e-05
-7.09249e-07
5.05335e-06
0.000135619
-1.20149e-05
-7.00898e-06
-2.31039e-05
-8.22823e-06
-1.98114e-06
1.42653e-06
-1.05633e-06
-2.19494e-05
-2.06982e-06
-5.78157e-07
2.38847e-05
-1.07785e-05
2.26434e-06
-7.00215e-07
9.21805e-06
-3.34257e-06
-1.81131e-05
3.06633e-06
-8.64849e-07
-5.91116e-06
2.51654e-05
-1.15669e-05
9.2465e-06
0.000247183
8.50522e-06
9.52909e-06
1.25759e-05
1.1687e-05
-1.10191e-05
-1.42421e-05
0.000320049
-3.00965e-06
-2.52809e-06
0.000247396
-5.10499e-06
-2.12939e-06
-2.35024e-06
-1.53459e-06
-5.54573e-07
-8.51146e-07
-9.20636e-06
9.4224e-07
2.76431e-06
-3.55866e-06
6.04883e-06
-2.08311e-05
-1.2022e-06
-8.3595e-07
1.06478e-06
1.88622e-05
2.94224e-06
-1.7372e-05
2.19175e-08
0.000107461
4.17488e-06
-1.14923e-07
3.65453e-06
-7.79197e-07
2.29467e-07
2.45858e-07
1.26709e-07
-4.1899e-06
-3.05178e-07
0.000104349
-5.40453e-07
-1.55344e-06
9.38435e-08
-3.87385e-07
-1.78308e-07
-3.07593e-07
-5.92471e-05
-3.76929e-06
-1.6903e-06
5.79887e-05
-5.5821e-06
2.04573e-06
-6.76858e-08
3.63279e-06
-4.77689e-07
-1.67104e-07
-6.66976e-07
1.32777e-06
7.68029e-07
-3.1752e-10
4.4368e-07
-2.48432e-07
-1.26814e-06
3.1427e-07
7.70484e-07
-5.4696e-07
-5.83994e-07
-6.88514e-06
-8.01272e-07
6.19609e-06
1.50319e-06
-3.31856e-05
-4.78917e-06
1.24222e-06
3.67326e-05
-2.04953e-06
9.05479e-06
-8.90812e-06
-9.63727e-06
3.42019e-06
8.11995e-06
-1.93962e-05
-7.13036e-05
-2.03918e-06
1.86775e-05
3.30096e-05
4.10519e-05
-7.02021e-05
-1.90012e-05
2.42193e-05
2.70621e-05
5.9859e-05
-2.19371e-05
1.29125e-06
1.1709e-05
-8.31847e-05
-1.53834e-05
-2.5804e-06
8.81483e-05
-4.92315e-05
1.75903e-05
0.000299126
-2.06871e-06
-7.59913e-06
-5.87511e-07
-4.92431e-06
1.53263e-05
1.30144e-05
1.42105e-05
1.43195e-05
-1.30872e-06
2.97068e-05
0.000333519
-2.27469e-05
-2.77176e-05
-2.18015e-05
-2.01996e-05
4.04332e-06
2.22614e-05
0.000148628
-2.69249e-05
-6.92131e-06
-9.22763e-06
-7.29809e-06
-7.26999e-07
5.3589e-06
5.11709e-06
-2.60312e-05
-4.24093e-06
2.46812e-06
8.87028e-07
3.09603e-05
-2.00491e-07
1.54197e-08
2.70776e-09
1.73762e-07
-5.39419e-06
-1.43904e-06
5.05448e-06
1.78903e-06
-8.90217e-06
-3.55032e-05
2.53508e-06
1.49511e-06
-2.18218e-06
4.25573e-05
-2.89174e-05
3.18231e-06
0.000267753
6.3664e-06
6.032e-06
5.0464e-06
5.31079e-06
-1.70523e-05
7.15531e-07
0.000337175
-2.4221e-06
-1.12488e-06
0.000248424
-1.61389e-07
3.82418e-06
2.88331e-07
1.05454e-06
1.71376e-06
1.00844e-06
-9.20603e-06
-8.58649e-07
-3.69416e-06
-1.25043e-06
1.25872e-05
1.18102e-08
-2.21311e-07
6.11655e-08
-6.29707e-08
1.79646e-07
-1.8947e-05
-1.23961e-06
1.87008e-07
3.25987e-06
1.98878e-05
-3.14804e-06
-1.44273e-05
-1.17786e-06
0.000131788
1.12727e-06
-2.75764e-06
1.4346e-06
-2.95945e-06
-7.69205e-07
-8.35708e-07
-7.79584e-07
-5.54373e-06
2.619e-07
0.000102605
-9.55854e-07
-5.11043e-06
-8.52114e-07
-3.13254e-09
2.29863e-07
6.57222e-09
-6.13399e-05
-2.95863e-06
-1.59124e-06
5.92212e-05
-2.13228e-06
5.51611e-07
9.20724e-07
6.5414e-07
-1.83121e-06
-1.79088e-06
1.09736e-06
1.34478e-06
1.62638e-06
2.10846e-07
2.96449e-07
-1.8733e-07
-1.68444e-06
8.38084e-07
4.24751e-07
-3.52017e-07
-9.08337e-07
-1.01226e-06
-3.21984e-07
-1.25323e-07
1.36229e-06
-4.00158e-05
2.94885e-06
-4.72397e-06
4.17909e-05
-4.44431e-07
-1.3276e-06
-6.18868e-06
1.44312e-06
8.28181e-07
5.68942e-06
5.892e-07
-1.73349e-05
2.79478e-07
2.08066e-06
9.36135e-06
5.02423e-06
-5.23257e-05
-6.07109e-06
1.11796e-05
7.89716e-06
4.34154e-05
-4.09532e-06
3.18235e-06
1.04609e-05
-9.07877e-05
-1.4043e-05
-1.57204e-06
9.27594e-05
-6.1669e-05
1.72979e-05
0.000308649
-2.62799e-06
-8.32723e-06
-3.19276e-06
-4.68921e-06
1.3761e-05
1.25439e-05
1.34092e-05
1.39709e-05
1.30303e-05
5.66632e-05
0.000244336
-1.94449e-05
-1.3435e-05
-7.40482e-06
-1.89489e-06
1.0038e-05
6.18511e-06
0.000122115
-5.42763e-06
-2.77361e-06
4.62377e-07
2.27562e-06
7.40997e-06
1.17534e-05
9.61973e-06
-3.81239e-05
5.34512e-06
1.49639e-05
-4.6499e-07
2.83179e-05
-5.26752e-08
6.69691e-08
-2.69465e-06
-2.82403e-07
-4.22929e-08
3.00505e-06
-8.27092e-07
-3.48792e-06
3.48776e-06
8.28863e-07
-7.78295e-06
-4.6712e-05
-6.22767e-07
4.08728e-06
2.55321e-06
4.84772e-05
-4.33952e-05
8.71359e-06
0.000303924
2.83263e-06
3.50332e-06
4.42591e-06
5.0464e-06
-2.1218e-05
2.82433e-05
0.000343418
5.40041e-06
6.64273e-07
0.000207194
5.28102e-06
3.28865e-06
4.52126e-06
1.27066e-06
4.57407e-06
1.19672e-06
-1.81741e-05
5.91193e-08
1.00045e-05
-3.7536e-07
1.38863e-05
-1.67969e-07
1.93253e-07
-3.99119e-06
-1.14772e-07
-3.34271e-07
4.41495e-06
-2.10382e-05
-1.00992e-06
1.25512e-06
3.60212e-06
2.20251e-05
-4.83421e-06
-1.29395e-05
3.17292e-07
0.00015748
-7.98502e-07
-3.35052e-06
4.27591e-07
-2.63914e-06
1.34766e-07
1.12815e-06
7.42094e-07
-7.79198e-06
2.45102e-07
0.000134635
-1.45888e-06
-6.4942e-06
-1.57946e-06
5.36131e-08
2.30958e-07
6.78189e-08
-5.70875e-05
-2.04826e-06
1.12276e-06
5.08853e-05
3.06454e-07
-7.53947e-07
-1.41908e-06
2.01584e-06
-2.19727e-07
-1.88469e-07
-1.62418e-06
1.22426e-07
1.68522e-06
-1.31082e-06
-2.57656e-06
1.79646e-06
2.40696e-06
1.66828e-06
3.35427e-07
7.07135e-08
-3.06381e-07
-1.52294e-06
8.59611e-07
1.69331e-07
-2.23054e-07
-8.1353e-07
-2.15574e-06
-1.10827e-06
1.51766e-07
3.11279e-06
-4.29086e-05
7.93526e-06
-7.9898e-06
4.29631e-05
1.78564e-06
-8.81883e-06
-7.44695e-06
5.63223e-06
-1.03401e-06
9.88192e-06
3.28916e-06
-1.97915e-06
-1.37038e-06
1.36174e-06
-5.43734e-06
4.13597e-06
-4.59669e-05
-7.85305e-07
4.47193e-06
-3.36811e-06
4.8716e-05
-3.06759e-06
4.84207e-06
8.0808e-06
-9.30098e-05
-1.16678e-05
-3.36159e-07
9.20908e-05
-3.82723e-05
1.80437e-05
0.000279599
-1.05296e-06
-7.38932e-07
-1.07164e-06
2.31574e-06
1.25347e-05
1.15566e-05
1.22856e-05
1.34498e-05
1.80897e-05
3.39418e-05
0.000146804
4.96034e-07
1.15782e-07
2.44665e-06
4.16934e-06
9.64046e-06
-2.85573e-06
0.000108206
1.32199e-06
2.17042e-06
2.90246e-06
2.81317e-06
6.62412e-06
5.38884e-06
3.99385e-06
-3.04928e-05
7.49975e-07
7.49897e-06
-9.7388e-07
3.28582e-05
-8.35812e-06
4.45727e-07
-5.00297e-06
1.52042e-06
-3.42398e-07
1.17373e-05
-7.05104e-07
-4.66682e-06
4.70304e-06
6.71475e-07
-7.82693e-06
-5.10685e-05
-4.33054e-06
3.05164e-06
6.55814e-06
5.36162e-05
-4.62957e-05
2.13197e-05
0.00032637
3.97664e-06
3.44957e-06
7.23709e-06
5.91006e-06
-9.87061e-06
4.51961e-05
0.000295738
5.87716e-06
2.55274e-06
0.000161723
4.41576e-06
8.65607e-06
4.58503e-06
5.38454e-07
5.48409e-06
6.3538e-07
-9.90637e-06
1.22533e-06
3.88784e-06
-1.35122e-06
1.20216e-05
-9.20935e-06
1.9176e-06
-3.38893e-06
1.09345e-06
-2.3791e-06
1.19663e-05
-2.36422e-05
-2.05116e-06
2.79719e-06
4.17942e-06
2.51143e-05
-6.39759e-06
-2.43006e-05
1.90596e-06
0.000198342
-1.22301e-06
-2.32105e-06
1.53654e-07
-1.00127e-06
1.76568e-06
2.48363e-06
2.99419e-06
-8.00439e-06
2.29497e-06
0.000163909
-1.78766e-06
-4.73498e-06
-1.89086e-06
1.33241e-06
2.90357e-06
1.5088e-06
-4.94192e-05
-1.76853e-06
1.95239e-06
4.37836e-05
-8.77358e-08
-7.31792e-07
-8.36673e-07
1.43212e-06
-2.0843e-08
-2.82732e-06
7.17913e-07
-1.02245e-06
-3.74071e-08
3.1729e-06
-3.99263e-06
-2.76536e-06
2.51186e-06
6.15093e-06
1.04041e-06
2.98458e-07
-3.80138e-07
-2.12329e-07
1.54857e-06
7.53134e-07
2.4015e-07
-3.43901e-07
-6.84768e-07
-4.39749e-06
-1.34634e-06
4.63403e-07
5.28043e-06
-4.29958e-05
9.75789e-06
-8.73274e-06
4.19726e-05
3.69717e-06
-1.12552e-05
-1.0925e-05
6.55696e-06
-2.50742e-06
1.44335e-05
1.41725e-06
-6.83494e-06
-4.43498e-06
1.48581e-06
-1.26968e-06
9.63653e-06
-5.11709e-05
-8.13599e-07
1.60026e-06
-2.25215e-06
5.32835e-05
-6.47106e-07
5.58756e-06
5.17597e-06
-8.87819e-05
-6.51874e-06
2.09758e-06
8.24395e-05
-5.44764e-06
1.12558e-05
0.00022958
9.97697e-07
3.1804e-06
2.88446e-06
6.80817e-06
8.08603e-06
8.39568e-06
4.60887e-06
9.249e-06
1.21275e-05
1.98917e-06
0.000115598
2.37372e-06
3.93494e-06
2.03671e-06
3.2963e-06
1.969e-06
-1.25254e-05
0.000135436
2.02942e-06
2.85561e-06
2.6293e-06
1.16801e-06
8.39281e-07
-6.8332e-06
-7.23457e-06
-4.89269e-05
4.47555e-06
8.8308e-07
-1.859e-06
4.73963e-05
-1.25806e-05
1.7506e-06
1.03473e-06
2.38494e-06
7.40878e-06
-1.10859e-06
-2.93714e-06
1.59329e-06
2.41894e-06
-3.17328e-06
-5.66027e-05
-7.58603e-06
-3.82473e-07
9.36745e-06
5.8377e-05
-3.56426e-05
3.02555e-05
0.000313139
6.33444e-06
4.51174e-06
1.06387e-05
8.38934e-06
9.86044e-06
3.44161e-05
0.000217808
7.0875e-06
9.96109e-07
0.000146997
3.43037e-06
6.92181e-07
-9.47065e-07
-1.52975e-07
1.31626e-06
-3.61348e-07
-1.9455e-05
2.59154e-06
3.54157e-07
-1.45209e-06
2.50489e-05
-1.18544e-05
5.49809e-08
3.54589e-06
-1.36666e-06
-7.56848e-07
1.03771e-05
-2.61899e-05
-1.33819e-07
2.02829e-06
4.40533e-06
2.7563e-05
-7.67291e-06
-2.45403e-05
4.06498e-06
0.000229771
-8.73218e-07
-2.46863e-07
1.6268e-06
1.60808e-06
4.41996e-06
5.84839e-06
6.91875e-06
6.29427e-07
4.93162e-06
0.000154072
-1.92104e-07
1.96288e-06
2.85465e-07
2.6926e-06
6.59427e-06
2.80841e-06
-4.07467e-05
4.59915e-06
3.06335e-06
3.47098e-05
-2.66142e-07
4.57665e-07
-1.32826e-06
9.79345e-07
-8.36257e-06
-2.42821e-06
2.3438e-06
1.25096e-05
-5.35018e-06
3.53964e-07
-1.12705e-06
2.16842e-07
1.08381e-05
4.63904e-07
-1.31939e-07
-4.33405e-07
-7.66872e-08
-6.08016e-06
-1.63643e-06
8.98953e-07
6.81763e-06
-4.32448e-05
1.15755e-05
-1.26007e-05
4.4259e-05
4.50852e-06
-9.69996e-06
-1.92786e-05
7.67915e-06
-5.11314e-06
2.1904e-05
-8.30798e-08
-1.3538e-05
-4.89813e-06
1.58985e-06
-2.74587e-08
1.69568e-05
-5.5321e-05
-5.5544e-07
9.68572e-07
-1.93799e-06
5.68683e-05
-2.2491e-08
5.8485e-06
2.969e-06
-6.75595e-05
1.67518e-06
5.38078e-06
5.1686e-05
1.27747e-05
-1.01774e-08
0.000195658
3.95718e-06
6.17105e-06
4.67778e-06
7.10141e-06
-1.74862e-06
1.30387e-06
-2.20946e-06
1.90443e-06
4.44721e-06
-9.06975e-06
0.00012542
1.54487e-06
1.64495e-06
2.48776e-06
1.89785e-06
-9.14134e-06
-4.94604e-06
0.000173731
1.4795e-06
5.59626e-07
2.92037e-06
1.25968e-06
-1.07131e-05
-6.40344e-06
-8.86304e-06
-5.40411e-05
-5.37254e-06
-3.26114e-06
5.35326e-05
-5.5117e-06
-5.51598e-06
1.02043e-06
9.98942e-06
2.79903e-06
-6.15233e-05
-1.03242e-05
-4.46729e-06
1.17018e-05
6.1814e-05
-1.18421e-05
2.58113e-05
0.000271175
6.48458e-06
5.27564e-06
8.35937e-06
7.86508e-06
2.09273e-05
1.35216e-05
0.000162447
-3.89543e-06
1.36684e-06
0.000166661
-1.74288e-06
-1.22e-06
-4.76984e-07
-6.64364e-07
2.72134e-06
2.28985e-07
-4.38846e-05
1.03318e-06
-1.12203e-05
1.33632e-06
4.88399e-05
-3.28483e-05
4.20049e-07
2.97295e-07
2.10156e-06
3.97735e-05
-9.74416e-06
-6.47876e-06
5.71826e-06
0.000228528
-1.98921e-07
6.16519e-07
2.39098e-06
1.79867e-06
6.7866e-06
7.44184e-06
8.97974e-06
4.71956e-06
3.48118e-06
0.000129017
2.71236e-06
6.45975e-06
4.27158e-06
2.04624e-06
4.41059e-06
3.99688e-06
-3.05382e-05
4.39366e-06
1.51054e-06
3.07204e-05
-1.72756e-06
1.75214e-06
-1.89527e-06
1.85796e-06
-1.77256e-05
-2.14423e-06
2.86385e-06
2.27039e-05
-1.66688e-05
-1.64928e-06
2.44679e-06
9.78931e-07
1.83735e-05
-2.84849e-07
6.74594e-07
-1.13449e-06
6.81648e-07
-7.36882e-06
-8.4958e-07
5.19682e-07
7.6941e-06
-4.25738e-05
9.39813e-06
-6.94805e-06
4.01258e-05
7.8648e-07
-6.28426e-06
-2.45801e-05
4.51822e-06
-1.83908e-06
2.73987e-05
-1.01107e-07
-2.01668e-05
-3.9373e-06
1.76542e-06
-1.02466e-08
2.245e-05
-5.87757e-05
-6.92618e-07
8.50327e-07
-1.77936e-06
5.99554e-05
4.41973e-07
1.44088e-06
8.20331e-07
-4.39867e-05
-3.12067e-07
1.44129e-06
4.05962e-05
6.08208e-06
-4.08555e-06
0.000181958
2.67023e-06
3.96512e-06
5.42261e-07
2.76264e-06
-9.24397e-07
5.64055e-07
-1.67597e-07
2.29109e-06
1.63409e-06
-4.748e-07
0.000127764
8.72609e-07
-3.12257e-07
1.37368e-06
6.45048e-07
-4.85585e-06
-1.02686e-06
0.000184932
1.26449e-06
8.42892e-07
2.40348e-06
8.30008e-07
-3.59034e-06
-3.70901e-06
-1.72649e-06
-5.16815e-05
-3.08663e-06
-5.85035e-07
5.04978e-05
-1.27727e-05
-2.10645e-06
1.06258e-06
1.38105e-05
3.37773e-06
-6.22648e-05
-4.33557e-06
-6.88466e-06
6.71516e-06
6.33921e-05
-3.32324e-07
1.48901e-05
0.000235316
4.01342e-06
3.29904e-06
5.82305e-06
4.08006e-06
1.37367e-05
5.34645e-06
0.000142557
1.63862e-06
1.3118e-06
0.000169446
-6.22388e-07
3.08934e-06
-3.18823e-07
1.02675e-06
2.25694e-06
1.54273e-06
-5.05178e-05
9.49944e-07
-6.19246e-08
1.94059e-07
5.10744e-05
-4.85406e-05
9.48918e-07
-1.8874e-06
2.48758e-06
5.46662e-05
-7.67461e-06
2.6716e-06
5.4436e-06
0.000214521
-4.88704e-07
3.40849e-08
8.91934e-07
9.18604e-08
7.3845e-06
5.58916e-06
7.27814e-06
4.63343e-06
1.91123e-06
0.000122655
2.69538e-06
4.72723e-06
4.21893e-07
1.06626e-06
1.03537e-06
-2.11081e-06
-3.35725e-05
5.95392e-06
1.11628e-06
3.24475e-05
-2.99336e-06
1.59943e-06
-3.69651e-06
5.08839e-06
-2.79206e-05
-2.9979e-06
5.07123e-06
3.12802e-05
-2.25543e-05
-3.51767e-06
3.03384e-06
-2.26517e-06
2.72145e-05
-1.85176e-06
1.28709e-06
-2.15806e-06
2.7229e-06
-7.93523e-06
-4.29643e-07
1.47109e-07
8.21776e-06
-3.81456e-05
5.23771e-06
-3.42758e-06
3.63333e-05
-5.95585e-07
-3.81672e-06
-2.87735e-05
2.4537e-06
1.38474e-06
2.93474e-05
-8.53734e-08
-2.40935e-05
-2.6507e-06
1.28311e-06
2.9124e-07
2.52552e-05
-6.09544e-05
-7.73091e-07
8.12323e-07
-1.45003e-06
6.16618e-05
7.03316e-07
1.3828e-06
-2.37752e-07
-3.75038e-05
6.09775e-07
6.39812e-07
3.51091e-05
3.0373e-06
2.10405e-06
0.000175709
-6.48488e-07
8.60745e-07
-1.02792e-06
5.91777e-07
-4.91961e-07
5.86341e-07
-8.01687e-07
2.03925e-06
-1.33743e-06
6.87896e-06
0.000127449
-6.36556e-07
-1.34651e-06
3.47191e-08
-2.4136e-07
-3.3668e-06
9.97614e-07
0.000188508
7.66693e-07
2.98791e-07
1.8997e-06
4.80844e-07
-1.83807e-06
-2.97563e-06
-1.17609e-06
-5.00946e-05
-2.95571e-06
1.77469e-07
4.95057e-05
-1.49572e-05
-5.88421e-07
-4.3131e-07
1.59769e-05
2.34577e-06
-6.42477e-05
-2.46986e-06
-4.32781e-06
4.22434e-06
6.44752e-05
-5.09559e-06
8.8992e-06
0.000220042
3.73477e-06
2.18197e-06
4.43785e-06
3.21927e-06
6.44908e-06
3.31014e-06
0.000134581
1.88501e-06
1.01434e-06
0.000168868
-1.07036e-06
1.79327e-06
-8.83136e-07
1.52673e-06
1.97268e-06
1.78544e-06
-5.26695e-05
4.28789e-07
-2.95987e-08
8.55693e-07
5.32997e-05
-5.78013e-05
3.46292e-07
-1.43167e-07
3.237e-06
5.95154e-05
-5.15418e-06
-5.12288e-07
3.81228e-06
0.000209738
-5.53113e-07
-3.02443e-07
3.74146e-07
-1.04228e-06
5.21387e-06
2.88217e-06
3.80997e-06
3.20154e-06
6.69494e-07
0.000122049
-4.71369e-07
3.90641e-06
-4.76325e-07
-2.27161e-06
5.1794e-07
-1.67253e-06
-3.28213e-05
4.69251e-06
9.49328e-07
3.13953e-05
-7.30706e-06
1.62333e-06
-3.2043e-06
8.88734e-06
-3.49517e-05
-3.82217e-06
5.17284e-06
3.74124e-05
-3.10824e-05
-3.72602e-06
4.65934e-06
-2.96716e-06
3.37857e-05
-3.21672e-06
1.23893e-06
-1.70556e-06
3.68322e-06
-8.54706e-06
-3.39212e-07
-1.6732e-07
9.05461e-06
-3.45194e-05
4.03888e-06
-2.22055e-06
3.27027e-05
-9.15554e-07
-3.19042e-06
-2.94828e-05
2.10221e-06
2.11213e-06
2.93744e-05
-4.0195e-07
-2.62133e-05
-2.00093e-06
1.05834e-06
9.22777e-07
2.66351e-05
-6.20988e-05
-9.45754e-07
1.41656e-06
-8.70682e-07
6.1969e-05
5.29692e-07
7.38276e-07
-7.97566e-07
-3.37382e-05
6.98268e-07
2.14286e-07
3.28849e-05
5.85061e-06
5.58071e-06
0.000171022
-1.54747e-06
-1.45259e-06
-1.40763e-06
-9.23671e-07
-1.14291e-06
-4.99945e-07
-6.68416e-07
8.98105e-07
3.94533e-07
6.63621e-06
0.000130409
-1.46475e-06
-1.37874e-06
-1.0668e-06
-2.30201e-07
-2.65334e-06
8.6596e-07
0.000192697
3.80569e-07
1.45644e-07
1.57855e-06
3.08445e-07
-1.2524e-06
-2.18917e-06
-9.78354e-07
-4.87839e-05
-2.79116e-06
7.10763e-07
4.82111e-05
-1.62641e-05
6.24339e-08
-9.71754e-08
1.62982e-05
1.27631e-06
-6.44227e-05
-2.83469e-06
-2.23542e-06
3.89373e-06
6.43228e-05
-5.82051e-06
8.25366e-06
0.00021325
2.21776e-06
1.3849e-06
3.50232e-06
2.83476e-06
4.41687e-06
1.0012e-06
0.000129979
1.16635e-06
5.58376e-07
0.000169477
-1.3908e-06
1.17889e-06
-1.03348e-06
1.28148e-06
1.53456e-06
1.37834e-06
-5.41534e-05
7.27726e-08
-2.49448e-07
8.3577e-07
5.46606e-05
-6.10006e-05
-6.12574e-07
9.28763e-07
3.1129e-06
6.19365e-05
-4.36497e-06
-1.94468e-06
2.72896e-06
0.000210677
-1.05471e-06
-1.12749e-06
5.75768e-07
-9.72216e-07
3.07477e-06
2.93672e-06
3.09758e-06
2.18389e-06
-3.15821e-08
0.000118792
-9.1903e-07
2.92612e-06
-4.21633e-07
-1.24615e-06
1.43592e-07
-3.21067e-07
-3.1961e-05
3.74604e-06
5.9033e-07
3.03669e-05
-1.0184e-05
1.76901e-06
-2.79747e-06
1.12124e-05
-3.86348e-05
-3.42143e-06
5.13297e-06
3.9653e-05
-3.61967e-05
-4.03211e-06
5.47348e-06
-3.07715e-06
3.78009e-05
-4.65788e-06
1.23231e-06
-2.47803e-06
5.90359e-06
-9.76076e-06
-1.17365e-07
-6.82057e-07
1.05602e-05
-3.1028e-05
2.83428e-06
-1.5554e-06
2.97492e-05
-1.30135e-06
-2.8779e-06
-2.91552e-05
2.47823e-06
2.25702e-06
2.85992e-05
-4.94826e-07
-2.69233e-05
-2.25105e-06
1.00641e-06
1.67837e-06
2.69844e-05
-6.18448e-05
-1.03696e-06
1.78934e-06
-7.16559e-07
6.14893e-05
3.1967e-07
4.77816e-07
-6.04545e-07
-3.23424e-05
2.34923e-07
2.28475e-07
3.20057e-05
7.45726e-06
5.28178e-06
0.000168472
-1.8731e-06
-2.32218e-06
-1.8349e-06
-1.72463e-06
-1.03262e-06
-1.08253e-06
-6.14542e-07
2.95793e-07
1.26248e-06
6.52543e-06
0.000134897
-2.25331e-06
-1.14972e-06
-1.43477e-06
1.9659e-08
-2.0467e-06
8.26174e-07
0.000197044
2.48801e-07
7.70668e-08
1.55014e-06
2.76462e-07
-1.16978e-06
-1.91197e-06
-9.34722e-07
-4.81635e-05
-2.84026e-06
7.05366e-07
4.82518e-05
-1.64728e-05
5.55386e-07
-5.41392e-07
1.64588e-05
1.33961e-06
-6.45141e-05
-2.58599e-06
-2.20709e-06
3.56345e-06
6.44041e-05
-3.42292e-06
7.61345e-06
0.000204934
1.64399e-06
1.26814e-06
3.42126e-06
3.07431e-06
3.02876e-06
-6.54447e-07
0.000130707
4.9002e-07
1.61488e-07
0.000171284
-1.28058e-06
6.58511e-07
-1.05912e-06
9.68782e-07
1.14306e-06
9.65715e-07
-5.53761e-05
-8.56638e-08
-2.16349e-07
6.22705e-07
5.55454e-05
-6.30843e-05
-9.29772e-08
6.1735e-07
2.60324e-06
6.37788e-05
-3.82216e-06
-6.8768e-07
2.94445e-06
0.000208231
-8.09557e-07
-1.02749e-06
1.00216e-06
-7.84873e-07
2.83774e-06
3.1791e-06
3.40638e-06
1.42499e-06
-4.75769e-07
0.000116353
-3.7209e-07
2.07299e-06
1.99291e-08
-7.97322e-07
-2.52881e-07
-5.22785e-07
-3.09598e-05
3.01307e-06
-2.89729e-07
2.9823e-05
-1.23095e-05
1.88149e-06
-2.78655e-06
1.32142e-05
-4.08479e-05
-3.15858e-06
5.03599e-06
4.19149e-05
-3.97977e-05
-4.29741e-06
5.66326e-06
-2.84496e-06
4.0801e-05
-7.12566e-06
1.90273e-06
-3.04503e-06
8.26802e-06
-1.1133e-05
4.16134e-07
-7.49594e-07
1.14672e-05
-2.90931e-05
7.74932e-07
-6.49909e-07
2.89681e-05
-1.92057e-06
-2.04553e-06
-2.73793e-05
2.84822e-06
2.91014e-06
2.5587e-05
-4.76497e-07
-2.71904e-05
-1.99013e-06
9.24531e-07
1.78544e-06
2.69471e-05
-6.129e-05
-8.85074e-07
1.85719e-06
-5.41518e-07
6.06356e-05
2.23792e-07
-5.16606e-07
-5.84324e-07
-3.25034e-05
-4.01797e-07
3.42378e-07
3.36637e-05
7.74369e-06
6.05968e-06
0.000169187
-2.59052e-06
-2.89576e-06
-2.71894e-06
-2.08655e-06
-1.15196e-06
-1.92565e-06
-8.31653e-07
-3.17311e-07
4.84107e-07
5.74722e-06
0.00014025
-2.18252e-06
-8.35895e-07
-1.16996e-06
3.47526e-07
-1.74175e-06
1.00027e-06
0.000199288
2.78061e-07
1.38233e-07
1.56316e-06
3.76114e-07
-9.87261e-07
-1.60866e-06
-7.78541e-07
-4.8339e-05
-2.77314e-06
7.47069e-07
4.86226e-05
-1.64474e-05
8.56973e-07
-9.40135e-07
1.65307e-05
1.56707e-06
-6.44348e-05
-2.35473e-06
-1.97285e-06
3.14038e-06
6.40549e-05
-2.37305e-06
7.06566e-06
0.000197902
1.38796e-06
1.14329e-06
2.98002e-06
2.88743e-06
1.03565e-06
-1.8054e-06
0.000134851
-2.81423e-07
1.78646e-07
0.000173636
-1.71662e-06
-2.74053e-07
-1.52405e-06
8.81987e-07
1.41179e-06
1.00803e-06
-5.60391e-05
-3.43742e-07
-9.68424e-07
1.51775e-06
5.55521e-05
-6.47474e-05
-4.71075e-08
4.43711e-07
2.29809e-06
6.53567e-05
-3.30405e-06
-6.11606e-07
2.78236e-06
0.000205288
-5.61944e-07
-9.41548e-07
1.04404e-06
-7.48649e-07
3.05346e-06
2.75994e-06
3.23178e-06
5.25756e-07
-5.67511e-07
0.000114824
-1.53514e-07
1.05112e-06
1.80121e-07
-7.51836e-07
-5.25888e-07
-6.46886e-07
-3.0587e-05
2.19938e-06
-6.3618e-07
2.97282e-05
-1.42765e-05
1.50181e-06
-2.38854e-06
1.51632e-05
-4.29674e-05
-2.56577e-06
4.71871e-06
4.35965e-05
-4.19423e-05
-4.10332e-06
5.0413e-06
-2.22888e-06
4.26657e-05
-9.1934e-06
2.07429e-06
-2.827e-06
9.94558e-06
-1.16058e-05
1.17066e-06
-9.91233e-07
1.14264e-05
-2.87219e-05
1.15061e-07
1.248e-07
2.84821e-05
-1.70661e-06
-2.57244e-06
-2.40302e-05
1.95212e-06
3.25672e-06
2.31004e-05
-3.26317e-07
-2.65426e-05
-9.78125e-07
5.3159e-07
1.36088e-06
2.59546e-05
-5.99199e-05
-6.50643e-07
1.68649e-06
-5.27268e-07
5.89897e-05
4.21692e-07
-9.67184e-07
-1.44256e-07
-3.51575e-05
-6.4003e-07
5.3928e-07
3.63697e-05
5.75488e-06
6.42457e-06
0.000171736
-3.07944e-06
-2.72703e-06
-2.80008e-06
-1.46114e-06
-1.12676e-06
-2.11271e-06
-1.00602e-06
-4.15552e-07
-1.18235e-06
4.0684e-06
0.000144322
-1.42296e-06
-3.53485e-07
-1.4795e-07
7.20998e-07
-1.65345e-06
8.87516e-07
0.000199953
3.4284e-07
2.17797e-07
1.75422e-06
4.08387e-07
-1.17806e-06
-1.57891e-06
-1.0474e-06
-4.90036e-05
-2.64747e-06
8.85536e-07
4.91126e-05
-1.65801e-05
1.18556e-06
-1.32134e-06
1.67164e-05
1.76909e-06
-6.36002e-05
-2.20916e-06
-1.73317e-06
2.84613e-06
6.29273e-05
-2.35268e-06
6.38589e-06
0.00019359
9.1041e-07
8.33816e-07
2.51003e-06
2.44882e-06
-4.23767e-07
-2.35597e-06
0.000139347
-9.69495e-07
2.47928e-07
0.000176031
-1.8218e-06
-8.42759e-07
-1.59738e-06
7.46834e-07
1.38017e-06
9.24986e-07
-5.52171e-05
-6.70751e-07
-2.56657e-06
3.07797e-06
5.44069e-05
-6.63362e-05
1.47811e-07
2.55844e-07
1.81823e-06
6.70265e-05
-2.91225e-06
-1.05469e-06
2.48533e-06
0.000203374
-5.26294e-07
-9.40481e-07
1.07825e-06
-7.63459e-07
2.75245e-06
2.41387e-06
2.85536e-06
-9.47651e-07
-7.15241e-07
0.000115286
-8.31851e-08
-1.85287e-07