/*--------------------------------*- C++ -*----------------------------------*\
| =========                 |                                                 |
| \\      /  F ield         | OpenFOAM: The Open Source CFD Toolbox           |
|  \\    /   O peration     | Version:  5.x                                   |
|   \\  /    A nd           | Web:      www.OpenFOAM.org                      |
|    \\/     M anipulation  |                                                 |
\*---------------------------------------------------------------------------*/
FoamFile
{
    version     2.0;
    format      ascii;
    class       volVectorField;
    location    "1";
    object      U;
}
// * * * * * * * * * * * * * * * * * * * * * * * * * * * * * * * * * * * * * //

dimensions      [0 1 -1 0 0 0 0];

internalField   nonuniform List<vector> 
10571
(
(-0.154186 0.16142 1.07047)
(0.204094 0.0308854 0.929231)
(0.58171 0.447394 1.5012)
(-0.274765 0.345849 1.95463)
(-0.385571 0.00725001 1.16714)
(1.37652 0.707334 1.66502)
(3.08012 1.37559 4.48691)
(0.42774 0.199182 3.55341)
(-0.38835 0.722814 3.97611)
(-0.308316 0.278125 1.70933)
(-0.00171941 -0.442132 2.92364)
(1.6107 0.233864 2.65934)
(1.93115 0.131669 3.96633)
(0.147021 0.0265696 3.43438)
(-0.345092 -0.292611 3.27949)
(-0.359493 -0.763776 3.00053)
(1.01471 -0.329087 1.96938)
(1.14348 -1.19933 3.56489)
(-0.248636 -0.806113 2.29993)
(-0.0823213 -0.554615 1.725)
(-0.201247 -0.138129 1.04968)
(0.343006 -0.0182501 1.27833)
(-0.53731 1.19101 3.44856)
(-0.362626 0.211465 1.69592)
(-0.104571 -0.0567572 2.12073)
(0.0641819 -0.110432 0.560232)
(0.239866 -0.204834 2.28874)
(-0.442397 -1.4658 2.33768)
(-0.691688 -0.922337 0.819811)
(0.547533 -0.121806 0.714919)
(0.419763 -0.674306 3.75036)
(-0.58746 -0.928542 3.33735)
(-0.201252 -0.468531 3.20415)
(0.130451 -0.0993989 0.548192)
(0.253587 -0.00232212 0.6364)
(0.878251 -0.117196 1.3196)
(1.07012 -1.15915 4.5505)
(0.0861704 -0.243821 3.93888)
(0.024346 0.814018 3.40279)
(-0.123388 0.469515 1.37618)
(0.0614463 -0.199621 0.435392)
(0.0272622 -1.31946 2.07335)
(0.421413 -1.03052 1.46448)
(0.275267 -0.458882 1.70398)
(-0.0121328 0.150153 0.291225)
(-0.931516 -0.734715 1.01356)
(-0.915686 -0.187843 3.37504)
(0.15322 -0.114449 -0.193343)
(0.051458 -0.0439423 2.70538)
(-1.11381 0.391433 1.48451)
(-0.120121 -0.190865 1.53753)
(0.0364394 -0.985921 3.04439)
(-0.444341 -0.931214 1.76837)
(-0.304584 -0.363225 1.43507)
(-0.402818 -1.04191 3.85127)
(-0.549834 -0.773693 2.19465)
(-0.257865 -0.317378 0.614576)
(-0.099916 -0.309379 1.3718)
(-0.055467 -0.0619095 0.19952)
(-0.475348 -0.181883 1.081)
(-0.405601 -1.38078 4.51891)
(-0.18111 -0.581229 4.28505)
(-0.095952 0.249768 1.87782)
(-0.204193 0.560581 1.34405)
(-0.303658 -0.223171 0.311611)
(-0.358517 -0.904073 1.69897)
(0.265152 -1.05697 1.53118)
(0.0560581 -0.372294 2.69741)
(0.0213759 0.420789 1.07937)
(-0.222434 -0.217205 0.189572)
(0.721259 -1.5881 1.25617)
(0.141037 -0.0666521 -0.209963)
(0.463687 0.072137 3.10665)
(-1.11597 0.759922 1.96744)
(-1.12455 0.27181 1.45864)
(0.549992 -0.403586 3.61339)
(0.284383 0.135875 2.26973)
(-0.847728 -0.502502 2.36931)
(-0.499063 -0.833284 3.4111)
(-0.276894 -0.714295 3.08684)
(-0.270946 -0.089352 1.77726)
(-0.104827 -0.155164 1.41874)
(-0.251232 -0.3923 1.04435)
(-0.608428 -0.178279 0.681816)
(-0.499395 -0.758766 3.70946)
(0.0464353 -0.562718 3.22705)
(-0.104882 -0.607757 2.77779)
(-0.0951211 -0.259264 0.866449)
(-0.29043 0.124967 0.816565)
(-0.214214 -0.0523936 0.848035)
(-0.302025 -0.486433 1.81274)
(-0.79365 -0.085269 3.09532)
(0.0591261 -0.358513 1.14862)
(-0.0523552 -0.023232 -0.0343983)
(0.183835 -0.162465 0.168954)
(0.123205 -0.0676221 -0.0353053)
(1.36681 0.268028 2.66504)
(-0.369237 0.455137 2.01784)
(-0.62303 0.403262 0.427945)
(1.28097 0.534525 3.85594)
(0.957612 0.987985 2.98253)
(-0.993374 -0.143461 3.16487)
(-0.668838 -0.265152 3.54828)
(-0.577466 -0.283251 3.21555)
(-0.172522 0.537626 1.31171)
(-0.138519 0.0753184 1.2543)
(0.0596722 -0.357641 1.50351)
(0.326261 -0.249386 1.07091)
(-0.425226 0.0632421 2.46015)
(-0.128916 -0.42579 3.69086)
(-0.452928 -0.282187 2.91825)
(-0.209891 -0.0999158 0.32325)
(0.241718 0.0453963 0.839945)
(-0.32182 0.166225 1.34344)
(-0.219212 -0.116895 1.26183)
(-0.514745 -0.155696 2.51457)
(0.0144168 -0.0309579 0.82274)
(-0.0699278 -0.056772 0.130927)
(0.0318659 -0.0164883 -0.0862484)
(0.102545 -0.048865 -0.0901326)
(0.303243 0.131918 0.530653)
(-0.0460702 0.103046 2.53195)
(-1.03728 0.314303 0.524846)
(0.852238 2.17015 3.05091)
(1.75534 1.43534 3.27784)
(-1.00607 -0.20569 3.72939)
(-0.83012 0.303903 2.96644)
(-0.634845 1.13607 3.5134)
(0.411934 0.893146 1.74032)
(0.0891777 0.341471 1.31962)
(0.0229755 0.000216036 0.0125218)
(0.186096 0.243811 0.501263)
(0.843919 -0.235171 1.73647)
(-0.435266 0.219616 2.99965)
(-0.399806 -0.0758027 3.44722)
(-0.274124 0.119618 2.87646)
(-0.397014 -0.0765116 0.364425)
(0.0436908 0.000792478 0.0107748)
(0.13654 0.447106 0.79793)
(-0.256987 -0.0613323 1.43485)
(-0.24907 0.059258 1.23543)
(-0.434539 -0.157283 2.86675)
(0.0101811 0.083544 0.20965)
(0.185696 -0.0950247 0.104485)
(0.03666 0.00333699 -0.120753)
(0.064686 -0.0321137 -0.18818)
(0.0914926 -0.0251927 0.125848)
(0.272225 -0.246297 3.0082)
(0.210049 0.0990771 0.241295)
(0.0165722 -0.0591481 0.449678)
(0.544637 0.459605 1.93868)
(-0.865491 -0.146648 4.02111)
(-1.16823 0.399321 3.24346)
(-0.577531 1.01209 3.60348)
(0.796882 0.180374 1.80273)
(0.829055 -0.0523885 1.58749)
(-0.0442293 0.00158177 0.0182164)
(0.0826242 0.355466 0.14449)
(0.757619 0.189488 2.12323)
(-0.614043 0.238984 3.02759)
(-0.704521 0.710728 3.73602)
(0.00664219 0.0822112 2.89649)
(0.707717 -0.0487941 0.988283)
(0.00496295 -0.0295729 0.0384809)
(0.110171 0.439588 0.896859)
(-0.119582 0.0375635 1.53784)
(-0.44799 0.125766 1.33958)
(-0.47901 0.0995315 2.33257)
(0.111215 -0.0399383 -0.0465497)
(0.111624 0.015492 0.0271608)
(0.23923 -0.000426597 0.0907391)
(-0.0531862 -0.0233656 -0.0791607)
(0.0314549 -0.0200416 -0.170488)
(0.168923 0.0424765 0.360421)
(0.447832 -0.503518 3.21373)
(0.831603 -0.182023 0.467656)
(0.0777224 -0.416739 0.119645)
(0.199896 -0.261112 1.89815)
(-0.676166 -0.0795652 4.06494)
(-1.17184 0.253519 3.1841)
(-0.0311051 0.291784 1.63723)
(0.564292 -0.0842139 1.03624)
(0.67354 -0.0166544 1.59154)
(0.0286694 0.000442045 0.441791)
(0.110841 0.406259 0.0996731)
(0.603567 0.602342 2.33978)
(-0.807346 0.415708 3.15858)
(-0.638593 0.89186 3.57948)
(0.317886 0.024555 2.00412)
(0.377934 -0.193327 0.590386)
(0.0847263 -0.187821 0.426176)
(0.224905 0.450748 0.969657)
(-0.256131 0.254187 1.74364)
(-0.598769 0.511892 1.84245)
(-0.379674 0.302665 2.17299)
(0.120621 0.00545116 -0.0114481)
(0.0226159 -0.0178546 0.173762)
(0.260895 0.0582569 0.294534)
(-0.114785 0.0161688 0.0017027)
(0.0425946 -0.0176336 -0.14318)
(0.163194 0.0439562 0.697498)
(0.332629 -0.556303 3.12912)
(0.57597 -0.31792 0.510216)
(0.164737 -0.0776768 0.351949)
(0.0565047 -0.2027 2.06411)
(-0.351452 -0.0177145 3.75665)
(-0.552279 0.0321711 2.6314)
(0.316312 -0.30247 1.42767)
(0.211977 -0.224849 1.49977)
(0.0209826 -0.0669403 2.03978)
(-0.191874 0.258642 0.497639)
(-0.00103998 0.351785 0.215535)
(0.319435 0.834212 2.47137)
(-0.830073 0.383159 3.52522)
(-0.273669 0.431789 2.88056)
(0.556622 -0.18546 1.62168)
(0.413365 -0.229653 1.18268)
(-0.309093 -0.0838734 0.469698)
(0.0649891 0.42418 1.0321)
(-0.487362 0.58883 2.52832)
(-0.329274 0.635439 1.88638)
(0.397128 0.329377 1.97556)
(0.0866543 -0.0789232 0.082356)
(0.19575 0.118297 0.531545)
(-0.187522 0.137023 0.367092)
(0.0636807 -0.000647201 -0.0586407)
(0.229928 0.0404914 0.91912)
(0.544265 -0.758537 3.32192)
(0.769446 -0.406503 1.0112)
(0.191207 0.0517785 0.657363)
(-0.0219722 -0.155661 2.21279)
(0.00385764 0.041664 2.62489)
(0.125594 -0.247515 1.94951)
(0.307721 -0.354696 1.31319)
(-0.0380026 -0.11667 1.70967)
(-0.683183 -0.0381814 2.5816)
(-0.155209 0.916644 1.152)
(-0.101987 0.917063 2.77778)
(-0.574478 0.257504 2.91499)
(0.137724 0.0981334 1.64753)
(0.602158 -0.0685588 1.82195)
(-0.566393 -0.12296 1.80198)
(-0.0763137 0.506749 1.44846)
(-0.381739 0.612779 2.42441)
(0.137941 0.375836 1.32558)
(0.48232 0.245588 1.51829)
(0.102249 -0.191676 0.203125)
(0.170358 0.263257 1.04116)
(0.208766 0.169469 0.695254)
(0.110446 -0.0465046 0.0560621)
(0.163734 0.0221018 1.08811)
(0.482428 -0.586109 3.14515)
(0.288264 -0.0584953 1.11915)
(0.238057 0.0460266 0.937843)
(-0.0659069 -0.120494 2.33848)
(-0.0510655 -0.0229886 2.13478)
(0.0893626 -0.174162 1.99282)
(0.14484 -0.146116 1.28536)
(-0.0433096 -0.0446549 1.87814)
(-0.491986 0.0248041 2.64738)
(-0.0352751 0.48391 1.98071)
(-0.34549 0.402966 2.95374)
(-0.112274 0.0554408 2.50301)
(0.103116 0.118386 1.7071)
(0.456331 -0.00355583 1.85762)
(0.0289931 -0.270803 2.0511)
(-0.240256 0.483021 2.13496)
(-0.0847858 0.472412 2.30273)
(0.174077 0.10413 1.47729)
(0.514382 0.225225 1.44504)
(0.173015 -0.350033 0.370861)
(0.262149 0.306826 1.48174)
(0.322257 0.156126 1.04371)
(0.181656 -0.0655392 0.245082)
(0.10239 0.00819062 1.154)
(0.273339 -0.318056 2.68001)
(0.148106 0.0968853 1.28625)
(0.186179 0.0431835 1.07796)
(-0.0873021 -0.101372 2.39844)
(0.0530559 -0.0809422 1.48906)
(0.0663562 -0.0446929 1.83509)
(0.0353285 0.083617 1.26393)
(-0.0648968 -0.0168664 1.97218)
(-0.337487 0.0682789 2.50001)
(-0.0699688 0.206703 2.27823)
(-0.238252 0.208906 2.89505)
(-0.102995 0.0931064 2.44617)
(-0.0404279 0.122812 1.43085)
(0.277544 0.045532 1.79551)
(0.0604032 -0.111186 2.11433)
(-0.0959996 0.392838 2.31479)
(-0.102484 0.241961 2.36237)
(0.0953373 0.0153122 1.30296)
(0.362315 0.16748 1.37188)
(0.148857 -0.307985 0.710391)
(0.298593 0.301144 1.91318)
(0.436769 0.0876647 1.28763)
(0.141121 -0.100954 0.309894)
(0.0507427 -0.0044203 1.23741)
(0.219707 -0.21763 2.45063)
(0.162321 0.128985 1.29927)
(0.153449 0.0766649 1.16962)
(-0.0607354 -0.0483867 2.41843)
(0.061868 -0.117766 1.47091)
(0.112363 0.0446477 1.6601)
(0.0692631 0.126706 1.28467)
(-0.0486413 -0.0040866 2.03066)
(-0.2699 0.120564 2.44195)
(-0.0133934 0.0951496 2.3206)
(-0.0947519 0.241782 2.83676)
(-0.10121 0.116425 2.20209)
(-0.0783441 0.0910499 1.2794)
(0.217891 0.0294934 1.78514)
(0.0244188 -0.0364825 2.13536)
(0.0127858 0.330673 2.44319)
(-0.109741 0.193808 2.24716)
(0.0410217 -0.0480362 1.21881)
(0.277476 0.123772 1.34704)
(0.133976 -0.284861 0.964698)
(0.318057 0.193674 1.98151)
(0.474398 0.0575779 1.47537)
(0.181292 -0.0757809 0.477169)
(0.00655615 -0.0225626 1.45694)
(0.142686 -0.166285 2.24684)
(0.183089 0.14546 1.26806)
(0.134936 0.100344 1.18136)
(-0.0554108 -0.0292556 2.41296)
(0.00786861 -0.0992296 1.41934)
(0.151514 0.0814282 1.67288)
(0.088107 0.12689 1.32408)
(-0.0371064 0.00325919 2.06209)
(-0.20728 0.131013 2.45064)
(-0.0105782 -0.00780613 2.38102)
(-0.0921807 0.238681 2.84452)
(-0.0756411 0.0839573 2.02522)
(-0.0522277 0.0875364 1.29055)
(0.160797 0.0216162 1.8041)
(-0.0184349 0.0112062 2.17678)
(-0.00274829 0.27201 2.46027)
(-0.0881966 0.19509 2.16564)
(0.0555737 -0.101658 1.24355)
(0.189851 0.0779371 1.29767)
(0.142064 -0.258569 1.14228)
(0.313779 0.193472 2.06861)
(0.491776 0.0381382 1.59907)
(0.231943 -0.0801434 0.699246)
(-0.0703409 -0.00588774 1.61111)
(0.0832868 -0.122852 2.11052)
(0.251035 0.216148 1.15424)
(0.105514 0.11129 1.19452)
(-0.0650876 -0.0104143 2.38849)
(-0.0355382 -0.0298456 1.44196)
(0.205573 0.136635 1.68895)
(0.0689847 0.11718 1.38041)
(-0.0491156 -0.0139099 2.08217)
(-0.168951 0.137524 2.43858)
(-0.0160609 -0.0658943 2.37411)
(-0.096601 0.242525 2.83301)
(-0.0546833 0.0602816 2.00867)
(-0.0339931 0.0714473 1.348)
(0.0736304 0.0463247 1.82066)
(-0.049761 0.0737238 2.21081)
(0.00423044 0.233913 2.54902)
(-0.0810516 0.190754 2.1666)
(0.0523151 -0.128986 1.22019)
(0.0920998 0.0653969 1.30007)
(0.104543 -0.240747 1.36229)
(0.282117 0.197418 2.17251)
(0.468103 0.0513213 1.6641)
(0.231121 -0.0744899 0.85913)
(-0.16293 0.00281548 1.66616)
(-0.0443457 -0.0944191 2.08402)
(0.225358 0.213314 1.01604)
(0.0557611 0.105749 1.15547)
(-0.0886749 -0.00676993 2.33627)
(-0.0694479 0.00477119 1.56907)
(0.197501 0.163768 1.70122)
(0.00749627 0.0810884 1.43903)
(-0.0493367 -0.0330607 2.11004)
(-0.149268 0.15011 2.48316)
(-0.0352023 -0.0862546 2.3743)
(-0.0957971 0.234841 2.77566)
(-0.0218423 0.0458179 1.98199)
(-0.0601259 0.0516782 1.39903)
(0.0486584 0.0658968 1.84765)
(-0.10906 0.140489 2.15099)
(-0.00373425 0.202703 2.62953)
(-0.0718487 0.176659 2.16272)
(0.0271178 -0.131498 1.20799)
(-0.0456861 0.0608793 1.32183)
(-0.0441883 -0.128157 1.46802)
(0.24607 0.179683 2.25642)
(0.408187 0.0328612 1.70025)
(0.228658 -0.0739293 1.00473)
(-0.232025 0.000140304 1.55307)
(-0.0486127 0.0448083 2.02192)
(0.0309404 0.182806 0.974778)
(0.0499456 0.101701 1.10869)
(-0.0899178 0.0129178 2.27781)
(-0.0647316 0.0959229 1.68694)
(0.157368 0.156506 1.72173)
(-0.0484668 0.0314297 1.45569)
(-0.0370775 -0.0415072 2.10759)
(-0.13748 0.155271 2.46693)
(-0.0512824 -0.0982835 2.45558)
(-0.105095 0.200044 2.73082)
(-0.00286328 0.0152177 1.94137)
(-0.0923414 0.0476476 1.43175)
(0.0211577 0.0749441 1.87419)
(-0.0976885 0.109647 2.09725)
(-0.0172229 0.178786 2.64386)
(-0.0716958 0.151747 2.14653)
(0.0088756 -0.126277 1.22328)
(-0.135203 0.0371766 1.34449)
(-0.0990451 -0.012509 1.53839)
(0.224031 0.172147 2.29354)
(0.374327 0.0463297 1.74303)
(0.225257 -0.080754 1.06736)
(-0.234926 -0.0184936 1.44675)
(-0.0885878 0.194217 1.58072)
(-0.0704235 0.161408 0.962281)
(0.043337 0.0614133 1.08617)
(-0.0876853 0.0208715 2.24189)
(-0.0243833 0.181613 1.7996)
(0.0821502 0.0796397 1.74476)
(-0.0759914 0.00969734 1.46084)
(-0.024861 -0.045205 2.07104)
(-0.122148 0.15039 2.39963)
(-0.0608078 -0.0960572 2.46184)
(-0.095473 0.176375 2.71635)
(-0.0112698 -0.00603846 1.90686)
(-0.121237 0.0500893 1.46822)
(-0.00164359 0.0775195 1.85961)
(-0.0718914 0.0724632 1.94019)
(-0.0377511 0.152445 2.67469)
(-0.0769107 0.116467 2.09305)
(-0.010881 -0.120097 1.24595)
(-0.177931 0.0238469 1.39998)
(-0.0951995 -0.0119127 1.55795)
(0.221344 0.153685 2.34693)
(0.347667 0.0591162 1.80027)
(0.22558 -0.0997755 1.14545)
(-0.207911 -0.0455813 1.36036)
(-0.165659 0.0632048 1.4539)
(-0.0376796 0.14411 0.952042)
(0.0477204 -0.0555951 1.10253)
(-0.093322 0.0122227 2.22794)
(0.100078 0.0469699 1.88506)
(0.0714625 -0.00787215 1.73568)
(-0.0734265 0.00859841 1.44347)
(-0.0460705 -0.0519272 2.02303)
(-0.124934 0.108515 2.37457)
(-0.0622071 -0.102655 2.49662)
(-0.102764 0.117443 2.69006)
(-0.0198555 0.00585778 1.87551)
(-0.151002 0.0684652 1.50915)
(-0.0145862 0.0917354 1.85587)
(-0.0388808 0.025205 1.83025)
(-0.0567257 0.127121 2.69588)
(-0.0680946 0.0939227 2.08673)
(-0.0269947 -0.105828 1.27237)
(-0.195538 0.0256142 1.4551)
(-0.0670936 -0.0365518 1.54727)
(0.222023 0.113117 2.37017)
(0.349094 0.0715229 1.82371)
(0.221006 -0.11352 1.1456)
(-0.178612 -0.0538081 1.38062)
(-0.0627928 -0.127061 1.69247)
(0.117672 0.076137 1.00183)
(0.0888315 -0.155888 1.16053)
(-0.0950246 -0.0152837 2.20518)
(0.148579 -0.0794289 1.80944)
(0.142795 -0.0496842 1.69538)
(-0.017222 0.00181592 1.4258)
(-0.0536175 -0.0444446 1.94806)
(-0.125304 0.0963218 2.33375)
(-0.0489636 -0.118803 2.44531)
(-0.0975968 0.0827356 2.66495)
(-0.0113706 0.030019 1.85389)
(-0.177344 0.0849999 1.53417)
(-0.0408626 0.115421 1.83899)
(-0.0526102 0.0622558 1.78608)
(-0.0712609 0.0985555 2.70005)
(-0.0540703 0.0832808 2.08982)
(-0.048759 -0.0957211 1.34344)
(-0.20847 0.0376762 1.49914)
(0.00385067 -0.0812628 1.44565)
(0.223341 0.0811682 2.36649)
(0.329826 0.0900061 1.86398)
(0.227519 -0.13121 1.16672)
(-0.136024 -0.0614097 1.45507)
(0.0544349 -0.19581 1.90919)
(0.237809 0.0508127 1.11032)
(0.14243 -0.205121 1.24179)
(-0.0726393 -0.0447879 2.20381)
(0.135573 -0.108552 1.79292)
(0.270247 -0.062337 1.54934)
(0.103372 -0.0524739 1.43148)
(-0.0378199 -0.0380615 1.94301)
(-0.116501 0.0611452 2.29163)
(-0.0577629 -0.136422 2.4048)
(-0.109237 0.0191748 2.62402)
(0.015318 0.0319811 1.84587)
(-0.179617 0.0823292 1.57538)
(-0.0935695 0.114001 1.81289)
(-0.151544 0.0654779 1.62866)
(-0.0781843 0.0868444 2.69395)
(-0.0493776 0.0801562 2.11656)
(-0.0475478 -0.0822374 1.3921)
(-0.208789 0.0422702 1.50381)
(0.0392002 -0.0444342 1.48636)
(0.2276 0.0673892 2.34211)
(0.312867 0.071932 1.90782)
(0.235205 -0.145144 1.19982)
(-0.112067 -0.0622858 1.50717)
(0.142596 -0.185051 1.9212)
(0.310619 0.0460726 1.2341)
(0.173363 -0.230301 1.35252)
(-0.0631758 -0.0605566 2.24935)
(0.0691817 -0.120807 1.90421)
(0.336691 -0.046663 1.41506)
(0.174877 -0.132504 1.45701)
(-0.0332327 -0.0227187 1.93274)
(-0.0602768 0.0587154 2.33959)
(-0.0597346 -0.148338 2.42041)
(-0.121069 0.0333897 2.54473)
(0.0594956 0.00370265 1.81946)
(-0.135323 0.0529784 1.59839)
(-0.123283 0.0724263 1.80767)
(-0.0693375 0.151389 1.37664)
(-0.0966927 0.0786695 2.66429)
(-0.00903689 0.0728992 2.17316)
(-0.0139862 -0.0829067 1.47637)
(-0.219091 0.0195707 1.51508)
(0.035071 -0.0181371 1.54988)
(0.227781 0.0584702 2.29435)
(0.311061 0.0499691 1.92925)
(0.255709 -0.157233 1.25614)
(-0.112589 -0.0836393 1.681)
(0.310503 -0.200953 1.61221)
(0.281952 0.0292135 1.36617)
(0.189156 -0.2527 1.46945)
(-0.0719025 -0.0935687 2.33544)
(0.0667463 -0.0916884 1.98268)
(0.333671 -0.03256 1.34154)
(0.175075 -0.239387 1.52016)
(-0.0894968 -0.00024895 1.94959)
(-0.0387699 0.00580969 2.298)
(-0.0677623 -0.172151 2.42573)
(-0.198236 0.0174439 2.4381)
(0.135792 -0.0336409 1.76698)
(0.00250932 -0.0252276 1.62946)
(-0.102404 0.0150134 1.79652)
(0.0324699 0.30009 1.29163)
(-0.0922124 0.0841282 2.62716)
(0.0538069 0.0389705 2.16725)
(0.0862861 -0.115236 1.58231)
(-0.208259 -0.0145103 1.51672)
(0.0152163 -0.0521363 1.66552)
(0.215092 0.0409436 2.25839)
(0.321663 0.020167 1.90005)
(0.274421 -0.164427 1.31053)
(-0.0996528 -0.0784717 1.8814)
(0.315376 -0.188691 1.32885)
(0.170583 0.0439232 1.49592)
(0.107129 -0.330236 1.63749)
(-0.120242 -0.0725558 2.48217)
(0.221837 -0.0479473 1.93449)
(0.314792 -0.0294157 1.35803)
(0.0805833 -0.298635 1.5907)
(-0.195518 -0.00277046 1.92204)
(-0.167736 0.24192 1.92867)
(-0.0657248 -0.180646 2.49787)
(-0.186128 -0.0625215 2.32869)
(0.194822 -0.0300909 1.68539)
(0.112015 -0.0716504 1.64041)
(0.00758165 -0.0775912 1.82963)
(0.0645638 0.302684 1.416)
(-0.120575 0.0728528 2.59238)
(0.119294 -0.00811081 2.1562)
(0.195938 -0.127907 1.63812)
(-0.0819785 -0.0606145 1.55299)
(0.0473995 -0.151343 1.6796)
(0.196561 -0.0681271 2.13644)
(0.378088 -0.0441469 1.78088)
(0.286846 -0.166172 1.37079)
(-0.0775433 -0.0614017 2.00435)
(0.118426 -0.0663869 1.37536)
(0.0632535 -0.0357496 1.60033)
(-0.139646 -0.392995 1.89477)
(-0.256914 -0.147147 2.57788)
(0.39378 0.0481199 1.70593)
(0.183268 -0.00624043 1.42238)
(-0.0518485 -0.252071 1.64256)
(-0.195222 -0.042663 1.89667)
(-0.030008 0.248313 1.48601)
(-0.0360083 -0.166508 2.50715)
(-0.0456302 -0.0167331 2.2026)
(0.217384 0.00890369 1.64252)
(0.147657 -0.077258 1.6334)
(0.11603 -0.140284 1.85856)
(0.129456 -0.086046 1.76054)
(-0.105833 0.0181094 2.53654)
(0.179484 -0.0301552 2.11911)
(0.258544 -0.121128 1.70775)
(0.086284 -0.0912942 1.62997)
(0.103983 -0.153946 1.57407)
(0.181216 -0.0678373 1.83757)
(0.350331 -0.068136 1.70452)
(0.265242 -0.158443 1.41085)
(-0.091699 -0.0450291 2.08471)
(-0.0735084 0.0653672 1.47731)
(-0.0606499 -0.0927173 1.79459)
(-0.337302 -0.365403 2.17703)
(-0.407963 -0.268453 2.66817)
(0.276231 0.22466 1.52996)
(-0.0198304 0.0901126 1.45693)
(-0.128606 -0.0972112 1.606)
(-0.119605 -0.142368 1.78563)
(0.0858816 -0.111341 1.44963)
(-0.00610499 -0.0904108 2.48301)
(0.0580715 0.00648304 2.12673)
(0.188542 0.0511766 1.63848)
(0.132144 -0.0666509 1.6226)
(0.163637 -0.147593 1.86244)
(0.134166 -0.296485 1.91153)
(-0.106205 0.007943 2.49467)
(0.208329 -0.00930087 2.02848)
(0.271288 -0.0684797 1.73847)
(0.179171 -0.103816 1.68012)
(0.147833 -0.17963 1.54752)
(0.133377 0.0303005 1.60357)
(0.269813 -0.0456633 1.61237)
(0.222312 -0.132401 1.43684)
(-0.161189 -0.0478578 2.28412)
(-0.274854 0.212735 1.55889)
(-0.162112 -0.00183078 2.02036)
(-0.410369 -0.280484 2.35642)
(-0.390317 -0.291199 2.68221)
(0.0292715 0.322974 1.54291)
(-0.134911 0.222119 1.44809)
(-0.0870016 0.193226 1.4579)
(-0.0467553 -0.0955884 1.64692)
(0.075592 -0.311833 1.5345)
(0.00215289 -0.0720853 2.38231)
(0.138891 -0.0345499 2.11943)
(0.126605 0.115574 1.70231)
(0.0687564 0.0326799 1.62096)
(0.17323 -0.12834 1.84814)
(0.0996903 -0.341843 1.92319)
(-0.131533 -0.0757111 2.43913)
(0.209928 0.0304591 1.96107)
(0.258129 -0.0121344 1.75928)
(0.221474 -0.106331 1.72495)
(0.168922 -0.202238 1.56583)
(0.165994 0.0953843 1.53109)
(0.232115 -0.0305269 1.58577)
(0.201394 -0.112364 1.4475)
(-0.233943 -0.0451082 2.22279)
(-0.448971 0.354762 1.71392)
(-0.519628 0.22119 1.95366)
(-0.213162 0.0375018 2.37104)
(-0.299668 -0.191761 2.69077)
(-0.152777 0.383772 1.6741)
(-0.167385 0.312212 1.47158)
(-0.00394745 0.427305 1.38968)
(0.0290117 0.124223 1.6131)
(0.0511131 -0.349565 1.71223)
(0.00550469 -0.0795036 2.23807)
(0.209326 -0.0115296 2.16887)
(0.108427 0.163721 1.8449)
(0.0297221 0.167048 1.68912)
(0.161664 -0.0506999 1.85487)
(0.106158 -0.331964 1.951)
(0.0256297 -0.151188 2.26575)
(0.225538 0.076967 1.95079)
(0.253815 0.0291812 1.83193)
(0.248591 -0.0766521 1.77032)
(0.167661 -0.200668 1.62002)
(0.209054 0.124449 1.56374)
(0.229022 -0.0139015 1.58444)
(0.196009 -0.0933589 1.50845)
(-0.331098 -0.0625088 1.78292)
(-0.487092 0.418997 1.87623)
(-0.612348 0.346589 1.7798)
(-0.292298 0.431805 1.64137)
(0.11267 0.0128796 2.74441)
(-0.118399 0.391087 1.88264)
(-0.112354 0.317636 1.51653)
(0.0348194 0.490531 1.41163)
(0.0531258 0.306754 1.69831)
(0.0386566 -0.279058 1.79149)
(0.000977618 0.000155052 2.13876)
(0.24085 0.0759426 2.24736)
(0.157651 0.155965 1.93651)
(0.0552538 0.164906 1.81384)
(0.153783 0.0207332 1.92111)
(0.112816 -0.270725 1.99731)
(0.227323 0.0630222 2.02004)
(0.260594 0.124676 1.94275)
(0.266857 0.0425056 1.89367)
(0.259773 -0.0367456 1.84725)
(0.161812 -0.199645 1.69662)
(0.25254 0.135498 1.62223)
(0.241755 -0.00484208 1.64219)
(0.180549 -0.0801148 1.575)
(-0.0648666 -0.0293811 1.6165)
(-0.310102 0.325789 2.00323)
(-0.224762 0.324824 1.53863)
(-0.0901862 0.339056 1.15273)
(0.281975 0.398506 2.57668)
(0.0468028 0.288826 2.02157)
(0.0831247 0.293202 1.60237)
(0.0772023 0.407449 1.50378)
(0.0285041 0.321944 1.8307)
(0.0576738 -0.20368 1.97386)
(0.0192914 0.0158313 2.06713)
(0.223066 0.154719 2.25478)
(0.248526 0.134825 1.99418)
(0.132709 0.108156 1.95607)
(0.169031 -0.00805013 2.02847)
(0.131397 -0.229956 2.07202)
(0.245461 0.214839 1.85446)
(0.295775 0.15124 1.93384)
(0.301571 0.0523293 1.9677)
(0.279051 -0.032896 1.9373)
(0.154976 -0.208308 1.72812)
(0.270139 0.13194 1.68106)
(0.254331 0.00431148 1.73444)
(0.16976 -0.0780379 1.66079)
(0.0197531 0.0389784 1.24957)
(-0.123726 0.175534 1.80277)
(-0.00225127 0.18885 1.3559)
(0.0129318 0.253586 0.961922)
(0.0158207 0.345402 2.21286)
(0.104789 0.202953 2.02762)
(0.223211 0.270068 1.62557)
(0.209901 0.227533 1.65314)
(0.033028 0.135954 1.97374)
(0.0312625 -0.28829 2.15783)
(0.00901258 0.0259289 1.93429)
(0.234238 0.153564 2.22665)
(0.321471 0.139021 2.02138)
(0.232433 0.0926738 2.06662)
(0.206638 -0.091583 2.15175)
(0.150563 -0.273533 2.12585)
(0.177803 0.20796 1.77531)
(0.306555 0.16725 1.92144)
(0.334551 0.0594384 2.0169)
(0.309348 -0.0447001 2.02269)
(0.160746 -0.225301 1.82337)
(0.247334 0.112992 1.75041)
(0.262214 0.00377073 1.83542)
(0.161051 -0.0698077 1.79047)
(-0.0179749 0.0296656 0.938933)
(-0.0560725 0.0673809 1.56708)
(0.0241701 0.105985 1.25451)
(-0.0491697 0.218115 0.893402)
(-0.276862 -0.051409 2.06723)
(0.107011 0.125275 2.04038)
(0.294977 0.261787 1.62939)
(0.294663 0.12522 1.74835)
(0.0917319 -0.0841324 2.11649)
(-0.0430373 -0.411473 2.29853)
(0.0153596 0.126032 1.74449)
(0.307081 0.1569 2.09098)
(0.345834 0.174386 2.02755)
(0.33911 0.0937071 2.13637)
(0.247645 -0.153487 2.212)
(0.179011 -0.316838 2.1873)
(0.131337 0.139081 1.68157)
(0.304078 0.173815 1.92174)
(0.353495 0.0571152 2.07219)
(0.332901 -0.0599932 2.08812)
(0.166984 -0.240715 1.85582)
(0.188294 0.0957127 1.81587)
(0.247269 0.00957678 1.9195)
(0.154734 -0.0667732 1.92583)
(-0.0978106 0.00385706 0.800315)
(-0.0113717 0.018528 1.46685)
(-0.0179191 0.0733873 1.19379)
(-0.173848 0.187062 0.895517)
(-0.403029 -0.218091 2.08151)
(0.131694 0.0983203 1.99317)
(0.310858 0.261144 1.61792)
(0.30608 0.050803 1.8369)
(0.14107 -0.210756 2.18427)
(-0.0961786 -0.478316 2.39387)
(0.0205708 0.13374 1.56284)
(0.265877 0.231327 1.92069)
(0.336187 0.206713 2.01384)
(0.422329 0.0439775 2.1638)
(0.28377 -0.20638 2.25407)
(0.192977 -0.322551 2.20818)
(0.0863202 0.108803 1.6084)
(0.296213 0.168408 1.91481)
(0.350075 0.0286591 2.10995)
(0.338693 -0.0752356 2.12944)
(0.170537 -0.244294 1.96195)
(0.132753 0.0731362 1.83784)
(0.227233 0.00319173 1.99909)
(0.151645 -0.06374 2.05228)
(-0.156699 -0.0180118 0.790716)
(-0.0134222 0.0059376 1.40854)
(-0.067391 0.0531646 1.16994)
(-0.302828 0.142329 0.915849)
(-0.410059 -0.234892 2.13311)
(0.17222 0.168777 1.7945)
(0.282391 0.259376 1.60807)
(0.265652 -0.019343 1.93863)
(0.155328 -0.282074 2.25788)
(-0.124025 -0.500714 2.4793)
(0.00687397 0.084085 1.45385)
(0.176265 0.27465 1.75256)
(0.326171 0.204397 2.00772)
(0.437139 -0.0652577 2.18277)
(0.299983 -0.254187 2.30322)
(0.18313 -0.318337 2.23619)
(0.044475 0.0996531 1.56885)
(0.256176 0.129757 1.91209)
(0.337027 -0.0415149 2.1303)
(0.332029 -0.106827 2.14877)
(0.164319 -0.239022 2.04516)
(0.0990536 0.0562864 1.87122)
(0.219817 -0.0112596 2.03316)
(0.145064 -0.0569201 2.16375)
(-0.183701 -0.0364532 0.855005)
(-0.0357144 0.0251134 1.39269)
(-0.107164 0.0350095 1.1878)
(-0.374036 0.0655473 0.9358)
(-0.385639 -0.157849 2.16349)
(0.124772 0.198454 1.61619)
(0.133893 0.248649 1.60873)
(0.206569 -0.0405269 2.06736)
(0.120907 -0.326893 2.33749)
(-0.143283 -0.495874 2.55847)
(-0.00757383 0.0399225 1.39459)
(0.08944 0.245866 1.6411)
(0.277858 0.167069 1.99194)
(0.3914 -0.172826 2.20012)
(0.291013 -0.291513 2.31963)
(0.186648 -0.323351 2.28144)
(0.00893547 0.108072 1.56634)
(0.20011 0.104667 1.8806)
(0.326006 -0.116161 2.09472)
(0.317105 -0.143798 2.15988)
(0.155127 -0.23228 2.10329)
(0.0950139 0.0454307 1.86788)
(0.220148 -0.0214353 2.02423)
(0.143619 -0.0545128 2.24817)
(-0.172433 -0.0479591 0.977642)
(-0.0301521 0.0316993 1.38657)
(-0.107891 0.0261372 1.23726)
(-0.364951 -0.0272712 0.952724)
(-0.344041 -0.0508456 2.06043)
(0.0585272 0.157852 1.5242)
(-0.0727011 0.231779 1.60394)
(0.133 0.0378741 2.18552)
(0.0416677 -0.354128 2.41869)
(-0.15135 -0.464457 2.63174)
(-0.0173116 0.0189829 1.38729)
(-0.0238651 0.194621 1.58917)
(0.150492 0.131894 1.90359)
(0.325153 -0.211653 2.20545)
(0.273603 -0.303763 2.33544)
(0.170146 -0.329712 2.31303)
(-0.00989394 0.132258 1.58733)
(0.162881 0.11495 1.8362)
(0.309579 -0.141342 2.01899)
(0.309504 -0.178904 2.14506)
(0.14553 -0.231539 2.08581)
(0.103854 0.0420631 1.86186)
(0.22424 -0.0329725 1.96879)
(0.142754 -0.05315 2.31073)
(-0.135345 -0.0494788 1.12211)
(0.0026189 0.00926549 1.38884)
(-0.0755291 0.0301608 1.30991)
(-0.308934 -0.0999618 0.981233)
(-0.285574 -0.0906826 1.74816)
(-0.00996337 0.0970226 1.49923)
(-0.20089 0.219318 1.57963)
(0.0128697 0.158332 2.25703)
(-0.0490111 -0.334765 2.50261)
(-0.147437 -0.427301 2.7071)
(-0.0208141 0.0121294 1.42829)
(-0.094731 0.166123 1.57259)
(0.0332226 0.145952 1.79809)
(0.264237 -0.170561 2.22425)
(0.26167 -0.299431 2.33066)
(0.146856 -0.328627 2.3137)
(-0.00602655 0.146211 1.62763)
(0.149931 0.133496 1.79043)
(0.274142 -0.0885429 1.93371)
(0.310554 -0.191253 2.11308)
(0.155654 -0.230417 2.12905)
(0.121591 0.0519628 1.84477)
(0.211434 -0.038816 1.92216)
(0.150312 -0.073537 2.34775)
(-0.0870453 -0.0395914 1.24631)
(0.0432924 -0.0252091 1.3892)
(-0.0195976 0.0432185 1.37537)
(-0.222732 -0.110545 1.05395)
(-0.203485 -0.18171 1.44019)
(-0.0691983 0.0592237 1.50798)
(-0.250641 0.205018 1.53822)
(-0.101013 0.211325 2.24033)
(-0.112022 -0.238961 2.5951)
(-0.145999 -0.38463 2.7683)
(-0.0174025 0.0187382 1.47049)
(-0.104754 0.166256 1.59131)
(-0.0151674 0.176694 1.69697)
(0.171865 0.00777684 2.21475)
(0.26001 -0.284747 2.33272)
(0.135132 -0.331076 2.30916)
(0.00810566 0.128914 1.6732)
(0.146581 0.151253 1.77014)
(0.243671 0.0203997 1.90178)
(0.310297 -0.179535 2.07348)
(0.158922 -0.232783 2.15521)
(0.12469 0.0571524 1.85811)
(0.193688 -0.031096 1.90631)
(0.162004 -0.0988253 2.34771)
(-0.0325064 -0.0245262 1.32119)
(0.071651 -0.0719462 1.43097)
(0.046511 0.0511251 1.41671)
(-0.125177 -0.0568972 1.16812)
(-0.112224 -0.162301 1.24185)
(-0.0815665 0.0158047 1.52701)
(-0.241647 0.194281 1.50352)
(-0.138309 0.19625 2.13282)
(-0.114724 -0.122623 2.69738)
(-0.147775 -0.341114 2.83409)
(-0.00736008 0.0330429 1.48945)
(-0.048448 0.142464 1.63047)
(0.00957769 0.201207 1.63933)
(0.120026 0.225333 2.15817)
(0.253379 -0.234786 2.32145)
(0.122677 -0.322825 2.31769)
(0.0257271 0.111824 1.70114)
(0.145193 0.157988 1.76786)
(0.229928 0.121278 1.93359)
(0.312927 -0.0990833 2.04614)
(0.165166 -0.248443 2.17255)
(0.127742 0.0673786 1.89739)
(0.176296 -0.00821524 1.91545)
(0.176596 -0.10795 2.31883)
(0.0220858 -0.00739206 1.35077)
(0.109605 -0.109083 1.43716)
(0.101759 0.0675239 1.44025)
(-0.0247602 0.0139257 1.25901)
(-0.0148081 -0.063467 1.15937)
(-0.0372192 -0.0446048 1.53771)
(-0.171782 0.193572 1.47241)
(-0.0805244 0.173408 1.9166)
(-0.0736451 -0.038848 2.80544)
(-0.151028 -0.301231 2.921)
(0.0013202 0.0334292 1.47895)
(0.0639024 0.0751309 1.61795)
(0.0760853 0.217235 1.62729)
(0.148962 0.346497 2.11358)
(0.244309 -0.159975 2.33344)
(0.109773 -0.317045 2.33967)
(0.0627295 0.0926058 1.66937)
(0.145668 0.157057 1.77438)
(0.239067 0.178646 1.99735)
(0.331209 -0.0154356 2.06759)
(0.193755 -0.277223 2.20657)
(0.109866 0.0818824 1.9388)
(0.163615 0.038997 1.97337)
(0.186684 -0.105654 2.33451)
(0.0610446 0.00100449 1.32567)
(0.151652 -0.142799 1.41381)
(0.155504 0.0810595 1.44066)
(0.077585 0.0715299 1.27602)
(0.0774237 0.0412768 1.15652)
(0.0321766 -0.0750287 1.51558)
(-0.0511879 0.202449 1.43296)
(0.0108748 0.176119 1.76249)
(-0.0337866 0.0234824 2.91741)
(-0.158906 -0.282367 3.03169)
(0.0162061 -0.0332015 1.37433)
(0.112888 0.0603382 1.62449)
(0.138229 0.238875 1.62405)
(0.203996 0.389013 2.08096)
(0.238814 -0.126127 2.38043)