/*--------------------------------*- C++ -*----------------------------------*\
| =========                 |                                                 |
| \\      /  F ield         | OpenFOAM: The Open Source CFD Toolbox           |
|  \\    /   O peration     | Version:  5.x                                   |
|   \\  /    A nd           | Web:      www.OpenFOAM.org                      |
|    \\/     M anipulation  |                                                 |
\*---------------------------------------------------------------------------*/
FoamFile
{
    version     2.0;
    format      ascii;
    class       volVectorField;
    location    "1";
    object      Us;
}
// * * * * * * * * * * * * * * * * * * * * * * * * * * * * * * * * * * * * * //

dimensions      [0 1 -1 0 0 0 0];

internalField   nonuniform List<vector> 
10571
(
(-0.142502 0.00862995 -0.054378)
(0.0713168 -0.00791837 0.0219535)
(0.0133402 0.184886 0.155356)
(-0.218752 0.0719087 0.0239837)
(-0.120995 0.0348264 -0.14259)
(0.261185 -0.0714346 0.0652728)
(-0.181895 0.00984483 -0.175393)
(-0.191448 0.0115949 -0.225993)
(-0.109849 0.194401 0.0171325)
(-0.0618017 0.0132383 -0.0173152)
(0.0257976 -0.100838 -0.0594757)
(0.18608 -0.0091453 0.138513)
(-0.131976 0.105729 -0.148635)
(-0.180898 0.11888 -0.209093)
(-0.0764624 0.177928 -0.174243)
(-0.0223983 -0.12783 -0.0245972)
(0.103537 -0.0255628 0.0788448)
(-0.173543 0.00212368 0.0199376)
(-0.172289 -0.0640637 -0.0212381)
(-0.0438351 -0.0681119 -0.0784796)
(-0.00220117 -0.0644445 -0.0995542)
(-0.0635312 0.0278711 0.0184304)
(-0.174968 0.0572054 -0.0372302)
(-0.00333149 -0.0124747 -0.247415)
(-0.0788792 -0.125547 -0.237481)
(0.0260268 -0.0168613 0.0261208)
(0.0960226 -0.123556 0.135674)
(-0.08047 -0.0766894 -0.214972)
(-0.0565422 -0.104147 -0.357964)
(0.151585 -0.131671 -0.011015)
(-0.0785994 -0.0302943 -0.0201232)
(-0.186085 -0.0521579 -0.184291)
(-0.093674 0.0167709 -0.169271)
(0.00606991 -0.0252473 -0.249263)
(0.00456312 -0.104692 -0.127042)
(0.0727632 -0.121729 -0.0691372)
(-0.0152332 -0.0100295 0.025733)
(-0.139867 0.0543322 -0.0953412)
(-0.0404036 0.209491 -0.107042)
(-0.00909611 0.0327442 -0.139126)
(-0.022153 -0.107539 -0.0972704)
(-0.105111 -0.108774 -0.0898362)
(0.00494163 -0.0961202 -0.161364)
(-0.0453459 0.226153 -0.165152)
(-0.0161379 0.0697781 -0.275206)
(-0.200219 -0.0436685 -0.102888)
(-0.132378 -0.0937342 -0.0526991)
(0.0568936 -0.036614 -0.331804)
(0 0 0)
(-0.135956 0.0808708 -0.215027)
(-0.0716714 -0.028899 -0.0808654)
(0.00465985 -0.00238386 -0.0905532)
(0.0518835 -0.00267605 -0.295198)
(-0.182761 0.0407844 -0.0307679)
(-0.130059 0.03741 0.0165261)
(-0.17218 -0.051006 -0.180292)
(-0.126413 -0.0565632 -0.31604)
(-0.0428626 -0.0920378 -0.282286)
(-0.0192064 -0.0830236 -0.102855)
(-0.120219 -0.144555 -0.0730308)
(-0.0994416 -0.0450271 0.0831014)
(-0.158811 0.0418773 -0.0260906)
(-0.117958 0.0240532 -0.244605)
(-0.0289327 0.0542439 -0.271881)
(-0.0332139 -0.0793937 -0.25861)
(-0.00327204 -0.125919 -0.145333)
(0.0451337 -0.0954996 -0.119916)
(-0.0500066 0.0945015 -0.116352)
(-0.0381497 0.0953323 -0.189861)
(-0.0150188 -0.0367855 -0.261409)
(0.0971274 -0.109665 -0.24317)
(0.0761782 -0.0451685 -0.308233)
(0 0 0)
(-0.100883 0.0958145 -0.134718)
(-0.0683507 0.0761185 -0.260164)
(0 0 0)
(0.171451 0.120186 -0.219099)
(-0.158056 0.0969889 0.000526578)
(-0.057517 0.0945715 0.00809029)
(-0.0607193 0.0305446 -0.0619713)
(0.0572384 0.0720202 -0.235873)
(-0.0106392 0.024981 -0.315919)
(-0.184746 0.0356576 -0.0198157)
(-0.169654 -0.105083 0.00270044)
(-0.0474816 -0.0296064 0.128818)
(-0.145835 0.0387716 -0.0198814)
(-0.119506 -0.0391985 -0.275639)
(-0.0612014 -0.0410191 -0.354974)
(0.063807 0.0646706 -0.370733)
(0.0625398 -0.0403011 -0.122149)
(0.0204004 -0.0119582 -0.0443444)
(-0.148078 0.0485495 -0.0972108)
(-0.0529526 0.0759547 -0.133243)
(0.0768802 0.0166223 -0.302444)
(0.10259 -0.033819 -0.253914)
(0.100188 -0.0445044 -0.272534)
(0 0 0)
(0 0 0)
(-0.0318869 0.0522245 -0.253246)
(0 0 0)
(0.203239 0.128329 -0.161229)
(0 0 0)
(-0.0404492 0.187305 0.018852)
(0.0225328 0.143896 0.00839371)
(0.136075 0.125819 -0.1437)
(0.0322954 0.0551611 -0.302177)
(0.025654 0.0942315 -0.271004)
(-0.129654 -0.0261421 0.0999321)
(-0.030054 0.0461695 0.17119)
(-0.0272817 0.133831 0.109959)
(0.0101515 0.0773439 -0.0867907)
(-0.112578 -0.0430574 -0.331454)
(0.0750156 0.0955052 -0.325387)
(0.081519 0.0304235 -0.0448479)
(0.0602494 0.0383218 -0.00900816)
(-0.138416 -0.00759772 -0.040085)
(0.0206346 -0.0616967 -0.178834)
(0.0812296 0.0311572 -0.331632)
(0.0812706 -0.00922878 -0.248222)
(0.0929097 -0.0436608 -0.218202)
(0.0870181 0.0162598 -0.171747)
(0 0 0)
(0.0218085 -0.0161779 -0.226592)
(0.100267 0.13565 -0.0669504)
(0.216425 0.173799 -0.0813574)
(0 0 0)
(-0.0362519 0.209452 0.0166744)
(0.0782384 0.27614 0.0786094)
(0.210456 0.163921 -0.0481768)
(0.0075047 0.0361057 -0.162246)
(-0.0114592 0.00762774 -0.00625323)
(0.0214152 0.084848 -0.250122)
(0.144713 0.128045 -0.138755)
(0.00544761 0.147872 0.169506)
(0.0883616 0.206962 0.14263)
(0.134577 0.158588 0.0598388)
(-0.11442 -0.0389713 -0.196451)
(-0.0136431 -0.00652987 -0.00788794)
(0.074163 0.108486 -0.239604)
(0.0873035 0.140615 0.0675984)
(0.0666885 0.0825971 0.0343289)
(0.00183319 0.116986 0.103458)
(0.0515158 -0.0922082 -0.223219)
(0.0925546 0.0347264 -0.315467)
(0.0887636 0.0041676 -0.202034)
(0.0590461 -0.0342921 -0.213166)
(0.0837492 -0.0103636 -0.138809)
(0 0 0)
(0.0919576 -0.0745833 -0.197238)
(0.0991625 -0.0332154 -0.0992564)
(0.18128 0.0807963 -0.00775488)
(0 0 0)
(0.0273702 0.145335 0.0773059)
(0.124539 0.21075 0.126809)
(0.228749 0.0671603 -0.0548711)
(0.255856 0.0118196 -0.108685)
(-0.0310529 0.0101131 -0.0251836)
(0.0125428 0.0941736 -0.189033)
(0.162102 0.131999 0.00619971)
(0.112197 0.155509 0.189812)
(0.159797 0.207069 0.156015)
(0.237233 0.154573 0.0902766)
(0.259244 0.11253 -0.017011)
(-0.0313212 -0.00635163 -0.0288592)
(0.0534343 0.0699467 -0.192035)
(0.181725 0.213602 0.0417415)
(0.0516538 -0.0105341 -0.0255144)
(0.122521 0.206461 0.172021)
(0.0634342 -0.0536198 -0.164122)
(-0.0102718 -0.0140605 -0.0424748)
(0.0984884 0.0362134 -0.24965)
(0.0887653 -0.0138042 -0.199205)
(0.0306547 -0.0161057 -0.185364)
(0.0824512 0.0137009 -0.290702)
(0 0 0)
(0.140339 -0.14069 -0.120074)
(0.0972032 -0.0964142 -0.123795)
(0.18732 -0.0927546 -0.0832714)
(0 0 0)
(0.0946292 -0.00442252 0.0340235)
(0.174303 0.00812113 -0.0140732)
(0.239757 0.018319 -0.0262584)
(0.241146 -0.0806154 -0.164023)
(0.366792 -0.0208886 -0.060324)
(0.0130873 0.0945491 -0.113608)
(0.128104 0.149686 0.0997228)
(0.160028 0.180247 0.233974)
(0.177324 0.0753958 0.0662076)
(0.258577 0.0859153 0.0212758)
(0.282424 0.0593383 -0.0282831)
(0.307189 -0.172339 -0.0867269)
(0.0659336 0.0813328 -0.112173)
(0.18064 0.248186 0.113345)
(0.0708787 -0.00172067 -0.0110531)
(0.0605255 0.0313092 0.0863354)
(0.120236 -0.00652894 -0.0588132)
(0.272511 -0.0456843 -0.0577363)
(0.105614 0.0395313 -0.167665)
(0.091731 -0.0126925 -0.176712)
(0.0368943 -0.0144872 -0.156323)
(0 0 0)
(0.103724 -0.0801333 0.0138194)
(0.153335 -0.15469 -0.0413089)
(0.109008 -0.104295 -0.134101)
(0.0370285 -0.00646912 -0.485487)
(0.106582 -0.0249482 0.331278)
(0.114514 -0.033449 0.02611)
(0.143715 -0.0252021 -0.013442)
(0.215426 -0.0452181 -0.0542948)
(-0.0205079 -0.156567 -0.569485)
(0.259267 -0.501869 0.0167494)
(-0.00242337 0.114754 -0.00152712)
(0.0797967 0.169434 0.190145)
(0.0389222 0.122003 0.0421935)
(0.145369 0.0741866 0.0906033)
(0.212716 0.0662452 0.0404141)
(0.175393 -0.0367471 -0.102587)
(0.264516 -0.256155 0.0351348)
(-0.00228328 0.17019 -0.0121087)
(0.0838175 0.198776 0.0447555)
(0.145198 0.156004 0.00604313)
(0.219819 0.173492 0.0409795)
(0.100019 -0.0862456 0.0328756)
(0.0833343 0.0358564 -0.111845)
(0.0713513 -0.00426775 -0.108381)
(0.0602727 -0.00142208 -0.07654)
(0 0 0)
(0.0802399 -0.131735 0.0962414)
(0.123577 -0.164933 -0.0417677)
(-0.141965 -0.0361423 -0.956205)
(0.0309961 -0.0857802 -0.481035)
(0.0547403 -0.00178776 0.217253)
(0.104337 -0.0514725 0.0790434)
(0.131248 -0.0471789 -0.0106821)
(0.0372816 -0.0363724 -0.546409)
(0.0726736 -0.0778083 -0.212571)
(-0.0643787 0.131634 0.0485212)
(-0.00985578 0.141822 0.236388)
(0.0516557 0.078976 0.158006)
(0.12693 0.0810253 0.117201)
(0.205947 0.0221331 -0.00730468)
(0.00315456 -0.284115 0.0489343)
(-0.026289 0.1252 0.0436144)
(0.0516714 0.164227 0.0522724)
(0.142157 0.135576 0.0550718)
(0.242833 0.0839256 0.0459311)
(0.125864 -0.205462 0.030586)
(0.0967586 0.126793 0.0238755)
(0.0945819 0.10599 -0.0161845)
(0.1041 -0.0449293 0.0235544)
(-0.140269 -0.122838 -0.980797)
(0.141091 -0.109494 0.151045)
(0.177697 -0.13846 0.0472525)
(-0.0919718 0.035494 -0.888553)
(0.11084 -0.0803543 -0.772053)
(-0.0101463 -0.0103974 0.210845)
(0.0684513 -0.0622472 0.133251)
(0.0266789 -0.0675275 -0.616349)
(0.0258648 -0.0327981 -0.596161)
(-0.0274838 -0.0165587 -0.695648)
(-0.208066 0.0919779 0.182736)
(-0.128011 0.00416708 0.0834648)
(0.0476192 0.0493511 0.185066)
(0.124179 0.0514818 0.0783612)
(0.0570329 5.96018e-06 -0.47668)
(-0.0496978 -0.19975 -0.00479823)
(-0.106011 0.14157 0.134706)
(0.0588898 0.147948 0.119315)
(0.139901 0.10605 0.0616844)
(0.202263 0.0117583 -0.217947)
(0.198793 -0.0869224 0.07566)
(0.0548199 0.107244 0.0645523)
(0.12243 0.145235 0.00197555)
(0.145916 -0.0931672 -0.274788)
(1.74021e-16 -9.02762e-17 7.71784e-16)
(-0.120666 0.0365619 -0.755239)
(0.0912691 0.0135698 -0.865454)
(-0.192754 -0.0799591 -0.936312)
(8.8335e-17 1.5125e-16 7.68915e-16)
(0 0 0)
(0.0285724 -0.0157772 -0.517389)
(0.0490347 0.0699456 -0.786527)
(-0.0316509 -0.128211 -0.547781)
(-0.0351412 -0.188096 -0.641096)
(0 0 0)
(-0.0500469 0.0451933 0.308698)
(0.0581309 0.000500472 -0.179546)
(0.0964184 -0.00944906 -0.248262)
(0.0329309 -0.0577395 -0.604266)
(-0.0453197 -0.126192 -0.283075)
(-0.0708762 0.0919582 0.147264)
(0.0282512 0.0648302 -0.111519)
(0.0764244 -0.0421918 -0.402205)
(0.0890996 -0.0395236 -0.168744)
(0.114518 -0.111946 -0.361828)
(0.0485432 0.107931 -0.0134215)
(0.0668604 -0.0289292 -0.387448)
(0.0865292 -0.0361631 -0.406691)
(-0.207989 0.00796013 -0.868273)
(0.0706917 0.0605575 -0.685164)
(0.137894 -0.0886902 -0.725819)
(-0.158521 -0.0272283 -0.860659)
(-0.11517 0.000146976 -0.711129)
(0.0521402 -0.083313 -0.509078)
(0.046642 -0.0519935 -0.575493)
(-0.109026 -0.00814592 -0.779682)
(-0.0578314 -0.0345086 -0.71054)
(-0.0555243 -0.16194 -0.584241)
(-0.0281225 -0.0617308 -0.299227)
(0.0598977 -0.0588345 -0.461536)
(0.0764926 -0.0423203 -0.48222)
(0.12139 -0.0081183 -0.612265)
(0.0245033 -0.00339121 -0.504158)
(0.0243488 -0.0692267 -0.0326511)
(0.0515652 0.0150321 -0.309429)
(0.0679858 0.0565471 -0.460069)
(0.0457001 0.0224709 -0.560514)
(0.0910305 0.0433095 -0.752458)
(0.0708396 -0.11769 -0.208164)
(0.0907146 -0.0233435 -0.417006)
(0.113291 0.0173695 -0.487515)
(0.0800711 -0.0447396 -0.290314)
(0 0 0)
(0.108882 -0.0857458 -0.488511)
(0 0 0)
(0.0180235 0.111139 -0.735835)
(-0.151296 -0.0076727 -0.654523)
(-0.0131446 -0.0523199 -0.629738)
(-0.0558093 0.0197275 -0.787653)
(0.0290468 -0.00569911 -0.744935)
(-0.064772 -0.0918505 -0.624996)
(-0.183933 -0.236153 -0.634325)
(0 0 0)
(0.0417118 0.00784802 -0.568879)
(0.0590176 -0.0425672 -0.435903)
(0.112766 0.00331781 -0.558738)
(0.0397991 -0.0648969 -0.371372)
(0.0344388 -0.137511 -0.301538)
(0.0480917 0.005467 -0.343818)
(0.0598056 0.0340475 -0.39268)
(0.122238 -0.0482567 -0.508219)
(0.135769 -0.0484848 -0.456087)
(0.077373 -0.113206 -0.319893)
(0 0 0)
(0.0931076 0.00306972 -0.364028)
(0.0531834 -0.0332697 -0.282652)
(0.11694 0.0440057 -0.73657)
(0 0 0)
(-0.139743 -0.132866 -0.934936)
(0 0 0)
(-0.0433545 -0.0399643 -0.759806)
(0.0374967 -0.0984464 -0.352245)
(0.0299662 -0.0134336 -0.607883)
(-0.00565792 -0.0249512 -0.692919)
(-0.0632072 -0.00154832 -0.652202)
(-0.00819841 -0.196815 -0.49527)
(0.0147932 -0.107381 -0.344287)
(0.0841722 -0.186998 -0.359546)
(0.0793428 -0.033249 -0.368286)
(0.103678 -0.00107189 -0.647289)
(0.035452 -0.0503322 -0.499478)
(0.0723186 -0.1463 -0.130326)
(0.0459893 -0.0301848 -0.269612)
(0.0697258 0.0129584 -0.407149)
(0.125312 0.0526273 -0.525261)
(0.127529 -0.017685 -0.507574)
(0 0 0)
(0.0235395 0.0469288 -0.385812)
(0.1517 -0.0348896 -0.37604)
(0.20275 -0.0720275 -0.362912)
(0 0 0)
(0 0 0)
(0 0 0)
(0.0421719 -0.0701269 -0.829599)
(-0.151467 -0.223646 -0.759745)
(0.0521609 -0.072005 -0.416068)
(-0.102666 0.0502864 -0.837104)
(-0.0719338 -0.0352999 -0.714355)
(-0.0581922 -0.128522 -0.523343)
(-0.11105 -0.116322 -0.493665)
(0.0150942 -0.111905 -0.338488)
(0.0500292 -0.0199404 -0.421852)
(0.0844666 -0.0227032 -0.503862)
(0.0702745 -0.0105996 -0.573888)
(0.0298397 -0.0417055 -0.526491)
(0 0 0)
(0.0199731 -0.0389256 -0.260388)
(0.0728595 0.0316158 -0.4255)
(0.0331518 0.00257277 -0.538596)
(0.0710656 -0.0865014 -0.442281)
(0 0 0)
(0.0655706 0.00172017 -0.281552)
(0.16685 0.0704619 -0.391606)
(0 0 0)
(0.0218079 0.0885809 -0.704437)
(0 0 0)
(0 0 0)
(-0.110591 -0.157243 -0.79191)
(0 0 0)
(0 0 0)
(-0.113103 0.00739857 -0.806559)
(-0.00672391 -0.0396434 -0.686568)
(-0.0387625 -0.0864516 -0.575678)
(-0.062217 -0.173403 -0.574204)
(0 0 0)
(0.00921515 0.0187874 -0.372765)
(0.186886 0.0253628 -0.632255)
(0.012275 0.0400318 -0.627348)
(0.0231533 -0.020101 -0.548452)
(0.0187339 -0.141727 -0.165002)
(-0.0641105 0.0697985 -0.525045)
(-0.0228065 -0.0615393 -0.416711)
(0.102189 0.00114111 -0.484733)
(0.00494013 -0.0887301 -0.547079)
(0.135848 -0.110812 -0.310242)
(0.0554429 0.0930324 -0.325632)
(0.120549 -0.0436729 -0.290358)
(0.100836 -0.0611778 -0.292537)
(0 0 0)
(0.114829 -0.119753 -0.446186)
(0 0 0)
(-0.0812784 -0.147935 -0.801532)
(0.131949 -0.182101 -0.519254)
(0 0 0)
(-0.0475528 -0.0434755 -0.63449)
(-0.122533 0.106045 -0.772702)
(-0.0499033 -0.180796 -0.405385)
(0.0265243 -0.182559 -0.49981)
(0 0 0)
(0 0 0)
(0.127189 0.00540025 -0.551954)
(0.00384351 -0.013749 -0.594085)
(0.0169815 -0.0958545 -0.456571)
(0.0865713 -0.126466 -0.323842)
(-0.0207345 -0.0411526 -0.409886)
(0.0582394 -0.00277269 -0.427528)
(0.0776038 -0.0428031 -0.530624)
(0.150226 -0.0294612 -0.39021)
(0.0345222 -0.164609 -0.257044)
(0.0854652 -0.0597206 -0.274499)
(0.112351 0.0362378 -0.283539)
(0.116381 -0.0810123 -0.33655)
(0.010347 -0.086888 -0.757305)
(0 0 0)
(-9.14817e-17 -5.63392e-18 6.17061e-16)
(0 0 0)
(0 0 0)
(0 0 0)
(0.0225919 0.0122844 -0.694594)
(-0.0315934 0.0867668 -0.749527)
(0.00304974 -0.115877 -0.571334)
(0.120251 -0.12325 -0.476888)
(-2.80213e-17 3.01659e-17 2.70997e-16)
(0 0 0)
(0.0560858 -0.0360526 -0.404041)
(0.116108 0.0257805 -0.460604)
(0.0923082 -0.0552249 -0.503709)
(0.0026027 -0.151692 -0.220183)
(0.00673813 0.00771206 -0.190473)
(0.0889026 0.0454167 -0.460947)
(0.0963644 -0.015665 -0.440216)
(-0.0732478 -0.0635877 -0.435194)
(0.0667389 -0.0690512 -0.429541)
(0.152934 0.0219986 -0.282398)
(0 0 0)
(0 0 0)
(-0.00183571 0.186044 -0.583039)
(0 0 0)
(0 0 0)
(0 0 0)
(-0.12837 -0.155115 -0.672733)
(0.0354284 -0.112364 -0.323123)
(-0.0218136 -0.0302558 -0.634829)
(-0.0894221 -0.0244593 -0.725145)
(-0.0190705 -0.0430909 -0.597515)
(0.00412406 -0.181506 -0.512846)
(0.0313189 -0.0503378 -0.430201)
(0 0 0)
(0.050498 0.00243761 -0.596725)
(0.0187241 0.0240865 -0.579019)
(0.0294627 -0.133622 -0.426262)
(0 0 0)
(0 0 0)
(0.0897009 0.0235288 -0.310311)
(0.0943778 -0.0440905 -0.34542)
(-0.0428081 -0.0914304 -0.476082)
(0.0635942 -0.170865 -0.279686)
(0.0678086 0.0289513 -0.244553)
(0.0911544 -0.0800636 -0.32498)
(0.1258 -0.0643897 -0.258828)
(0.0142764 -0.127287 -0.712139)
(0 0 0)
(0 0 0)
(0 0 0)
(0.108368 -0.120221 -0.626184)
(0 0 0)
(-0.202421 -0.0611946 -0.83564)
(-0.112421 -0.0555729 -0.66669)
(-0.0182538 -0.0941036 -0.486616)
(0 0 0)
(0 0 0)
(0 0 0)
(0.00858421 -0.00943743 -0.526045)
(0 0 0)
(0.0970382 -0.026665 -0.541446)
(0 0 0)
(0 0 0)
(0.105319 -0.0051769 -0.2739)
(0.0669445 -0.0231996 -0.419684)
(0.0372472 0.106615 -0.580007)
(0.0591272 -0.119825 -0.348098)
(0 0 0)
(0.0488808 -0.0142554 -0.358745)
(0.0789044 -0.0372965 -0.207071)
(0 0 0)
(0 0 0)
(0 0 0)
(-0.146956 -0.142248 -0.844434)
(0 0 0)
(0 0 0)
(-0.036547 -0.0476982 -0.590695)
(-0.0738316 -0.0424294 -0.661727)
(-0.0740654 -0.0686719 -0.477801)
(-0.130703 0.00352215 -0.626738)
(0 0 0)
(0 0 0)
(0.02098 0.0369752 -0.538149)
(0.0778516 -0.115797 -0.367086)
(0.0818324 -0.112864 -0.404747)
(0.0765257 -0.163411 -0.236285)
(0 0 0)
(0.0194681 0.016792 -0.468884)
(0.0716226 -0.0628815 -0.314313)
(0 0 0)
(0.0406167 -0.16364 -0.375981)
(0.0404073 0.0689406 -0.257158)
(0.0748764 -0.0623662 -0.236087)
(0 0 0)
(0 0 0)
(0 0 0)
(0 0 0)
(0 0 0)
(0 0 0)
(0 0 0)
(-0.0295156 0.0162404 -0.589299)
(-0.19089 0.00281218 -0.732441)
(0 0 0)
(-0.0601522 -0.138597 -0.440869)
(0 0 0)
(0 0 0)
(0 0 0)
(0.0270941 -0.0362458 -0.567592)
(0.086216 -0.0657398 -0.467383)
(0.0484461 -0.128795 -0.332946)
(0 0 0)
(0.0567362 -0.0231818 -0.352215)
(0.116821 -0.0699207 -0.420727)
(0.119932 0.0100864 -0.492634)
(0 0 0)
(-6.36914e-17 -1.19351e-17 1.97831e-16)
(0 0 0)
(0 0 0)
(0 0 0)
(0 0 0)
(0 0 0)
(0 0 0)
(0 0 0)
(0 0 0)
(0 0 0)
(-0.0671847 0.0255744 -0.676028)
(0.00231142 -0.102562 -0.561905)
(-0.108056 -0.0460614 -0.455959)
(0 0 0)
(0 0 0)
(0.0629463 -0.0132821 -0.221463)
(0.0690783 0.0623955 -0.523707)
(-0.0154864 -0.126857 -0.47282)
(0.12062 -0.0768056 -0.390404)
(0 0 0)
(0.0156047 -0.0146517 -0.351595)
(0.0744993 -0.0626739 -0.379317)
(0.0721232 -0.0488522 -0.44778)
(0 0 0)
(0 0 0)
(0.0397972 -0.0822543 -0.211429)
(0.106446 -0.0435005 -0.273318)
(0 0 0)
(0 0 0)
(-0.0156023 -0.0836916 -0.651411)
(0 0 0)
(0 0 0)
(0 0 0)
(0 0 0)
(-0.0392881 -0.0453077 -0.602301)
(-0.0622107 -0.142816 -0.518398)
(0.0450268 -0.20776 -0.32259)
(0 0 0)
(0 0 0)
(0.0108262 -0.00863973 -0.406409)
(0.0096779 0.182017 -0.629483)
(0.0567569 -0.109224 -0.419629)
(0.0629116 -0.114163 -0.359605)
(0 0 0)
(0.0321291 0.0598006 -0.279145)
(0.0659698 -0.0298769 -0.376339)
(0 0 0)
(0.156813 -0.122936 -0.333622)
(0 0 0)
(0.0470825 -0.0262127 -0.3339)
(0.127941 0.012897 -0.127374)
(0 0 0)
(0 0 0)
(0 0 0)
(0 0 0)
(0 0 0)
(0.00426155 -0.0302739 -0.415523)
(0 0 0)
(-0.0266695 -0.152336 -0.535811)
(-0.00151433 -0.106223 -0.523938)
(0 0 0)
(0 0 0)
(0 0 0)
(0.0799108 -0.0522306 -0.457248)
(0.0636071 -0.0383833 -0.347692)
(0.0546411 -0.108768 -0.338043)
(0 0 0)
(0 0 0)
(0.0374909 0.0480861 -0.208725)
(0.0920916 0.02172 -0.346644)
(0.0965148 -0.0561082 -0.411983)
(0.0352033 -0.158125 -0.241837)
(0 0 0)
(0.0742464 -0.0236661 -0.182139)
(-0.0423127 -0.0957822 -0.137677)
(0 0 0)
(0 0 0)
(0 0 0)
(0 0 0)
(0 0 0)
(0.00785631 -0.0959826 -0.307611)
(0.0666362 -0.0259943 -0.516492)
(-0.044103 -0.0381274 -0.624569)
(-0.0311836 -0.13687 -0.432206)
(0.0125989 -0.200158 -0.385169)
(0 0 0)
(0 0 0)
(-0.000650677 -0.0645595 -0.391833)
(0.0725254 -0.00184186 -0.324585)
(0.0835354 -0.0675414 -0.320365)
(0.0565319 -0.186217 -0.222088)
(-1.10279e-17 -1.39242e-17 1.52006e-16)
(0.0510736 -0.0190268 -0.209816)
(0.0459318 -0.073337 -0.310414)
(0 0 0)
(0 0 0)
(0.0671541 0.0129192 -0.232879)
(0 0 0)
(0 0 0)
(0.239665 0.00155377 -0.383505)
(0 0 0)
(0 0 0)
(0 0 0)
(0 0 0)
(0 0 0)
(0 0 0)
(0.0539673 -0.0249771 -0.582896)
(-0.0950847 -0.102704 -0.443741)
(-0.0576668 -0.179663 -0.214139)
(0 0 0)
(0 0 0)
(0 0 0)
(0.0320897 -0.0640695 -0.333388)
(0.0853933 -0.0910083 -0.33403)
(0 0 0)
(-0.0140152 0.0114945 -0.483501)
(0 0 0)
(0.0661476 -0.0218696 -0.441163)
(0 0 0)
(0 0 0)
(0 0 0)
(0.097406 -0.0261476 -0.200177)
(0.0547747 -0.0700958 -0.119117)
(0 0 0)
(0.0788145 -0.029957 -0.418123)
(0 0 0)
(0.0503987 -0.0495621 -0.662566)
(0 0 0)
(0 0 0)
(0.0105194 -0.0320708 -0.531513)
(0 0 0)
(0.0709078 -0.046531 -0.516382)
(0.0386929 -0.192958 -0.370789)
(0 0 0)
(0 0 0)
(0.0259075 0.0256243 -0.374715)
(0 0 0)
(0.000457326 -0.123367 -0.391352)
(0 0 0)
(0 0 0)
(0.0434712 -0.00520721 -0.266783)
(0.0914825 0.00282223 -0.286245)
(0 0 0)
(0.0678365 -0.121321 -0.350053)
(0 0 0)
(0 0 0)
(0 0 0)
(0 0 0)
(0 0 0)
(0 0 0)
(0 0 0)
(0 0 0)
(0 0 0)
(0.0320243 -0.064801 -0.430704)
(0 0 0)
(-0.108545 -0.0973378 -0.346267)
(0 0 0)
(0 0 0)
(0 0 0)
(0 0 0)
(0 0 0)
(0.022518 -0.130021 -0.368638)
(0.0216543 -0.136381 -0.26415)
(-0.0376172 -0.0435166 -0.257207)
(0.0198084 0.00570559 -0.256933)
(0 0 0)
(0 0 0)
(0 0 0)
(0 0 0)
(0 0 0)
(0.0954708 -0.0629464 -0.0563688)
(0 0 0)
(0 0 0)
(0 0 0)
(0 0 0)
(0 0 0)
(0 0 0)
(0.0651454 -0.041412 -0.444055)
(0 0 0)
(-0.0839463 -0.0951835 -0.421989)
(0 0 0)
(0 0 0)
(0 0 0)
(0 0 0)
(0.0718529 -0.0286353 -0.251687)
(0.0175782 -0.143596 -0.425911)
(0 0 0)
(-0.0533599 -0.0351671 -0.177347)
(0.00263868 0.00140676 -0.255022)
(0.0849945 -0.0083278 -0.249543)
(0 0 0)
(0.109235 -0.105955 -0.24902)
(0 0 0)
(0.0640181 -0.0130975 -0.215246)
(0 0 0)
(0 0 0)
(0 0 0)
(0 0 0)
(0 0 0)
(0 0 0)
(0 0 0)
(0 0 0)
(0 0 0)
(-0.134781 -0.104489 -0.27595)
(0 0 0)
(0 0 0)
(0 0 0)
(0 0 0)
(0.0350564 -0.0854965 -0.25769)
(0.0632836 -0.0737758 -0.319255)
(0 0 0)
(0 0 0)
(0 0 0)
(0.0762668 -0.0102141 -0.27633)
(0 0 0)
(0 0 0)
(0.0602388 -0.0122412 -0.0563376)
(0.0973246 -0.0261248 -0.105351)
(0.0691368 0.00286593 -0.207247)
(0 0 0)
(0 0 0)
(0 0 0)
(0 0 0)
(0 0 0)
(0 0 0)
(-0.00732683 -0.0435308 -0.386713)
(0 0 0)
(-0.07881 -0.14154 -0.356387)
(0 0 0)
(0 0 0)
(0 0 0)
(0.0397584 -0.00639392 -0.147136)
(0.103643 -0.00965615 -0.383256)
(0.101087 -0.0743163 -0.239801)
(0.0342004 -0.14006 -0.27432)
(0 0 0)
(0.0275806 0.0257629 -0.112029)
(0.110101 0.0113582 -0.242019)
(0.0940792 -0.0219952 -0.287099)
(0 0 0)
(0 0 0)
(0 0 0)
(0 0 0)
(0 0 0)
(0 0 0)
(0 0 0)
(0 0 0)
(0 0 0)
(0 0 0)
(0.0192922 -0.0231389 -0.498394)
(0 0 0)
(0.070193 -0.0661514 -0.338738)
(0 0 0)
(0 0 0)
(0 0 0)
(0 0 0)
(0 0 0)
(-0.0344248 -0.133515 -0.287888)
(0 0 0)
(0 0 0)
(0 0 0)
(0.0812884 0.0229649 -0.304387)
(0 0 0)
(0 0 0)
(0 0 0)
(0 0 0)
(0 0 0)
(0 0 0)
(0 0 0)
(0 0 0)
(0 0 0)
(0 0 0)
(0 0 0)
(0 0 0)
(0.0951777 -0.0663395 -0.429623)
(0 0 0)
(0 0 0)
(0 0 0)
(0 0 0)
(0 0 0)
(0 0 0)
(-0.00585696 -0.129375 -0.344311)
(0.0224019 -0.133049 -0.262776)
(0 0 0)
(0.0433476 0.0259667 -0.126035)
(0.0233691 -0.0672563 -0.281544)
(0 0 0)
(0 0 0)
(0.0649898 0.00362543 -0.0656124)
(0.108802 -0.0537994 -0.0864246)
(0 0 0)
(0 0 0)
(0 0 0)
(0 0 0)
(0 0 0)
(0 0 0)
(0 0 0)
(0 0 0)
(-8.4403e-17 5.90645e-17 3.78071e-16)
(0 0 0)
(0 0 0)
(0 0 0)
(0 0 0)
(0 0 0)
(0.0723057 -0.0252714 -0.231754)
(0.0470413 -0.13565 -0.300207)
(0 0 0)
(0 0 0)
(0.0417216 -0.00709154 -0.101787)
(0.0836576 0.0137076 -0.0973069)
(0 0 0)
(0.0671674 -0.123638 -0.224855)
(0 0 0)
(0 0 0)
(0 0 0)
(0 0 0)
(0 0 0)
(0 0 0)
(0 0 0)
(0 0 0)
(0 0 0)
(0 0 0)
(0.0790382 -0.0298291 -0.421051)
(0 0 0)
(0 0 0)
(0 0 0)
(0.00294615 -0.0364255 -0.0916795)
(-0.0227556 -0.0538342 -0.279284)
(0 0 0)
(-0.0455134 -0.120128 -0.273017)
(0 0 0)
(0 0 0)
(0.00181568 -0.011309 -0.207398)
(0.0205371 -0.090316 -0.21623)
(0 0 0)
(0 0 0)
(0.0673907 0.0287873 -0.0746325)
(0.0426005 0.00913585 -0.254771)
(0 0 0)
(0 0 0)
(0 0 0)
(0 0 0)
(0 0 0)
(0 0 0)
(0 0 0)
(0 0 0)
(0 0 0)
(0 0 0)
(0 0 0)
(0 0 0)
(0 0 0)
(0 0 0)
(0 0 0)
(0.10636 -0.0145685 -0.316252)
(0 0 0)
(0 0 0)
(0 0 0)
(0 0 0)
(0 0 0)
(0 0 0)
(0 0 0)
(0 0 0)
(0 0 0)
(0 0 0)
(0 0 0)
(0 0 0)
(0 0 0)
(0 0 0)
(0 0 0)
(0 0 0)
(0 0 0)
(0 0 0)
(0 0 0)
(0 0 0)
(-0.0226498 -0.0438575 -0.117527)
(0.0368407 -0.0184567 -0.364376)
(0 0 0)
(0.03655 -0.0697773 -0.235341)
(0.0703619 -0.172462 -0.246644)
(0 0 0)
(0.013025 0.0505482 -0.0745586)
(0 0 0)
(0 0 0)
(0 0 0)
(0 0 0)
(0 0 0)
(0.0592246 -0.0697593 -0.088817)
(0 0 0)
(0 0 0)
(0 0 0)
(0 0 0)
(0 0 0)
(0 0 0)
(0 0 0)
(0 0 0)
(0 0 0)
(0 0 0)
(0 0 0)
(0 0 0)
(0.0646058 -0.0287783 -0.205088)
(0.0649462 0.0141523 -0.251787)
(0 0 0)
(0 0 0)
(0 0 0)
(0.0221352 0.0137503 -0.316288)
(0.0649462 0.0141523 -0.251787)
(0 0 0)
(0 0 0)
(0 0 0)
(0.090258 0.00609165 0.0122786)
(0 0 0)
(0 0 0)
(0 0 0)
(0 0 0)
(0 0 0)
(0 0 0)
(0 0 0)
(0 0 0)
(0 0 0)
(0 0 0)
(0 0 0)
(0 0 0)
(0 0 0)
(-0.00991485 -0.0370679 -0.118971)
(0 0 0)
(0 0 0)
(0 0 0)
(0 0 0)
(0 0 0)
(0.0548091 -0.00341848 -0.245766)
(0 0 0)
(0 0 0)
(0 0 0)
(0.118218 -0.000174706 0.0413079)
(0 0 0)
(0 0 0)
(0 0 0)
(0 0 0)
(0 0 0)
(0 0 0)
(0 0 0)
(0 0 0)
(0 0 0)
(0 0 0)
(0 0 0)
(0 0 0)
(0 0 0)
(0 0 0)
(0 0 0)
(0 0 0)
(0 0 0)
(0 0 0)
(0 0 0)
(0 0 0)
(0 0 0)
(0 0 0)
(0 0 0)
(0 0 0)
(0 0 0)
(0 0 0)
(0 0 0)
(0 0 0)
(0 0 0)
(0 0 0)
(0 0 0)
(0 0 0)
(0 0 0)
(0 0 0)
(0 0 0)
(0 0 0)
(0 0 0)
(0.0128732 0.00559633 -0.285036)
(0 0 0)
(0 0 0)
(0 0 0)
(0 0 0)
(0.0325781 0.0108834 -0.0285876)
(0.0758048 -0.0114925 -0.110394)
(0 0 0)
(0.14979 -0.0407062 -0.161071)
(0.0146743 0.00799309 0.0661145)
(0 0 0)
(0 0 0)
(0 0 0)
(0 0 0)
(0 0 0)
(0 0 0)
(0 0 0)
(0 0 0)
(0 0 0)
(0 0 0)
(0 0 0)
(0 0 0)
(0 0 0)
(0 0 0)
(0.0112763 0.00336364 -0.275993)
(0 0 0)
(0 0 0)
(0 0 0)
(0 0 0)
(0 0 0)
(0 0 0)
(0 0 0)
(0 0 0)
(0 0 0)
(0 0 0)
(0 0 0)
(0 0 0)
(0 0 0)
(0 0 0)
(0 0 0)
(0 0 0)
(0 0 0)
(0 0 0)
(0 0 0)
(0 0 0)
(0 0 0)
(0 0 0)
(0 0 0)
(0 0 0)
(0 0 0)
(0 0 0)
(0 0 0)
(0 0 0)
(0 0 0)
(0.0348396 0.0149161 -0.121986)
(0 0 0)
(0 0 0)
(0 0 0)
(0 0 0)
(0 0 0)
(0 0 0)
(0 0 0)
(0 0 0)
(0 0 0)
(0 0 0)
(0 0 0)
(0 0 0)
(0 0 0)
(0 0 0)
(0 0 0)
(0 0 0)
(0 0 0)
(0 0 0)
(0 0 0)
(0 0 0)
(0 0 0)
(0 0 0)
(0 0 0)
(0 0 0)
(0 0 0)
(0 0 0)
(0 0 0)
(0 0 0)
(0 0 0)
(0 0 0)
(0 0 0)
(0 0 0)
(0 0 0)
(0 0 0)
(0 0 0)
(0 0 0)
(0 0 0)
(0 0 0)
(0 0 0)
(0 0 0)
(0 0 0)
(0 0 0)
(0 0 0)
(0 0 0)
(0 0 0)
(0 0 0)
(0 0 0)
(0 0 0)
(0 0 0)
(0 0 0)
(0 0 0)
(0 0 0)
(0 0 0)
(0 0 0)
(0 0 0)
(0 0 0)
(0 0 0)
(0 0 0)
(0 0 0)
(0 0 0)
(0 0 0)
(0 0 0)
(0 0 0)
(0 0 0)
(0 0 0)
(0 0 0)
(0 0 0)
(0 0 0)
(0 0 0)
(0 0 0)
(0.0191249 0.0020413 0.0201784)
(0 0 0)
(0 0 0)
(0 0 0)
(0 0 0)
(0 0 0)
(0 0 0)
(0 0 0)
(0 0 0)
(0 0 0)
(0 0 0)
(0 0 0)
(0 0 0)
(0 0 0)
(0 0 0)
(0 0 0)
(0 0 0)
(0 0 0)
(0 0 0)
(0 0 0)
(0 0 0)
(0 0 0)
(0 0 0)
(-1.18826e-17 2.23954e-17 -1.46769e-16)
(0 0 0)
(0 0 0)
(0 0 0)
(0 0 0)
(0 0 0)
(0 0 0)
(0 0 0)
(0 0 0)
(0 0 0)
(0 0 0)
(0 0 0)
(0 0 0)
(0 0 0)
(0 0 0)
(0 0 0)
(0 0 0)
(0 0 0)
(0 0 0)
(0 0 0)
(0 0 0)
(0 0 0)
(0 0 0)
(0 0 0)
(0 0 0)
(0 0 0)
(0 0 0)
(0 0 0)
(0 0 0)
(0 0 0)
(0 0 0)
(0 0 0)
(0 0 0)
(0 0 0)
(0 0 0)
(0 0 0)
(0 0 0)
(0 0 0)
(0 0 0)
(0 0 0)
(0 0 0)
(0 0 0)
(0 0 0)
(0 0 0)
(0 0 0)
(0.0579781 0.00713868 -0.104593)
(0 0 0)
(0 0 0)
(0 0 0)
(0 0 0)
(0.0579781 0.00713868 -0.104593)
(0 0 0)
(0 0 0)
(0 0 0)
(0 0 0)
(0 0 0)
(0 0 0)
(0 0 0)
(0 0 0)
(0 0 0)
(0 0 0)
(0 0 0)
(0 0 0)
(0 0 0)
(0 0 0)
(0 0 0)
(0 0 0)
(0 0 0)
(0 0 0)
(0 0 0)
(0 0 0)
(0 0 0)
(0 0 0)
(0.0242796 0.0182961 0.0232414)
(0.0644396 0.0100158 0.023491)
(0 0 0)
(0 0 0)
(0 0 0)
(0 0 0)
(0 0 0)
(0 0 0)
(0 0 0)
(0 0 0)
(0 0 0)
(0 0 0)
(0 0 0)
(0 0 0)
(0 0 0)
(0 0 0)
(0 0 0)
(0 0 0)
(-4.95663e-18 5.06181e-17 -1.41578e-16)
(0 0 0)
(0 0 0)
(0 0 0)
(0 0 0)
(0 0 0)
(0 0 0)
(0 0 0)
(0 0 0)
(0 0 0)
(0 0 0)
(0 0 0)
(0 0 0)
(0 0 0)
(0 0 0)
(0 0 0)
(0 0 0)
(0 0 0)
(0 0 0)
(0 0 0)
(0 0 0)
(0 0 0)
(0 0 0)
(0 0 0)
(0 0 0)
(0 0 0)
(0 0 0)
(0 0 0)
(0 0 0)
(0.0152351 -0.00409235 0.230661)
(0 0 0)
(0 0 0)
(0 0 0)
(0 0 0)
(0 0 0)
(0 0 0)
(0 0 0)
(0 0 0)
(0 0 0)
(0 0 0)
(0 0 0)
(0 0 0)
(0 0 0)
(0 0 0)
(0 0 0)
(0 0 0)
(0 0 0)
(0 0 0)
(0 0 0)
(0 0 0)
(0 0 0)
(0 0 0)
(0 0 0)
(0 0 0)
(0.0309057 0.01442 0.189719)
(0 0 0)
(0 0 0)
(0 0 0)
(0 0 0)
(0 0 0)
(0 0 0)
(0 0 0)
(0 0 0)
(0 0 0)
(0 0 0)
(0 0 0)
(0 0 0)
(0 0 0)
(0 0 0)
(0 0 0)
(0 0 0)
(0 0 0)
(0 0 0)
(0 0 0)
(0 0 0)
(0 0 0)
(0 0 0)
(0 0 0)
(0 0 0)
(0 0 0)
(0 0 0)
(0 0 0)
(0 0 0)
(0 0 0)
(0 0 0)
(0 0 0)
(0 0 0)
(0 0 0)
(0 0 0)
(0 0 0)
(0 0 0)
(0 0 0)
(0 0 0)
(0 0 0)
(0 0 0)
(0 0 0)
(0 0 0)
(0 0 0)
(0 0 0)
(0 0 0)
(0 0 0)
(0 0 0)
(0 0 0)
(0 0 0)
(0 0 0)
(0 0 0)
(0 0 0)
(0 0 0)
(0 0 0)
(0 0 0)
(0 0 0)
(0 0 0)
(0 0 0)
(0 0 0)
(0 0 0)
(0 0 0)
(0 0 0)
(0 0 0)
(0 0 0)
(0 0 0)
(0 0 0)
(0 0 0)
(0 0 0)
(0 0 0)
(0 0 0)
(0 0 0)
(0 0 0)
(0 0 0)
(0 0 0)
(0 0 0)
(0 0 0)
(0 0 0)
(0 0 0)
(0 0 0)
(0 0 0)
(0 0 0)
(0 0 0)
(0 0 0)
(0 0 0)
(0 0 0)
(0 0 0)
(0 0 0)
(0 0 0)
(0 0 0)
(0 0 0)
(0 0 0)
(0 0 0)
(0 0 0)
(0 0 0)
(0 0 0)
(0 0 0)
(0 0 0)
(0 0 0)
(0 0 0)
(0 0 0)
(0 0 0)
(0 0 0)
(0 0 0)
(0 0 0)
(0 0 0)
(0 0 0)
(0 0 0)
(0 0 0)
(0 0 0)
(0 0 0)
(0 0 0)
(0 0 0)
(0 0 0)
(0 0 0)
(0 0 0)
(0 0 0)
(0 0 0)
(0 0 0)
(0 0 0)
(0 0 0)
(0 0 0)
(0 0 0)
(0 0 0)
(0 0 0)
(0 0 0)
(0 0 0)
(0 0 0)
(0 0 0)
(0 0 0)
(0 0 0)
(0 0 0)
(0 0 0)
(0 0 0)
(0 0 0)
(0 0 0)
(0 0 0)
(0 0 0)
(0 0 0)
(0 0 0)
(0 0 0)
(0 0 0)
(0 0 0)
(0 0 0)
(0 0 0)
(0 0 0)
(0 0 0)
(0 0 0)
(0 0 0)
(0 0 0)
(0 0 0)
(0 0 0)
(0 0 0)
(0 0 0)
(0 0 0)
(0 0 0)
(0 0 0)
(0 0 0)
(0 0 0)
(0 0 0)
(0 0 0)
(0 0 0)
(0 0 0)
(0 0 0)
(0 0 0)
(0 0 0)
(0 0 0)
(0 0 0)
(0 0 0)
(0 0 0)
(0 0 0)
(0 0 0)
(0 0 0)
(0 0 0)
(0 0 0)
(0 0 0)
(0 0 0)
(0 0 0)
(0 0 0)
(0 0 0)
(0 0 0)
(0 0 0)
(0 0 0)
(0 0 0)
(0 0 0)
(0 0 0)
(0 0 0)
(0 0 0)
(0 0 0)
(0 0 0)
(0 0 0)
(0 0 0)
(0 0 0)
(0 0 0)
(0 0 0)
(0 0 0)
(0 0 0)
(0 0 0)
(0 0 0)
(0 0 0)
(0 0 0)
(0 0 0)
(0 0 0)
(0 0 0)
(0 0 0)
(0 0 0)
(0 0 0)
(0 0 0)
(0 0 0)
(0 0 0)
(0 0 0)
(0 0 0)
(0 0 0)
(0 0 0)
(0 0 0)
(0 0 0)
(0 0 0)
(0 0 0)
(0 0 0)
(0 0 0)
(0 0 0)
(0 0 0)
(0 0 0)
(0 0 0)
(0 0 0)
(0 0 0)
(0 0 0)
(0 0 0)
(0 0 0)
(0 0 0)
(0 0 0)
(0 0 0)
(0 0 0)
(0 0 0)
(0 0 0)
(0 0 0)
(0 0 0)
(0 0 0)
(0 0 0)
(0 0 0)
(0 0 0)
(0 0 0)
(0 0 0)
(0 0 0)
(0 0 0)
(0 0 0)
(0 0 0)
(0 0 0)
(0 0 0)
(0 0 0)
(0 0 0)
(0 0 0)
(0 0 0)
(0 0 0)
(0 0 0)
(0 0 0)
(0 0 0)
(0 0 0)
(0 0 0)
(0 0 0)
(0 0 0)
(0 0 0)
(0 0 0)
(0 0 0)
(0 0 0)
(0 0 0)
(0 0 0)
(0 0 0)
(0 0 0)
(0 0 0)
(0 0 0)
(0 0 0)
(0 0 0)
(0 0 0)
(0 0 0)
(0 0 0)
(0 0 0)
(0 0 0)
(0 0 0)
(0 0 0)
(0 0 0)
(0 0 0)
(0 0 0)
(0 0 0)
(0 0 0)
(0 0 0)
(0 0 0)
(0 0 0)
(0 0 0)
(0 0 0)
(0 0 0)
(0 0 0)
(0 0 0)
(0 0 0)
(0 0 0)
(0 0 0)
(0 0 0)
(0 0 0)
(0 0 0)
(0 0 0)
(0 0 0)
(0 0 0)
(0 0 0)
(0 0 0)
(0 0 0)
(0 0 0)
(0 0 0)
(0 0 0)
(0 0 0)
(0 0 0)
(0 0 0)
(0 0 0)
(0 0 0)
(0 0 0)
(0 0 0)
(0 0 0)
(0 0 0)
(0 0 0)
(0 0 0)
(0 0 0)
(0 0 0)
(0 0 0)
(0 0 0)
(0 0 0)
(0 0 0)
(0 0 0)
(0 0 0)
(0 0 0)
(0 0 0)
(0 0 0)
(0 0 0)
(0 0 0)
(0 0 0)
(0 0 0)
(0 0 0)
(0 0 0)
(0 0 0)
(0 0 0)
(0 0 0)
(0 0 0)
(0 0 0)
(0 0 0)
(0 0 0)
(0 0 0)
(0 0 0)
(0 0 0)
(0 0 0)
(0 0 0)
(0 0 0)
(0 0 0)
(0 0 0)
(0 0 0)
(0 0 0)
(0 0 0)
(0 0 0)
(0 0 0)
(0 0 0)
(0 0 0)
(0 0 0)
(0 0 0)
(0 0 0)
(0 0 0)
(0 0 0)
(0 0 0)
(0 0 0)
(0 0 0)
(0 0 0)
(0 0 0)
(0 0 0)
(0 0 0)
(0 0 0)
(0 0 0)
(0 0 0)
(0 0 0)
(0 0 0)
(0 0 0)
(0 0 0)
(0 0 0)
(0 0 0)
(0 0 0)
(0 0 0)
(0 0 0)
(0 0 0)
(0 0 0)
(0 0 0)
(0 0 0)
(0 0 0)
(0 0 0)
(0 0 0)
(0 0 0)
(0 0 0)