/*--------------------------------*- C++ -*----------------------------------*\
| =========                 |                                                 |
| \\      /  F ield         | OpenFOAM: The Open Source CFD Toolbox           |
|  \\    /   O peration     | Version:  5.x                                   |
|   \\  /    A nd           | Web:      www.OpenFOAM.org                      |
|    \\/     M anipulation  |                                                 |
\*---------------------------------------------------------------------------*/
FoamFile
{
    version     2.0;
    format      ascii;
    class       volScalarField;
    location    "1";
    object      voidfraction;
}
// * * * * * * * * * * * * * * * * * * * * * * * * * * * * * * * * * * * * * //

dimensions      [0 0 0 0 0 0 0];

internalField   nonuniform List<scalar> 
10571
(
0.522037
0.508923
0.498079
0.620635
0.506915
0.674599
0.967465
0.989198
0.932625
0.630359
0.89277
0.719191
0.985252
0.993271
0.967597
0.823726
0.655897
0.902651
0.794279
0.634708
0.503223
0.642141
0.960339
0.72022
0.996999
0.440027
0.989339
0.953206
0.808178
0.478432
0.936887
0.938708
0.974229
0.913854
0.454918
0.73457
0.982177
0.994448
0.981886
0.918352
0.493985
0.903773
0.860487
0.971298
0.880452
0.953009
0.994325
0.471358
1
0.910377
0.907989
0.991842
0.981762
0.831851
0.941271
0.837679
0.689456
0.799234
0.456153
0.836349
0.962576
0.952912
0.829632
0.856054
0.619015
0.815533
0.865875
0.982813
0.89744
0.562003
0.822597
0.433187
1
0.953285
0.864303
1
0.998381
0.990816
0.92955
0.958307
0.872453
0.849255
0.992527
0.651058
0.902272
0.89232
0.927828
0.787238
0.879094
0.728312
0.866838
0.910549
0.775552
0.45923
0.513936
0.546941
1
1
0.701687
1
0.999699
1
0.95567
0.998163
0.910572
0.940836
0.965805
0.984359
0.865314
0.95971
0.963189
0.768373
0.901912
0.880113
0.812639
0.871711
0.789185
0.763522
0.483983
0.481365
0.752406
1
0.875933
0.97596
0.990758
1
0.957422
0.996689
0.940952
0.871397
0.410788
0.867165
0.998546
0.974415
0.972795
0.971104
0.761413
0.418963
0.945631
0.981115
0.868396
0.990669
0.722535
0.872108
0.536976
0.425193
0.50872
1
0.959565
0.635017
0.8189
1
0.997436
0.982149
0.934968
0.923037
0.669355
0.804589
0.998207
0.997857
0.993282
0.977054
0.902083
0.720265
0.976812
0.995803
0.949761
0.941467
0.676134
0.75685
0.906102
0.720585
0.445406
0.972189
1
0.958889
0.776042
0.972178
1
0.997447
0.845723
0.877744
0.989326
0.996967
0.790951
0.995433
0.999253
0.993787
0.928235
0.859556
0.989431
0.979338
0.997806
0.989843
0.984317
0.559684
0.972798
0.932317
0.801696
0.460916
1
0.988181
0.819237
0.984627
0.996232
0.999358
0.964749
0.924713
0.99113
0.993064
0.998862
0.747299
0.98525
0.998704
0.947534
0.941402
0.989006
0.978675
0.937864
0.997139
0.969803
0.964357
0.571817
0.923797
0.884264
0.465965
1
0.971212
0.97662
0.997056
0.995032
0.862279
0.956302
0.992374
0.998414
0.998047
0.968331
0.955895
0.958761
0.916434
0.99111
0.987935
0.981475
0.975453
0.920939
0.952673
0.781136
0.945638
0.894394
0.570479
0.996812
0.990479
0.997538
0.997735
0.998438
0.977604
0.992207
0.998949
0.998355
0.996302
0.996151
0.986272
0.970813
0.98425
0.999065
0.995573
0.988483
0.976999
0.989096
0.998062
0.995954
0.971039
0.981974
0.996359
1
0.996752
0.999022
0.999223
1
1
0.99882
0.999443
0.998813
0.997598
1
0.997836
0.997163
0.99833
0.999376
0.997885
0.996242
0.997302
0.997789
0.998698
0.997623
0.997754
0.994686
0.99797
0.996262
0.998376
0.999022
0.998682
0.997747
0.997028
0.99963
0.998895
0.999293
0.994225
0.996152
0.998208
0.999423
0.999775
0.999647
0.999879
0.998286
0.999221
0.998783
0.998131
0.99734
0.996941
0.998128
0.99769
1
0.99944
1
0.99902
0.997957
0.998041
0.999447
0.999562
0.998837
0.999845
1
0.999966
0.999554
0.999214
0.999408
0.997188
0.998557
0.999043
0.999567
0.999032
0.995589
1
0.99852
0.995939
0.996811
1
0.999022
1
0.998258
0.999021
0.999557
0.999221
0.998865
0.997713
0.99956
0.999527
0.999685
0.999624
0.999068
0.999153
0.999098
0.998894
0.99926
0.998765
1
0.99849
0.99994
0.99797
1
1
1
0.99902
0.99997
0.999358
0.999668
0.999662
0.999422
0.998759
0.997911
0.997904
0.999669
0.999408
0.999319
1
0.999699
0.999245
0.999414
0.999065
1
0.998993
0.997373
1
0.996811
1
1
0.99902
1
1
0.999664
0.999374
0.999608
0.995502
1
0.99902
0.999554
0.999617
0.999262
0.999093
0.999128
0.999653
0.999648
0.999967
0.995939
0.998877
0.999698
0.997969
1
0.99832
1
0.99902
0.999129
1
0.999676
0.999889
0.999455
0.997751
1
1
0.999719
0.999326
0.999193
0.997249
0.999098
0.999297
0.999244
0.999032
0.9979
0.999961
0.998792
0.99993
0.996812
1
1
1
1
1
0.999737
0.999405
0.999229
0.999264
1
1
0.999627
0.999888
0.999765
0.999154
0.999128
0.999665
0.999584
0.999967
0.99741
0.9988
1
1
0.996812
1
1
1
0.99982
0.999797
0.999706
0.999666
0.998982
0.998023
0.99989
1
0.999888
0.999884
0.999647
1
1
0.999532
0.999555
0.999032
0.99594
0.998877
0.999124
0.9993
0.99945
1
1
1
0.9997
1
0.999889
0.999536
0.999532
1
1
1
0.99955
1
0.999651
1
1
0.999883
0.999624
0.999032
0.99867
1
0.998279
0.99797
1
1
1
0.99902
1
1
0.999691
0.999482
0.998946
0.998876
1
1
0.999669
0.999888
0.99957
0.999123
1
0.999532
0.999297
1
0.99993
0.997755
0.999124
1
1
1
1
1
1
1
0.999645
0.999777
1
0.998333
1
1
1
0.999775
0.999753
0.996826
1
0.999459
0.999883
0.999967
1
1
1
1
1
1
1
1
1
1
1
0.999467
0.999624
0.998876
1
1
0.999888
0.999814
0.999854
0.999154
1
0.999649
0.999531
0.999065
1
1
0.999124
0.99594
1
1
0.999056
1
1
1
1
0.999777
0.999532
0.998837
1
1
0.999888
0.999961
0.999769
0.999063
1
0.999883
0.99981
1
0.99797
1
0.998219
0.9993
1
1
1
1
1
0.999021
1
0.999916
0.999491
1
1
1
0.999888
0.999775
0.999765
1
1
0.999923
0.999766
0.999967
0.99664
1
0.999124
0.99797
1
1
1
1
1
0.999662
0.999668
0.999754
0.999338
0.996627
1
1
0.999888
0.999888
0.99953
0.999093
1
0.999996
0.999766
1
1
0.997755
1
1
0.996921
1
1
1
1
1
1
0.999889
0.999532
0.999961
1
1
1
0.999779
0.999765
1
0.99988
1
0.999879
1
1
1
0.998249
0.99755
1
0.998376
1
0.999797
1
1
0.999889
1
0.999883
0.998876
1
1
0.999888
1
0.999761
1
1
0.999766
0.999842
1
0.99727
1
1
1
1
1
1
1
1
1
0.999447
1
0.999762
1
1
1
1
1
0.999647
0.999819
0.999128
0.999766
1
1
1
1
1
0.99797
1
1
1
1
1
1
0.999889
1
0.99977
1
1
1
1
0.999853
0.999882
1
0.99982
0.999766
0.999996
1
0.99804
1
0.999124
1
1
1
1
1
1
1
1
1
0.99979
1
1
1
1
0.999926
0.999647
1
1
1
0.999883
1
1
0.999613
0.999124
0.99797
1
1
1
1
1
1
0.999889
1
0.999859
1
1
1
0.999888
0.999888
0.999882
0.997703
1
0.999883
0.999879
0.998498
1
1
1
1
1
1
1
1
1
1
0.999889
1
0.999883
1
1
1
1
1
0.999903
1
1
1
0.999883
1
1
1
1
1
1
1
1
1
1
1
1
0.999912
1
1
1
1
1
1
0.999672
0.999819
1
0.999883
0.999883
1
1
0.999264
0.999124
1
1
1
1
1
1
1
1
1
1
1
1
1
1
0.999888
0.999996
1
1
0.999883
0.999879
1
0.99594
1
1
1
1
1
1
1
1
1
1
0.999889
1
1
1
0.99902
0.999888
1
0.999882
1
1
0.999883
0.99996
1
1
0.998877
0.999819
1
1
1
1
1
1
1
1
1
1
1
1
1
1
1
0.999797
1
1
1
1
1
1
1
1
1
1
1
1
1
1
1
1
1
1
1
1
0.999223
0.999888
1
0.999765
0.999637
1
0.999996
1
1
1
1
1
0.99797
1
1
1
1
1
1
1
1
1
1
1
1
0.999888
0.999992
1
1
1
0.999883
0.999891
1
1
1
0.999426
1
1
1
1
1
1
1
1
1
1
1
1
1
0.999888
1
1
1
1
1
0.999766
1
1
1
0.999124
1
1
1
1
1
1
1
1
1
1
1
1
1
1
1
1
1
1
1
1
1
1
1
1
1
1
1
1
1
1
1
1
1
1
1
1
1
0.999781
1
1
1
1
0.999883
0.999883
1
0.99797
0.998916
1
1
1
1
1
1
1
1
1
1
1
1
1
1
0.999996
1
1
1
1
1
1
1
1
1
1
1
1
1
1
1
1
1
1
1
1
1
1
1
1
1
1
1
1
1
0.999883
1
1
1
1
1
1
1
1
1
1
1
1
1
1
1
1
1
1
1
1
1
1
1
1
1
1
1
1
1
1
1
1
1
1
1
1
1
1
1
1
1
1
1
1
1
1
1
1
1
1
1
1
1
1
1
1
1
1
1
1
1
1
1
1
1
1
1
1
1
1
0.999766
1
1
1
1
1
1
1
1
1
1
1
1
1
1
1
1
1
1
1
1
1
1
1
1
1
1
1
1
1
1
1
1
1
1
1
1
1
1
1
1
1
1
1
1
1
1
1
1
1
1
1
1
1
1
1
1
1
1
1
1
1
1
1
1
1
1
1
0.999996
1
1
1
1
0.999887
1
1
1
1
1
1
1
1
1
1
1
1
1
1
1
1
1
1
1
1
1
1
0.999883
0.999883
1
1
1
1
1
1
1
1
1
1
1
1
1
1
1
1
1
1
1
1
1
1
1
1
1
1
1
1
1
1
1
1
1
1
1
1
1
1
1
1
1
1
1
1
1
0.999429
1
1
1
1
1
1
1
1
1
1
1
1
1
1
1
1
1
1
1
1
1
1
1
1
0.999883
1
1
1
1
1
1
1
1
1
1
1
1
1
1
1
1
1
1
1
1
1
1
1
1
1
1
1
1
1
1
1
1
1
1
1
1
1
1
1
1
1
1
1
1
1
1
1
1
1
1
1
1
1
1
1
1
1
1
1
1
1
1
1
1
1
1
1
1
1
1
1
1
1
1
1
1
1
1
1
1
1
1
1
1
1
1
1
1
1
1
1
1
1
1
1
1
1
1
1
1
1
1
1
1
1
1
1
1
1
1
1
1
1
1
1
1
1
1
1
1
1
1
1
1
1
1
1
1
1
1
1
1
1
1
1
1
1
1
1
1
1
1
1
1
1
1
1
1
1
1
1
1
1
1
1
1
1
1
1
1
1
1
1
1
1
1
1
1
1
1
1
1
1
1
1
1
1
1
1
1
1
1
1
1
1
1
1
1
1
1
1
1
1
1
1
1
1
1
1
1
1
1
1
1
1
1
1
1
1
1
1
1
1
1
1
1
1
1
1
1
1
1
1
1
1
1
1
1
1
1
1
1
1
1
1
1
1
1
1
1
1
1
1
1
1
1
1
1
1
1
1
1
1
1
1
1
1
1
1
1
1
1
1
1
1
1
1
1
1
1
1
1
1
1
1
1
1
1
1
1
1
1
1
1
1
1
1
1
1
1
1
1
1
1
1
1
1
1
1
1
1
1
1
1
1
1
1
1
1
1
1
1
1
1
1
1
1
1
1
1
1
1
1
1
1
1
1
1
1
1
1
1
1
1
1
1
1
1
1
1
1
1
1
1
1
1
1
1
1
1
1
1
1
1
1
1
1
1
1
1
1
1
1
1
1
1
1
1
1
1
1
1
1
1
1
1
1
1
1
1
1
1
1
1
1
1
1
1
1
1
1
1
1
1
1
1
1
1
1
1
1
1
1
1
1
1
1
1
1
1
1
1
1
1
1
1
1
1
1
1
1
1
1
1
1
1
1
1
1
1
1
1
1
1
1
1
1
1
1
1
1
1
1
1
1
1
1
1
1
1
1
1
1
1
1
1
1
1
1
1
1
1
1
1
1
1
1
1
1
1
1
1
1
1
1
1
1
1
1
1
1
1
1
1
1
1
1
1
1
1
1
1
1
1
1
0.720355
0.698479
0.752961
0.712059
0.776035
0.772989
0.69353
0.509709
0.849995
0.700347
0.685879
0.802004
0.690133
0.672326
0.594304
0.755721
0.678003
0.64062
0.662232
0.58276
0.565175
0.60099
0.5241
0.632334
0.59138
0.58521
0.920101
0.807335
0.900644
0.825245
0.707803
0.671308
0.657185
0.747968
0.771991
0.720285
0.71604
0.759566
0.650208
0.750324
0.799668
0.584641
0.601791
0.798751
0.811308
0.559372
0.553527
0.603685
0.911645
0.876618
0.715093
0.581726
0.615293
0.585938
0.564643
0.734809
0.715048
0.723509
0.682638
0.714995
0.729428
0.682569
0.670392
0.834521
0.808795
0.737321
0.689467
0.575549
0.683695
0.570543
0.639
0.708361
0.603698
0.577357
0.6
0.72678
0.648345
0.870256
0.842263
0.625093
0.615374
0.850714
0.797297
0.614897
0.52909
0.538131
0.48127
0.503353
0.478885
0.647031
0.741021
0.503839
0.784086
0.714795
0.525659
0.570049
0.529079
0.425622
0.56437
0.487226
0.487116
0.922995
0.686912
0.885792
0.485386
0.491027
0.899874
0.88179
0.919311
0.449723
0.832136
0.767886
0.515794
0.496625
0.535004
0.513556
0.416938
0.452453
0.460257
0.465534
0.457928
0.696396
0.524539
0.724656
0.523512
0.931497
0.836177
0.489321
0.807235
0.847186
0.800146
0.868986
0.592653
0.597369
0.558931
0.821203
0.640896
0.900929
0.936436
0.841999
0.730091
0.545847
0.610947
0.468641
0.455427
0.688712
0.530462
0.880206
0.801732
0.733753
0.540933
0.407084
0.7606
0.456074
0.55213
0.482727
0.788753
0.414137
0.698201
0.621916
0.462002
0.45117
0.900793
0.881088
0.568781
0.560116
0.689128
0.421474
0.566167
0.882612
0.815931
0.867766
0.94536
0.899816
0.937847
0.876945
0.957734
0.904879
0.978055
0.533938
0.682828
0.887693
0.98435
0.962812
0.964541
0.993701
0.963826
0.964038
0.984944
0.999926
1
0.996512
1
0.975045
0.976574
0.416906
0.401737
0.727411
0.453201
0.487824
0.797263
0.919672
0.688941
0.852227
0.555872
0.931978
0.820855
0.911184
0.520272
0.760864
0.647071
0.851507
0.785896
0.454802
0.471946
0.431759
0.436903
0.432952
0.436134
0.927515
0.881157
0.961876
0.943661
0.874977
0.425944
0.424158
0.42775
0.422535
0.440839
0.856968
0.932995
0.917507
0.866564
0.955574
0.3982
0.412601
0.924168
0.434177
0.836629
0.514874
0.857108
0.426651
0.592861
0.949512
0.702802
0.77718
0.997291
0.975903
0.702761
0.77342
0.910963
0.831035
0.545172
0.960796
0.965827
0.847974
0.970016
0.930212
0.786464
1
0.970581
0.651328
0.980681
0.4352
0.91356
0.831174
1
0.886486
0.974185
1
0.865502
0.988757
1
1
1
1
1
0.98874
0.986654
0.544643
0.920426
0.783269
0.769565
0.868102
0.966404
0.70788
0.951013
0.772008
0.648376
0.690792
0.50717
0.990141
0.866114
0.909134
0.585912
0.534116
0.509847
0.469845
0.438538
0.450822
0.699565
0.500572
0.591709
0.847419
0.901119
0.633704
0.627727
0.614167
0.445432
0.531732
0.739748
0.62366
0.884195
0.914644
0.951203
0.668572
0.733123
0.861526
0.598869
0.906195
0.758625
0.428459
0.477086
0.846289
0.81885
0.480158
0.487948
0.973942
0.645133
0.688789
0.952116
0.957729
0.65165
0.596951
0.936157
0.458047
0.439408
0.793925
0.709933
0.483122
0.566276
0.573991
0.550155
0.789259
0.65584
0.549344
0.580041
0.497004
0.595082
0.567144
1
0.829922
0.999123
1
0.721884
0.998094
1
0.998879
1
0.999818
1
0.991919
0.995398
0.938897
0.999234
0.75043
0.992301
0.890478
0.984603
0.917926
1
0.98993
0.960739
0.995864
0.725597
0.996724
0.973506
0.998945
0.803954
0.666018
0.783605
0.905302
0.867023
0.924246
0.988975
0.996262
0.989468
0.819002
0.6755
0.932439
0.863442
0.972868
0.923675
0.987664
0.99978
0.989071
0.978556
0.722635
0.825896
0.833663
0.957802
0.913068
0.851204
0.708349
0.845424
0.693167
0.706013
0.885977
0.943062
0.743056
0.881222
0.845522
0.707483
0.526207
0.884588
0.707423
0.698134
0.478357
0.683418
0.438343
0.542555
0.474251
0.489662
0.551404
0.486158
0.469055
0.599223
0.464917
0.475302
0.551603
0.45573
0.527336
0.668112
0.761899
1
0.577801
0.937752
0.87883
0.502524
0.69001
1
1
0.965699
0.986909
1
0.999721
0.999721
1
1
0.994849
1
1
1
0.99982
1
1
0.962331
1
0.84954
0.996682
0.962691
0.999434
0.813457
0.770126
0.816852
1
0.996811
0.99679
1
1
1
0.825393
0.973769
0.906531
0.790099
0.875015
0.971831
0.906068
0.944581
0.958252
0.856566
0.967925
0.952492
0.716202
0.887666
0.855186
0.635401
0.642135
0.992321
0.737838
0.919039
0.925187
0.985913
0.771732
0.948868
0.725246
0.684491
0.458018
0.9649
0.76438
0.708475
0.490142
0.64465
0.726723
0.790518
0.575644
0.490324
0.838886
0.710995
0.507523
0.48451
0.451322
0.491207
0.455948
0.458417
0.445117
0.809146
0.855982
0.588209
0.49794
0.509209
0.478701
0.518529
0.450906
0.870878
0.985117
0.538024
0.551749
0.815528
0.979754
0.877571
1
1
1
1
1
1
1
1
1
0.909751
0.944538
0.74535
0.811292
0.77422
0.747173
0.842946
0.859759
0.928472
1
1
1
1
0.973168
0.999122
0.609128
0.826295
0.505381
0.900135
0.540452
0.916438
0.635828
0.380524
0.427652
0.406535
0.417467
0.4175
0.418657
0.416492
0.947521
0.809235
0.767313
0.941486
0.809841
0.499381
0.793659
0.622432
0.949379
0.622604
0.888774
0.494538
0.403698
0.436941
0.392648
0.42406
0.414086
0.417974
0.418044
0.698282
0.782334
0.977236
0.825452
0.962127
0.965624
0.981978
0.868703
0.968027
0.893484
0.677719
0.552026
0.975099
0.88756
0.60774
0.550363
0.709707
0.836067
0.866359
0.838383
0.511609
0.886157
0.89895
0.562631
0.452642
0.46621
0.640774
0.44991
0.470807
0.418375
0.84601
0.864065
0.459497
0.532493
0.430461
0.591216
0.56671
0.512679
0.473895
0.832117
0.818953
0.710577
0.941923
0.910637
0.963131
1
1
1
1
1
1
0.99976
1
1
0.907981
0.923027
0.90769
0.950041
0.967832
0.958857
0.966535
0.959928
0.945023
0.986454
0.999754
0.798032
0.490025
0.99854
0.98835
1
0.941277
0.998243
1
0.96481
0.998243
0.908258
0.843607
0.920727
0.954567
0.98103
0.91911
0.9762
0.451629
0.734929
0.47097
0.997589
0.977435
0.993338
0.986129
0.957152
0.860343
0.844835
0.970818
0.90364
0.898725
0.94045
0.834065
0.747495
0.935074
0.84631
0.83844
0.476726
0.635375
0.446449
0.983783
0.973369
0.938372
0.939439
0.869121
0.905537
0.989902
0.891317
0.971056
0.981683
0.992574
0.897615
0.976625
0.821398
0.54799
0.476898
0.962273
0.733212
0.567728
0.441836
0.823975
0.649368
0.713463
0.468637
0.938132
0.968572
0.891758
0.895466
0.931784
0.598429
0.924107
0.932836
0.635202
0.465628
0.465567
0.750945
0.501928
0.503347
0.441846
0.873476
0.832977
0.864657
0.630585
0.793328
0.966686
0.656373
0.911049
0.967518
0.984592
0.991755
0.991485
0.997715
0.984631
0.992066
1
1
1
1
1
0.996751
0.996104
0.999136
1
0.996823
0.944965
0.988092
0.994225
0.997085
0.971521
0.99345
0.98592
0.996601
0.99401
0.997844
0.998528
1
1
1
0.998877
0.923791
0.995305
1
0.882773
0.993214
0.995894
0.970313
0.992635
0.991851
0.998113
0.988961
0.99974
1
0.995908
0.996417
0.998532
1
0.999161
0.998847
0.955483
0.911968
0.754442
0.915968
0.935128
0.985092
0.759245
0.87514
0.96019
0.986889
0.785717
0.864417
0.99431
0.939362
0.991921
0.9815
0.993522
0.967805
0.993328
0.886074
0.886073
0.996007
0.903748
0.978927
0.973232
0.999142
0.902792
0.975869
0.715454
0.648138
0.429718
0.996671
0.708108
0.693039
0.443863
0.716271
0.538646
0.890963
0.992876
0.996984
0.994253
0.894628
0.910511
0.95
0.670654
0.923527
0.94997
0.775682
0.560182
0.561518
0.835389
0.623238
0.580053
0.480163
0.777769
0.879687
0.986586
0.795308
0.973256
1
0.947784
0.993095
0.995848
0.99663
1
0.998242
0.99969
1
0.990445
1
0.992059
0.969582
1
0.994462
0.979948
0.895688
0.993294
0.965771
1
0.993306
0.998945
0.998613
1
0.995964
0.997291
0.996625
0.995336
0.995316
0.821964
0.975917
0.966517
0.882448
0.947323
0.998431
0.995639
0.993976
0.998441
0.997854
0.997624
0.996043
1
0.998349
1
1
1
0.998725
1
0.904575
0.946825
0.907631
0.951698
0.952093
0.977982
0.882415
0.893957
0.987741
0.973144
0.900324
0.926453
0.998472
0.983891
0.996063
0.986095
1
0.992464
1
0.928701
0.964979
0.993762
0.95134
0.977655
0.960753
0.989474
0.962986
0.979715
0.683701
0.64324
0.460055
0.833415
0.813915
0.624304
0.492493
0.634944
0.88952
0.909183
0.956884
0.800917
0.943856
0.960697
0.852388
0.627847
0.678469
0.910611
0.599754
0.756492
0.460885
0.954275
0.985433
0.996811
0.989705
0.997426
1
0.99791
1
0.999121
0.997754
1
0.99997
0.999303
0.997977
0.997978
0.983002
0.952005
0.903998
0.958458
0.903846
0.96046
0.970849
0.893827
0.93401
0.998485
0.998672
0.998817
0.997384
0.998371
0.999041
0.996783
0.995397
0.997931
0.906676
0.93952
0.904131
0.939193
0.965032
0.947206
0.999074
1
1
0.99911
0.994042
0.964699
0.964022
0.988344
0.981759
0.988614
0.993
0.95134
0.994506
0.989219
0.987791
0.984932
0.993164
0.990067
0.970018
0.974871
0.99155
0.986046
0.978738
0.974873
0.917441
0.857181
0.635329
0.990559
0.976718
0.951605
0.864352
0.937774
0.91996
0.955923
0.960151
0.947319
0.966896
0.968284
0.971135
0.758005
0.822228
0.940906
0.950082
0.959289
0.919812
0.995818
1
1
0.998529
0.998213
1
0.998297
0.998123
0.997365
0.999961
0.996812
0.998213
0.997755
0.997978
1
0.980496
0.99603
0.994967
0.957778
0.98825
1
0.999131
0.997408
0.997201
0.998315
1
0.999546
0.998078
0.997417
0.998089
0.997793
0.995401
0.996232
0.980609
0.977788
0.992973
0.997252
1
0.996487
0.997572
0.996839
0.998256
0.998094
0.993627
0.997516
0.997677
1
0.998788
0.998877
0.989108
0.993466
0.998549
1
0.99791
0.994629
0.995884
0.969783
0.982788
0.960312
0.983132
0.96161
0.983407
0.977085
0.995607
0.996473
0.991246
0.998365
0.997348
0.99389
0.996724
0.996368
0.973414
0.993983
0.987163
0.980684
0.990747
0.99411
0.996817
0.997753
0.996818
0.995108
0.995623
1
1
0.998049
1
1
1
0.999122
1
0.99853
0.99997
0.996062
1
0.996811
0.999697
0.998878
1
0.997978
0.99401
1
0.99997
0.998302
0.998047
0.998376
1
0.999136
1
0.993709
0.997892
0.99873
0.999009
0.998034
0.997134
0.998246
0.994341
0.997483
0.999729
0.996811
0.996487
0.999961
1
1
0.993407
1
0.997675
0.998941
1
0.997697
0.998838
0.996811
0.998394
0.997793
0.994945
0.995319
0.997371
1
1
0.997977
1
0.989117
0.9982
0.992341
0.999759
0.999373
0.995838
0.999122
0.998232
0.997051
1
1
0.99939
0.997629
0.998983
0.99867
1
0.998041
0.994865
1
0.996825
0.997191
1
0.99663
0.998244
0.99846
0.997018
0.996708
0.992159
1
0.997979
1
0.998104
1
1
1
0.999152
0.998698
1
0.99967
0.999788
0.9988
0.997978
1
1
0.994706
0.999131
0.999345
1
0.998936
0.999131
0.997468
1
0.999663
1
0.999123
0.99988
1
1
0.999425
0.997972
1
0.996672
0.998241
0.998213
0.996672
0.997471
0.997396
0.999123
0.993619
0.997519
0.995612
1
0.996819
0.998103
0.99989
0.999424
0.999264
0.994065
0.996903
0.9987
1
0.994851
1
0.997977
0.998978
0.999269
0.999122
0.998978
0.999373
0.997525
1
0.998231
0.997325
0.999943
0.997096
0.997041
0.996686
0.999943
0.995799
0.99986
0.994053
0.999305
1
0.99969
1
0.996817
0.998722
1
0.998188
1
0.996269
1
1
1
1
1
0.99997
1
0.998878
0.999425
0.999122
0.997755
1
0.997365
1
1
0.997978
1
0.99798
1
1
1
0.997312
1
1
1
1
0.996507
0.997489
0.999129
1
1
0.999637
0.99923
0.997691
0.999226
0.996811
0.998244
0.998491
0.993623
1
0.997972
0.993619
0.996744
0.996641
0.996809
0.998243
0.999613
0.996811
0.998243
0.998877
0.993625
0.996554
0.999093
0.996813
1
1
1
0.999143
0.998369
0.998577
1
0.999044
0.998369
0.999152
0.997132
0.99924
0.997174
1
0.99817
0.999666
0.995253
1
0.99916
1
0.997372
0.996817
1
0.998822
1
0.997754
0.989574
0.99843
1
1
1
1
1
0.993623
0.998878
1
1
1
0.999122
1
0.998877
1
0.999122
1
0.995956
1
0.997841
1
1
0.998332
1
1
1
1
0.998113
0.99837
0.99911
0.999092
0.998828
1
0.999044
1
0.997901
0.997971
0.996633
1
0.999122
0.999032
1
0.995488
0.999122
0.99681
0.998837
0.998245
1
0.998303
0.997793
0.997471
0.998455
0.999497
1
0.995896
0.999123
1
0.996244
1
1
0.999044
1
0.999092
1
0.999242
0.997806
0.999152
0.998414
0.998571
0.997683
1
1
0.997385
0.999943
1
1
1
0.999426
0.997915
1
0.999124
0.998902
0.998915
0.996817
0.998671
0.999845
1
1
0.998049
1
1
1
0.998425
1
1
0.999818
1
0.997755
0.996811
1
0.998877
0.998048
1
0.99798
1
0.999101
1
1
1
0.998263
1
1
0.99837
1
0.998124
0.999129
0.99837
0.998089
0.996793
0.994333
0.997342
0.997717
0.995712
0.999122
0.996672
0.996811
0.997365
0.999122
1
0.997752
1
0.992409
0.99894
0.998877
1
0.999091
0.9988
1
1
0.999123
0.98846
1
1
1
0.999967
0.9973
0.996519
0.998557
1
1
0.999122
1
1
0.996779
0.998364
0.999695
0.999118
1
1
0.997971
1
0.997101
1
0.997987
0.998248
0.996817
0.998567
0.99989
0.999426
0.998877
1
0.99797
0.997979
1
1
0.998878
0.999122
1
0.998878
0.999122
1
1
1
1
1
0.997978
1
1
0.99798
1
1
1
1
0.9997
0.99997
0.999382
1
0.999044
0.997367
0.999129
1
0.998418
0.99882
0.995942
0.997972
1
0.996811
0.999122
1
0.996811
1
0.999425
1
0.995504
0.999697
0.992959
1
0.998877
0.996811
0.998243
1
0.99989
0.998877
0.998156
0.994285
1
1
1
1
0.998369
0.999122
1
1
1
0.999122
0.999115
0.999118
1
1
0.998932
0.998754
1
0.99804
1
1
1
1
0.998877
0.999305
1
0.999264
1
1
0.999613
1
0.99888
1
1
1
1
0.999152
1
1
0.99997
1
0.999613
1
0.999091
1
0.998048
0.99993
1
1
0.999461
0.999166
0.99987
1
1
1
1
0.99837
0.999967
0.998245
1
1
1
0.999123
0.995942
0.997972
1
1
0.999122
1
1
0.999122
1
0.994279
0.998488
0.998427
0.99483
1
0.998877
0.99989
0.999455
1
0.996043
0.995896
0.997491
0.993186
0.999961
1
1
0.999967
0.998425
0.999122
0.999128
1
1
0.999122
0.999878
0.999118
0.998361
1
0.999115
0.99924
0.999774
0.998459
1
0.997971
0.998098
0.996818
0.998877
0.998248
1
0.998877
0.996818
0.997705
0.998877
1
0.997969
0.995958
1
0.99978
1
1
1
1
1
0.998334
1
1
1
1
1
0.994561
1
1
0.998293
0.999136
0.999024
1
0.999161
1
1
1
0.999045
1
0.998167
0.995672
1
1
1
1
0.999961
1
0.999152
1
1
1
0.998941
0.99978
0.998798
0.998245
0.996919
0.999697
0.998877
0.996921
1
0.998877
0.99989
0.999187
1
0.996812
0.999729
0.997977
0.998675
1
0.999438
1
0.999429
0.99878
0.998931
1
0.999146
1
0.996723
1
0.999115
1
1
0.993978
1
1
1
1
0.999845
1
1
1
1
0.999124
1
0.996817
0.99867
1
1
1
0.998878
0.999183
1
1
0.999122
1
0.998878
0.996811
1
1
1
0.998048
0.998398
1
0.999131
0.999136
1
1
1
1
1
0.999438
0.997463
1
0.997656
0.99837
1
1
0.997762
0.997901
0.999768
1
1
1
1
1
0.999123
0.99362
0.998759
0.998245
1
1
1
1
1
1
0.99989
1
0.999123
0.988458
0.999109
0.999303
1
1
0.999438
1
0.999128
0.999044
0.9973
0.999122
0.999115
0.999118
1
0.999032
0.997529
0.998236
1
1
1
1
1
0.996817
0.998877
1
1
1
1
0.999638
1
0.998134
1
1
1
1
1
1
0.996811
1
1
0.99997
1
0.994612
0.999909
0.998877
1
1
1
1
1
1
1
0.998432
0.99997
1
1
1
1
0.998245
1
1
1
0.996369
1
0.998251
1
1
1
1
1
1
1
0.9989
0.998876
1
0.996809
0.999182
0.999923
1
0.998273
1
0.993627
0.996013
0.999093
0.996922
0.998877
1
1
1
1
1
1
1
1
1
0.998932
1
0.999943
1
1
0.99997
0.995139
1
0.997971
0.997971
0.999124
1
0.998877
1
0.996817
0.999961
1
1
1
1
1
1
1
1
0.998878
0.999122
1
1
0.999122
1
1
1
0.999152
0.999961
1
1
1
1
1
1
1
1
0.998263
0.99997
1
1
0.999671
0.999123
1
1
0.999374
0.999122
0.997971
1
1
1
1
1
1
1
1
0.99373
0.998876
0.998245
0.996809
0.999122
1
0.996811
1
1
0.99989
0.998877
0.997914
1
1
1
1
1
0.998369
1
1
1
1
1
0.998261
0.999149
0.998361
1
0.998597
0.999118
1
0.99916
0.997971
1
1
1
0.997754
1
0.997915
0.999613
1
0.99997
0.999303
0.998902
1
1
0.995958
1
1
1
0.996811
1
1
1
1
1
1
1
1
1
1
1
0.998263
0.999166
1
1
1
1
1
1
0.999407
0.999092
0.999429
0.999438
0.997759
1
1
0.993914
1
1
1
1
1
1
0.999849
0.99373
0.999729
0.999032
0.996919
0.999122
0.999264
1
1
1
0.996703
0.998877
0.999123
0.996702
1
1
1
1
1
1
1
1
1
1
1
0.999818
0.9987
0.999967
0.99823
0.999118
0.998361
1
1
1
0.998822
0.996817
1
0.999094
1
1
1
0.999124
1
1
1
1
1
1
1
1
1
1
1
0.999122
1
1
0.999122
0.998877
1
1
1
1
1
1
1
1
1
1
1
1
0.999045
0.999123
1
1
0.999044
1
1
1
0.998878
1
1
1
1
1
0.999123
1
0.998876
1
0.9989
0.999122
1
1
1
1
0.996703
1
0.999093
0.994834
0.998877
1
1
1
1
1
1
0.999044
1
1
0.999298
1
0.997683
0.999933
0.998474
1
1
1
1
1
1
1
1
1
1
0.998916
0.996817
1
1
1
0.9986
1
0.997979
1
0.999961
1
1
1
1
1
1
1
1
1
1
1
1
1
0.999132
0.999136
1
1
0.999131
0.999166
1
0.999438
1
1
1
0.998932
1
1
1
0.998811
0.999381
1
1
0.998374
1
1
0.999153
0.99791
0.998411
1
1
1
0.999961
1
1
0.998916
0.998901
0.99969
0.999063
1
0.998219
1
0.998674
1
1
1
1
0.999044
0.998369
1
1
1
1
1
0.999085
0.999696
1
0.998039
1
1
1
1
0.997832
0.999033
1
1
0.996817
1
0.998877
1
0.997969
1
1
0.996811
1
1
1
1
1
1
1
1
1
1
1
1
0.998119
1
0.999132
0.99997
1
1
1
1
0.999675
1
1
1
0.999129
1
1
1
1
0.995942
0.999923
1
1
1
1
1
1
1
1
0.998245
1
1
1
0.996812
1
1
0.996813
0.997794
0.9974
1
0.998838
0.999303
1
0.99967
1
0.999516
0.999639
0.999044
0.999044
0.999425
0.999146
1
0.998361
1
0.99823
0.999118
0.999435
0.9993
0.99979
0.99993
0.999154
1
1
0.999124
1
1
1
1
1
1
0.995939
0.99993
1
1
0.999303
1
1
0.999613
1
1
1
1
1
1
1
1
1
1
0.999132
1
1
1
1
1
1
1
0.998847
1
1
1
0.999242
1
1
0.997971
0.999265
1
1
1
1
1
1
0.99989
0.999961
0.999153
0.994829
1
1
1
1
0.998877
1
1
1
1
1
1
0.999163
1
1
0.998578
0.998918
1
1
0.999122
1
1
0.998926
0.999032
0.99823
1
1
1
1
1
1
1
1
0.999426
1
1
1
1
0.998877
1
1
1
1
1
1
1
1
1
1
0.99997
1
1
1
1
1
1
1
0.99798
0.999132
1
1
1
1
1
1
1
1
1
1
1
1
1
1
0.997971
1
1
0.999122
1
1
1
0.998578
0.9989
0.997751
0.997942
1
1
1
1
1
1
1
0.998877
1
1
0.997754
0.999581
1
0.999044
1
1
1
1
1
1
0.999115
0.999878
1
0.999032
1
0.999513
1
1
1
1
0.998822
0.996927
1
1
0.99989
1
1
1
0.999845
1
0.997339
1
1
1
1
1
1
0.998878
1
1
1
1
1
1
1
1
1
1
1
1
0.999089
0.999944
0.999161
1
0.999967
1
1
1
1
1
1
1
1
1
1
1
0.999122
1
1
1
0.999123
0.99681
1
0.998245
1
1
1
1
1
1
1
0.997755
0.999123
1
0.998954
1
1
1
1
1
1
1
1
1
1
0.998541
1
1
0.999329
0.999118
0.998361
0.996499
1
1
1
1
1
1
1
0.998877
1
1
0.999264
1
0.997969
1
1
1
1
1
1
1
1
1
1
1
1
1
1
1
1
1
1
1
1
1
1
1
0.999056
1
1
1
1
1
1
1
1
1
1
1
1
1
1
1
0.999122
0.99681
0.998876
0.999122
0.996809
1
1
1
1
1
1
1
0.998428
1
0.998877
1
1
1
1
1
1
1
1
1
0.999817
1
1
1
1
1
1
1
1
1
1
1
1
1
1
1
1
1
1
1
1
1
1
1
1
1
1
1
1
1
1
1
1
1
1
1
1
1
1
1
1
1
0.998263
1
1
1
1
1
1
0.998371
0.999671
0.999425
1
1
1
1
1
1
1
0.999122
1
1
1
0.999122
1
1
1
1
1
1
0.996813
1
1
1
1
1
0.998047
1
1
0.999122
0.99997
1
1
0.999122
0.999969
1
0.9987
1
0.999115
0.998236
0.999661
0.995939
1
1
1
1
0.999264
1
1
1
0.996817
0.998248
1
1
1
1
1
1
1
1
1
1
1
1
1
1
1
1
1
1
0.99798
1
1
1
1
1
1
1
1
1
1
1
1
1
1
1
1
1
1
1
0.999122
1
1
1
1
1
1
0.998245
1
1
1
1
1
1
1
0.997987
0.999123
1
0.999768
1
1
1
1
1
1
1
1
1
1
1
0.998361
1
1
1
0.996722
1
1
1
1
1
0.998877
1
1
1
1
1
1
1
1
1
1
1
1
1
1
1
1
1
1
1
1
1
1
1
1
1
0.999132
1
1
0.998376
1
1
1
1
1
1
1
1
1
1
1
1
1
1
0.999697
1
1
0.999424
1
1
1
0.999425
1
1
1
1
1
1
0.998791
1
0.999123
0.998901
1
1
1
1
1
1
1
1
1
1
0.997651
0.997568
0.999943
1
1
0.999118
1
1
1
1
1
1
1
1
1
0.998916
1
1
1
1
1
1
1
1
1
1
1
1
1
1
1
1
1
1
1
1
1
1
1
1
1
1
1
1
1
1
1
1
1
1
1
1
1
1
1
1
1
1
1
1
0.999697
1
1
0.999122
1
1
1
1
1
1
0.997912
1
0.999819
1
0.999651
1
0.997978
1
1
1
1
1
1
1
1
1
1
1
1
0.999118
0.999943
1
1
1
0.999124
1
0.999613
1
1
1
1
1
1
1
1
1
1
1
1
1
1
1
1
1
1
1
1
1
1
1
1
1
1
1
1
1
1
1
1
1
1
1
1
1
1
1
1
1
1
1
0.999697
1
1
0.999424
1
0.99681
1
1
1
0.999939
0.998955
1
1
1
1
0.999381
1
1
0.999923
1
1
1
1
1
1
1
1
0.999122
1
1
0.998418
1
1
1
1
0.997969
1
1
0.999124
0.996926
1
1
1
1
0.99989
0.999124
0.998877
1
1
1
1
1
1
1
1
1
1
1
1
1
1
1
1
1
0.998259
1
1
0.999881
1
1
1
1
1
1
1
1
1
1
1
1
1
1
0.998878
1
0.999122
1
1
1
1
1
1
1
0.996809
1
1
1
1
1
1
0.998877
0.999123
1
0.999613
1
1
1
1
1
1
1
1
1
0.99942
0.999118
1
1
0.999695
0.999118
1
1
1
1
1
1
1
1
1
1
1
0.999336
0.998877
1
1
1
0.997979
1
1
1
1
1
1
1
1
1
1
1
1
1
1
1
1
0.999136
1
0.998376
1
1
1
1
1
1
1
1
1
1
1
1
1
1
1
1
1
1
1
1
1
1
1
1
1
1
1
1
1
0.999264
0.999244
0.99956
1
1
1
0.99967
1
0.998547
1
1
1
1
1
0.999422
1
1
1
0.999118
1
1
1
1
1
1
1
1
1
0.998877
1
1
1
1
1
1
1
1
1
1
1
1
1
1
1
1
1
1
1
1
1
1
1
1
1
1
1
1
1
1
1
1
1
1
1
1
1
1
1
1
1
1
1
0.999122
1
1
1
1
1
1
1
1
1
1
1
0.998877
1
1
0.99969
1
1
0.999044
1
1
1
1
1
1
1
0.999118
1
1
1
1
1
1
0.997971
1
1
1
1
1
1
0.998877
1
0.999124
1
1
1
1
1
1
1
1
1
1
1
1
1
1
1
1
1
1
1
1
1
1
1
1
1
1
1
1
1
1
1
1
1
1
1
1
1
1
1
0.999768
1
1
1
1
1
1
1
1
1
1
1
1
0.998132
1
1
1
1
1
1
1
1
1
1
1
1
1
1
1
1
1
1
1
1
1
1
1
0.998248
1
0.998916
1
1
1
1
0.999124
1
1
1
1
1
1
1
1
1
1
1
1
0.998878
1
1
1
1
1
0.99596
1
1
1
1
1
1
1
1
1
1
1
1
1
1
1
1
1
0.99911
1
1
1
1
0.999122
1
1
1
1
1
1
1
1
1
1
1
1
1
1
1
0.997977
0.999582
1
1
1
1
1
1
1
1
1
1
1
0.999146
0.999118
1
0.997969
1
1
1
1
1
1
1
1
1
0.999698
1
1
1
1
1
1
1
1
1
1
1
1
1
1
1
1
1
1
1
1
1
1
1
0.998376
1
1
1
1
1
1
1
1
1
1
1
1
1
1
1
1
1
1
1
1
1
1
1
0.999121
1
1
1
1
1
1
1
1
0.998877
0.998395
1
1
1
1
1
1
1
1
0.999969
1
1
1
1
1
0.998361
1
1
0.997971
0.999124
1
1
1
1
1
1
1
0.998877
1
1
0.997979
1
1
1
1
1
1
1
1
1
1
1
1
1
1
1
1
1
1
1
1
1
0.999136
1
1
1
1
1
1
1
1
1
1
1
1
1
1
1
1
1
1
1
1
1
1
1
1
1
1
1
1
1
1
1
1
1
1
1
1
1
1
1
1
1
1
1
1
1
1
1
1
1
1
0.998248
1
1
1
1
1
1
0.999124
0.998877
1
1
1
1
1
1
1
1
1
1
1
1
1
1
1
1
1
1
1
1
1
1
1
1
1
1
1
1
1
1
1
1
1
1
1
1
1
1
1
1
1
1
1
1
1
1
1
1
1
1
1
1
1
1
1
1
1
1
1
1
1
1
1
1
1
1
0.999118
1
1
1
1
1
1
0.99993
1
1
1
1
1
1
1
1
1
1
1
1
1
1
1
1
1
1
1
1
1
1
1
1
1
1
1
1
1
1
1
1
1
1
1
1
1
1
1
1
1
1
1
1
1
1
1
1
1
1
1
1
1
1
1
1
1
1
1
1
1
1
1
1
1
1
1
1
1
1
1
1
1
1
1
1
1
1
1
1
1
1
1
1
1
1
1
1
1
1
1
1
1
1
1
1
0.998328
0.999651
1
1
1
1
1
1
1
1
1
1
1
1
1
1
1
1
1
1
1
1
1
1
1
1
1
1
1
1
1
1
1
1
1
1
1
1
1
1
1
1
1
1
1
1
1
1
1
1
1
1
1
1
1
1
1
1
1
1
1
1
1
0.999115
1
1
1
1
1
1
1
1
1
1
1
1
1
1
1
1
1
1
1
1
1
1
1
1
1
1
1
1
1
1
1
1
1
1
1
1
1
1
1
1
1
1
1
1
1
1
1
1
1
1
1
1
1
1
1
1
1
1
0.999122
0.999153
1
1
0.99997
1
1
1
1
1
1
1
1
1
1
1
1
1
1
1
1
1
1
1
1
1
1
1
1
1
1
1
1
1
1
1
1
1
1
1
1
1
1
1
1
1
1
1
1
1
1
1
1
1
1
1
1
1
1
1
1
1
1
1
1
1
1
1
1
1
1
1
1
1
1
1
1
1
1
1
1
1
1
1
1
1
1
1
1
1
1
1
1
1
1
1
1
1
1
1
1
1
1
1
1
1
1
1
1
1
1
1
1
1
1
1
1
1
1
1
1
1
1
1
1
1
1
1
1
1
1
1
1
1
1
1
1
1
1
1
1
1
1
1
1
1
1
1
1
1
1
1
1
1
1
1
1
1
1
1
1
1
1
1
1
1
1
1
1
1
1
1
1
1
1
1
1
1
1
1
1
1
1
1
1
1
1
1
0.999122
1
1
1
1
0.999969
1