/*--------------------------------*- C++ -*----------------------------------*\
| =========                 |                                                 |
| \\      /  F ield         | OpenFOAM: The Open Source CFD Toolbox           |
|  \\    /   O peration     | Version:  5.x                                   |
|   \\  /    A nd           | Web:      www.OpenFOAM.org                      |
|    \\/     M anipulation  |                                                 |
\*---------------------------------------------------------------------------*/
FoamFile
{
    version     2.0;
    format      ascii;
    class       volScalarField;
    location    "0.55";
    object      Ksl;
}
// * * * * * * * * * * * * * * * * * * * * * * * * * * * * * * * * * * * * * //

dimensions      [1 -3 -1 0 0 0 0];

internalField   nonuniform List<scalar> 
10571
(
12430.2
3957.43
4996.66
3800.2
6219.81
1680.94
679.667
219.601
291.131
5983.88
11438.8
2220.53
842.551
218.668
85.229
4177.94
10187.3
779.237
235.383
491.827
2443
5298.65
4859.32
734.754
11306.3
8196.7
11408.5
9140.35
7197.59
9806.19
8447.42
1124.47
254.222
4401.26
11883.5
10889.3
923.61
282.978
146.34
290.143
11248.5
714.678
126.466
365.89
184.529
7228.1
2041.08
29.1879
10796.8
12801.5
11220.1
7861.69
212.96
11106.4
9741.98
722.635
264.018
127.976
11096.8
10556.4
2413.62
281.508
166.147
31.4943
10140.7
303.878
58.4461
171.608
345.531
112.977
26.5767
47.9788
1263.03
12607.1
11401.6
670.963
25.7973
11344.4
6798.26
120.152
120.853
88.9993
11043.1
10721.1
574.488
87.4341
171.833
57.225
354.217
43.2902
47.0824
182.617
200.789
47.7162
15.2802
15.3157
54.6251
12290.2
13700.9
158.904
14.4583
11804.1
3545.49
56.5498
35.952
79.5808
10808.2
5965.08
50.4686
17.9881
156.644
43.7824
13.1401
13.5053
35.1131
45.1166
458.467
5.53751
17.0942
65.8491
59.3029
12481.2
2127.34
48.8864
10.5665
10940
237.321
47.2668
16.2817
55.6397
6032.11
2114.41
77.8716
32.1632
18.4101
138.201
11.1049
6188.11
15.9127
15.8559
31.0654
76.8763
269.755
11.7965
15.6554
0.469387
14.4483
10815.6
155.947
36.5934
6.91616
218.198
70.803
43.6444
13.7938
24.7269
0
21.0806
1.68357
23.2719
22.5344
76.4264
2.376
0
1.46891
5.40422
19.8214
36.9011
330.546
5.37993
8.4913
21.6441
50.9756
38.5181
3236.78
57.4117
38.2959
5.44311
87.5489
33.0411
40.8176
10.8983
15.8493
2.685
12.8392
1.60555
39.342
35.1976
48.1562
28.8706
0
18.0142
2.26259
13.166
31.8589
359.709
0
6.29412
0
22.0932
102.15
25.4028
32.3443
33.0934
10.7943
18.726
33.6894
44.2528
20.0268
6.35589
0
12.7019
15.9902
57.5257
59.6961
29.4753
26.3472
0
11.7232
4.36574
15.2702
40.9546
261.487
15.8054
0
34.4871
156.753
17.8686
9.70716
58.7698
34.4475
21.243
16.5411
43.1949
59.7205
0
16.6904
33.3819
58.0201
105.037
86.5185
41.9165
1.53308
11.4548
51.8054
77.8134
353.139
9.27882
0
73.6201
94.2059
21.6808
14.7712
58.0825
117.132
5.18767
15.9518
60.7084
277.734
8.82908
0
0
27.8899
110.694
93.0024
40.822
0
15.2499
178.499
301.955
300.807
9.05452
29.1296
192.184
25.2242
26.2281
18.168
74.0884
194.332
5.79399
15.5968
38.7342
112.467
215.691
0
-6.03073e-15
14.7757
49.5329
78.4433
76.3967
0
12.8905
88.4263
191.607
339.669
9.23251
80.7882
154.488
79.6232
8.69357
36.492
196.451
78.652
90.388
36.0066
139.758
63.7447
92.9692
0
13.9335
14.2877
99.9346
113.647
272.295
0
34.5976
58.3928
82.5363
212.857
4.57988
89.3512
106.835
41.4903
6.9322
259.038
105.371
109.355
73.9836
38.9559
184.314
177.58
39.1754
0
5.91916
5.01944
72.674
107.552
106.597
0
20.5453
44.0143
48.5498
127.468
0
91.0836
70.7934
109.469
20.8817
40.8657
6.03612
24.5513
8.64659
102.416
44.2873
54.5246
107.593
0
7.47371
9.78348
34.3425
72.7809
42.093
0
46.6849
37.5004
109.358
81.8474
0
42.829
110.985
72.3295
59.5011
27.2228
45.0112
31.0174
102.042
83.7251
80.6338
24.6227
45.5376
26.6418
6.70068
13.1484
51.9925
42.5099
10.7825
0
10.0548
29.5282
72.4652
95.4255
61.2192
45.5249
167.031
10.9968
125.1
19.8535
83.5802
19.097
121.579
16.3314
15.2463
21.674
43.03
19.3493
23.3215
24.1112
25.3242
37.053
17.6764
0
9.33829
16.8867
92.9326
211.647
38.9906
19.8784
133.981
0
98.2178
25.6733
23.9992
32.9064
30.5709
19.5471
14.0003
19.2709
35.8259
187.798
45.0539
36.5324
13.5531
42.2682
34.9356
7.52831
16.0165
24.5121
68.6928
386.385
16.1762
16.4289
68.8386
10.8188
32.2175
15.0682
26.1842
25.3933
16.5905
11.1953
7.38246
15.5411
93.058
59.7035
57.1533
19.3572
15.9395
36.285
61.9704
38.4894
26.0691
78.736
137.303
263.413
55.6748
49.7774
55.071
15.0172
0
12.5413
22.0227
16.2571
11.707
7.71083
9.52577
17.4184
58.8197
5.38979
23.2386
13.9112
19.4705
42.2589
59.3831
32.4945
48.9462
50.8496
69.4536
251.736
44.4319
28.9914
124.056
9.05833
2.23099
9.61969
10.773
35.0072
7.12296
2.65185
11.7215
30.5657
57.3461
0
12.2667
11.9273
21.7087
68.7568
122.575
14.8616
35.8643
47.8852
111.695
195.997
59.0168
55.633
132.351
34.219
-1.76625e-14
10.1797
15.8695
41.4059
0
6.15286
15.7461
29.6448
46.8445
24.9443
35.6499
42.4574
20.8679
78.5624
129.081
34.0683
24.7821
57.2966
129.386
110.674
30.6888
45.5976
103.492
7.45783
26.0068
17.2153
21.39
26.5203
6.90713
9.20102
14.3286
35.4109
23.5821
0
41.5894
21.7936
45.3498
68.0731
108.099
25.9731
52.7629
62.6727
78.1145
129.3
64.6386
20.0307
65.5156
0
10.2168
4.15391
0.558772
26.8194
9.44264
4.49293
24.6166
17.1104
53.6646
0
11.973
24.7473
26.9656
65.7925
110.441
68.8184
41.2944
31.4945
68.8046
76.2814
41.7073
15.765
44.419
10.7794
0
12.463
0.212187
10.0032
0
3.48508
12.0383
27.0769
80.6797
-2.11619e-14
19.1709
29.2612
17.5783
73.4033
109.304
50.1022
22.1163
21.697
20.1293
39.625
22.3617
37.6769
36.5975
0
9.65324
12.6021
0
18.8825
0
2.16028
9.18605
45.7561
35.1053
0
13.6497
10.0574
19.6487
67.7078
90.6328
125.51
16.8734
22.1345
38.6718
57.6745
38.9117
25.7912
0.37775
28.0391
-8.49672e-15
5.95834
1.06918
18.7486
1.46687
3.15105
8.74134
51.0374
54.0082
0
14.6712
5.08972
16.0872
35.4674
60.3174
28.7654
9.12308
27.7651
27.0162
1.76702
47.2261
28.7666
15.489
0
-9.18799e-15
10.0158
-1.13606e-14
24.6372
9.78557
2.66035
8.92795
28.8989
61.7448
0
4.70457
4.91274
17.2332
24.4763
19.9065
2.45715
8.13762
25.9931
24.2118
0.309421
7.30417
15.1267
-1.71548e-15
23.5342
0
4.28486
0
21.4404
6.86528
2.32489
12.2757
31.4868
34.3116
25.049
-2.12832e-15
11.2714
34.6001
21.94
41.488
12.9754
13.0878
29.6766
21.9524
14.3639
16.1977
25.0791
7.87701
0
16.6666
0
0
2.7057
-6.29455e-15
7.02455
15.6791
21.4027
22.1602
0
7.38891
6.83537
46.5368
23.4972
23.302
16.814
10.1305
30.4573
28.8244
15.6929
0
8.58699
0
21.9947
0
0
0
6.29586
6.6394
3.99738
12.2273
22.4375
7.28461
0
0
13.0413
33.7418
15.199
31.8635
10.4959
10.4782
15.4662
21.2882
0
0
3.71212
0
0
0
1.34494
2.13171
4.93993
0.28727
11.1446
20.6948
23.0915
47.3656
0
6.97232
12.1753
24.5302
15.0422
34.9147
6.5075
9.0669
11.1254
13.8205
8.85445
0.314816
22.4472
0
0
3.95537
0
1.14428
31.8246
6.70296
8.34375
23.3613
18.067
19.3291
0.986635
0
12.2656
22.0997
19.3119
7.3954
5.01623
3.11586
4.67173
0.89275
26.4543
0
10.311
-1.35199e-14
23.5679
0
11.7138
10.7273
3.91143
0
9.17969
17.1825
9.33546
16.7966
0.788338
0
14.6951
17.9459
8.82439
11.8001
-3.6373e-15
6.33193
7.27802
1.98522
0
0
0
15.9966
0
0
0
6.48634
27.7927
4.21482
8.71788
12.5289
13.6864
13.9696
0
0
8.98783
9.85113
9.69066
4.13724
0
2.01404
7.16464
5.8427
0.946337
6.64737
-4.49588e-15
0
0
0
6.02853
16.5484
17.294
0
7.86291
6.65034
7.56679
5.80096
5.06881
-6.17921e-15
5.36862
10.6074
7.60935
16.0375
0
1.79093
6.39334
12.9758
17.6896
-2.11962e-15
0.389681
0
0
0
19.6117
4.15555
11.3566
0
6.58202
4.84268
11.2888
10.9154
0
0
4.94397
10.3241
7.89411
10.7868
0
1.16293
7.73782
4.57035
17.7302
0
14.642
6.29507
-2.09783e-14
0
2.10817
0
10.2112
5.54014
8.98996
5.43399
11.1931
8.97543
0
0
2.91227
4.53767
5.70253
11.7206
0
0.936119
11.1926
7.55092
0
0
8.14638
18.9838
0
0
9.39922
0
0
0
4.9289
2.42859
5.70174
15.1079
0
0
3.56705
3.84632
9.11256
3.63876
0
2.15205
11.1462
16.9069
36.4585
0
25.7279
14.4905
0
0
11.6629
6.5141
0
0
2.84989
2.53426
6.18837
6.13584
0
0.256731
4.42563
2.15693
7.62275
7.65877
5.89727
0.0226769
6.11057
4.13601
0
0
9.52228
12.1764
25.9538
0
0
14.253
5.55086
0
2.8549
21.032
7.16837
8.53918
0
2.25025
1.68875
3.0944
7.5425
9.72781
0
-1.99807e-17
1.89543
17.4744
8.29024
0
5.82875
15.1332
0
0
10.3747
6.12553
7.88443
0
11.0286
20.681
6.66655
7.46701
0
0
1.94745
-6.60048e-16
3.80396
6.69745
12.0294
0
0.636427
10.5983
6.62877
0
-4.09972e-15
18.2562
0
9.37426
21.2881
-6.48833e-15
5.64027
0
25.2773
6.37072
2.96093
0
0
0
1.41744
1.13677
5.43584
3.92643
0
0.81871
0
13.2549
0
0
0
20.5293
0
8.4876
-1.74662e-16
0
5.22352
0
5.40247
3.02673
6.84109
9.29362
0
0
1.5278
0
5.91958
3.54511
0
-4.8573e-17
0
0
0
0
0
5.85502
0
0
0
0
0
0
0.231975
1.19178
8.93934
12.059
0
0
1.3862
-9.38216e-18
4.14724
-9.73894e-15
0
0
0
0
0
0
0
0
0
0
0
0
0
0
0.657433
1.0393
12.4524
11.1717
0
0
1.44856
0.545523
4.84205
8.25207
0
0
0
0
4.55126
0
0
0
0.773853
0
0
5.84303
1.69042
0
0
0.0211793
10.8766
8.16682
0
0
0
0
4.40783
14.4884
0
0
0
0
0
0
0
0
0
0
0
0
0
0
0
0
5.95471
14.6682
0
0
0
0
5.68613
9.27197
0
0
0
0
6.64537
0
0
0
0
0
0
0
0
0
0
0
8.90772
5.40708
0
0
0
0
3.27446
6.66974
0
0
0
0
12.6087
0
0
0
0
0
0
0
0
0
0
0
4.45398
1.04501
0
0
0
0
4.47749
5.63842
0
0
0
3.65323
0
0
0
0
0
0
0
0
2.37589
0
0
0
4.53631
10.4421
0
0
0
0
0
0.0749827
0
0
0
0
0
0
0
0
0
0
0
0
0
0
0
0
1.78306
3.50212
0
0
0
0
0
7.542
0
0
0
0
4.44649
0
0
0
0
0
0
0
0
0
0
0
0.568161
10.1379
0
0
0
0
1.02453
8.7284
0
0
0
0
0
0
0
0
0
0
0
0
0
0
0
0
1.74754
0
0
0
0
0
1.34906
-8.04067e-16
0
0
0
0
0
0
0
0
0
0
0
0
0
0
0
0
1.79845
9.48871
0
0
0
0
2.22011
0
0
0
0
0
0
0
0
0
0
0
0
0
0
0
0
0
2.30114
0
0
0
0
0
1.02214
0
0
0
0
0
0
0
0
0
0
0
0
0
0
0
0
0
2.82964
0
0
0
0
0
0.513878
0
0
0
0
0
0
0
0
0
0
0
0
0
0
0
0
0
2.11801
0
0
0
0
0
0
0
0
0
0
0
0
0
0
0
0
0
0
0
0
0
0
0
-3.37979e-16
0
0
0
0
0
1.69889
0
0
0
0
0
0
0
0
0
0
0
0
0
0
0
0
0
0.58041
0
0
0
0
0
0.568525
0
0
0
0
0
0
0
0
0
0
0
0
0
0
0
0
0
-3.56164e-16
0
0
0
0
0
0
4.27884
0
0
0
0
0
0
0
0
0
0
0
0
0
0
0
0
0
1.57205
0
0
0
0
0
0
0
0
0
0
0
0
0
0
0
0
0
0
0
0
0
0
0
0
0
0
0
0
0
0
0
0
0
0
0
0
0
0
0
0
0
0
0
0
0
0
0
0
0
0
0
0
0
0
0
0
0
0
0
0
0
0
0
0
0
0
0
0
0
0
0
0
0
0
0
0
0
0
0
0
0
0
0
0
0
0
0
0
0
0
0
0
0
0
0
0
0
0
0
0
0
0
0
0
0
0
0
0
0
0
0
0
0
0
0
0
0
0
0
0
0
0
0
0
0
0
0
0
0
0
0
0
0
0
0
0
0
0
0
0
0
0
0
0
0
0
0
0
0
0
0
0
0
0
0
0
0
0
0
0
0
0
0
0
0
0
0
0
0
0
0
0
0
0
0
0
0
0
0
0
0
0
0
0
0
0
0
0
0
0
0
0
0
0
0
0
0
0
0
0
0
0
0
0
0
0
0
0
0
0
0
0
0
0
0
0
0
0
0
0
0
0
0
0
0
0
0
0
0
0
0
0
0
0
0
0
0
0
0
0
0
0
0
0
0
0
0
0
0
0
0
0
0
0
0
0
0
0
0
0
0
0
0
0
0
0
0
0
0
0
0
0
0
0
0
0
0
0
0
0
0
0
0
0
0
0
0
0
0
0
0
0
0
0
0
0
0
0
0
0
0
0
0
0
0
0
0
0
0
0
0
0
0
0
0
0
0
0
0
0
0
0
0
0
0
0
0
0
0
0
0
0
0
0
0
8070.37
9052.1
9273.19
9005.19
8559.19
10505.5
10230.3
10071.8
8058.46
7878.55
7288.03
8202.25
3368.86
1577.74
689.261
404.898
411.867
711.949
1849.12
572.401
626.383
5464.56
9608.13
786.649
4971.37
9267.83
8316.69
8506.49
7015.22
1938.36
549.677
787.898
501.479
805.434
560.145
849.89
856.574
843.584
1460.31
1007.22
1894.96
2705.15
4633.25
1010.67
1025
7891.2
5531.15
7662.26
8137.8
8143.48
9279.7
1634.68
1021.74
3802.92
1112.37
909.552
1096.25
1055.07
1318.72
2064.44
2138.12
1520.15
2461.27
1395.4
2460.08
2870.54
4631.64
6979.06
8240.36
8838.31
10092.2
7522.93
1756.93
9539.72
4757.57
1285.81
1212.43
3303.96
4352.98
2598.21
3762.56
5001.72
4849.09
5529.55
8233.36
5055.62
6779.06
8195.63
8834.86
8296.23
9144.18
7927.78
7206.93
6129.62
7466.34
6031.69
10400.4
11271.4
11440.9
11513.2
11786.6
11994.5
11434.3
11282.3
11803.9
11523.5
11986.6
11007.9
11067.5
12595.4
12223.5
4958.8
1288.69
4937.34
2599.98
4867.44
3205.39
8794.17
1188.71
8226.25
12030
210.243
3404.94
6867.43
11550.5
342.802
3297.07
9355.39
9914.87
7992.77
10964.2
9364.77
7905.39
12101.5
11645.6
3843.97
8266.66
4750.02
2920.95
7457.96
10192.4
11559.5
11914.7
10819.1
11061.5
7377.51
5009.06
1825.92
6979.72
735.134
12580
12353.7
766.865
12060.2
4347.63
11432.6
1505.18
12312.6
6135.03
1899
335.142
607.203
359.304
858.459
84.574
95.558
334.709
10175
11286.9
6431.53
9238.86
5688.82
3310.42
11250
2863.03
7786.63
2866.76
1672.7
10614.1
254.332
11914
12221
12374.9
11260.4
11356.6
11852.4
11240.3
11310.1
10912.1
10412.8
11493.2
10550
9665.8
11784.3
9371.97
4487.32
10073.6
10564.8
6283.18
10095.3
11296.6
11615.8
10673.4
10839.5
11018.5
1293.16
3623
2463.02
3901.07
1190.55
1126.85
8398.71
2217.7
9080.17
12324.3
10779.4
10773.6
12392.7
11340.5
2049.43
3724.29
881.476
238.506
193.479
10784
10749.5
11947.8
11046.9
10467.4
926.905
95.3783
17.1266
58.3012
89.5325
12063.5
11887.2
3779.81
11732
8059.77
10484.4
8284.29
10319.8
8230.62
725.301
73.5907
82.8281
249.054
631.017
29.4206
10.5803
167.418
11962.1
8175.64
3369.2
9892.18
2791.98
1133.54
3039.1
664.136
9373.03
363.332
113.724
1637.82
13.0103
12779.3
12904.2
11168.6
11302.9
11019.6
11135.1
10711.3
10924.6
9913.93
6875.65
7660.84
5735.7
701.346
1913.24
159.074
13161.8
13040.6
11161.3
11653.5
11458.1
12968.6
11568.9
11245.9
11396
121.606
253.517
276.554
109.591
89.4145
83.562
114.926
115.935
41.1719
11080.4
12366.5
11276.8
10689
12501
11085.8
49.7065
45.9753
70.8524
85.1492
16.389
10980.8
10446.9
11268.2
10865
10196.4
0
68.7891
32.0334
4.28131
55.1271
11397.6
11145.5
5781.02
9538.61
1529.37
5671.19
570.297
989.876
50.9001
845.542
22.3476
6.6621
154.438
699.164
57.9907
11.3154
360.067
547.313
39.6431
73.9152
35.4347
43.696
19.3462
-1.62831e-14
54.6107
40.0686
9.02892
25.881
4.75012
35.4913
12419.9
12713.8
8588.86
10496.8
10565.6
3164.79
10986.2
7813.33
900.763
84.3583
186.888
194.83
31.6561
132.886
5.3639
12660.5
12513.7
11270.2
11256.2
11035.6
12672.7
11301.4
11141.8
11262.4
44.3981
55.3103
65.5254
26.0513
80.763
51.6414
47.7056
51.1626
59.4749
10736.7
11406.9
10885.1
10784.1
11175.6
10896.9
54.9769
81.3904
107.462
50.3427
44.0346
10507.2
10180.7
11539.6
10611.5
6200.87
48.7831
75.4172
21.4557
24.1023
91.1344
4183.37
225.469
19.0703
35.5197
23.4357
25.7854
33.6398
16.3148
10.6078
478.679
14.1007
28.567
91.879
457.85
30.6833
7.39819
416.354
45.0945
22.2574
24.8304
0
22.2687
58.2152
0
31.4322
24.1796
7.74441
18.4416
41.964
23.8553
11948.4
12043.4
1164.69
11115.4
3360.91
496.906
9667.51
1007.78
75.7505
64.1675
65.2029
84.0771
18.9519
26.2325
32.7512
12827.9
11937.2
12499.1
11452.3
11957.6
13225
12381.8
11909
11749.9
34.8141
18.897
98.2738
15.9368
47.3966
18.2339
48.8816
66.3566
73.0309
11024.9
12006.7
11004.5
10769.3
10632.8
12029.3
109.387
82.7767
95.0539
87.1416
361.06
10794.2
1095.67
11339.7
5103.23
136.63
61.3546
164.364
24.5874
353.559
508.967
61.0061
76.964
13.3627
2.77306
0
19.6848
7.07509
7.8563
5.40238
269.296
24.6627
0
105.919
97.5163
29.9244
57.3235
492.762
12.7178
13.3932
5.88721
0
16.1822
16.1113
59.7833
46.7889
3.02736
-1.40042e-14
0.458619
0
24.808
8297.49
1090.69
53.3002
1158.85
138.411
45.7113
312.956
116.212
48.6617
5.35683
15.5436
15.435
18.7672
7.02374
30.802
11499.4
11573.2
11158.2
12207.1
11286.4
12250.4
2152.31
11373.2
1680.61
20.3281
22.8568
32.4842
7.31821
18.7824
5.39437
7.27751
123.263
15.8567
10942.9
10113.7
8986.26
4004.11
552.296
486.521
316.845
8.26396
900.61
14.8359
6.09324
15.6496
5.16465
9558.82
4890.28
17352.9
0.00737115
121.314
18.7512
232.72
344.657
56.3849
58.9306
47.7777
50.2237
900.358
1085.51
181.117
8.25665
0.295972
1036.11
39.3413
88636.1
1473.2
10009.1
18.4448
233.678
3.78643
140.386
55.7732
41.1528
8.09848
0
15.4973
4.6449
-3.51874e-15
22.0813
1.78384
33.9983
41.9125
19.1463
47.4085
49.7986
68.5278
25.7257
216.899
14.2444
29.3881
-7.00845e-15
1.14987
17.7156
9.18252
0
0
33.2919
25.4133
19.768
-2.68897e-14
27.0881
243.772
480.12
116.866
340.854
209.416
247.875
142.015
202.898
-3.14347e-15
17.7518
17.2846
46.9739
20.6716
4.46685
20.4795
6618.76
795.661
455.084
6972.59
195.271
36016.9
613.037
2025.86
172.348
32.0096
2.02605
0.205896
10.9434
10.0219
21.3367
6.1027
18.666
10.6248
24.933
3.57553
0
5.18737
0
0
146.728
85.4379
67.8806
77.7291
9.41323
32.0262
5.39405
7.35664
5.43961
8.49427
0
0
3.08696
0.874302
0
0
0
0
0
0
9.25526
15.0005
0
17.5662
18.5638
8.8683
714.905
96.4706
24.7092
2.47937
480.238
114.745
0
2.14617
0
0
0
0
0
12.0312
0.526869
0
19.8905
12.2889
5.08992
11.1185
10.4262
0
58.1649
51.9726
41.7541
43.1168
75.8132
49.9792
29.9237
12.0212
278.674
24.5163
0
4.38498
0
0
0
29.067
0
12.8339
-6.9439e-15
0
11.5425
0
4.52678
8.39932
0
0.409286
1103.06
52.59
83.7667
146.184
95.4772
169.322
48.4705
117.061
77.0809
6.93019
75.8924
110.695
21.0085
14.9897
0.51628
535.638
70.582
578.283
743.002
144.766
139.881
80.6663
76.2155
74.0512
0
13.7268
6.05897
7.46281
0
0.385807
13.1781
0.649913
0
0
0
0.154914
0
7.50585
0
42.3314
24.1159
7.51009
29.7794
0
8.1548
1.71655
2.51161
0
12.7549
0
4.42377
0
0
0
0
0
0
0
0
10.7036
0.325947
0
2.90423
7.54373
23.2179
389.128
104.864
43.0399
0.280146
318.054
62.8881
0
0
0
0
0
0
0
23.117
0
0
0
0
-4.32863e-15
3.19054
7.37518
0
119.739
49.8005
52.7629
56.8932
167.888
46.4334
155.073
30.8782
296.247
-6.17704e-16
0
0
0
15.3082
0
0
0
11.3243
24.4631
0
0.442133
0
0
25.2051
0
23.4509
70.5739
2.88435
121.357
30.278
92.1771
104.79
9.80051
95.0238
155.094
127.072
216.544
157.011
231.908
1.53934
19.6807
59.2286
34.7329
12.7892
35.9218
14.3702
22.6864
34.7257
24.659
8.49763
0
35.6479
12.0609
21.1701
0
7.91351
0.350538
0
10.8642
15.1141
0
24.6879
31.6633
15.3538
9.0032
0
9.26696
0
0
0
0
5.69504
0
0
0
0
0
0
0
5.27966
0
0
0
0
10.3186
219.374
48.9027
0.0455575
-1.17676e-14
102.363
37.5347
0
0
0
0
0
0
0
0
0
0.60791
15.7753
0
0.203341
15.4823
0
0
137.151
22.6693
177.211
34.4242
138.195
129.009
209.195
292.15
0
0
7.64948
0
3.35983
-5.20849e-15
27.479
7.94122
0
12.617
37.9915
0
26.5283
0
10.1079
266.021
51.3806
128.219
182.672
37.3513
101.65
134.666
161.557
177.797
126.974
94.1041
52.8157
45.6096
20.0433
27.8248
1.15269
30.8093
6.85212
20.5398
14.2844
19.8848
7.93788
13.1693
39.608
6.78563
27.6203
-4.7549e-16
365.586
9.99992
0
0
12.4683
0
-2.13911e-15
8.84202
0
5.10982
9.34914
0
0
7.98758
0
0
0
0
0
0
0
89.5972
31.301
0
57.8144
8.0485
0
-2.64847e-16
0
0
0
7.82984
13.3625
-2.53294e-16
251.666
165.264
166.836
195.447
256.757
296.405
161.754
366.112
0
0
0
0
0
0
0
34.0369
0
8.08403
23.2612
0
104.829
20.0482
39.4141
80.4636
30.1669
69.5159
143.412
19.6484
132.271
139.421
127.749
57.6483
130.553
150.584
141.391
294.758
21.9515
-2.00062e-14
52.1657
15.4814
11.3271
35.6873
63.5538
4.42453
8.81034
32.1133
382.392
35.5634
326.77
28.2103
96.0442
93.9201
14.4282
95.1435
12.104
0
16.2814
16.6756
18.9874
-6.30922e-15
43.3496
0
101.857
85.8457
24.588
0
10.9041
0
0
-7.31135e-15
0
48.5624
79.0256
24.9421
44.1264
0
0
0
0
0
6.01235
0
0
0
275.125
227.701
133.783
204.679
236.855
108.642
203.706
272.894
0
14.0021
0
34.0907
6.67835
4.48207
0
155.325
0
109.505
183.349
9.33614
200.785
49.0675
30.8814
166.514
38.462
129.757
129.118
54.2313
161.311
121.178
104.84
130.239
54.4967
72.5766
350.535
121.72
24.1189
24.5126
50.9105
19.2437
12.4399
25.3477
18.1594
99.1812
34.611
114.412
52.1463
217.306
67.5597
180.05
53.7755
61.6927
174.739
103.664
21.3472
0
5.51466
27.45
0
7.80662
90.545
46.8001
87.1849
117.402
74.3641
0
0
0
0
0
170.996
84.4769
93.8504
179.927
258.643
0
0
0
0
0
0
0
0
0
199.795
139.939
184.732
149.14
147.584
131.865
169.21
303.007
0
0
23.0093
0
31.433
70.3361
0
155.605
23.1106
88.5936
92.009
23.5023
142.361
-1.28049e-14
11.7427
118.178
107.087
156.44
104.755
159.785
146.83
58.1329
191.662
57.3212
71.5277
123.977
73.8397
78.9104
73.9412
86.8691
11.4116
205.245
23.4581
22.5361
17.9704
43.6743
0.886841
107.287
94.7931
65.0135
108.982
83.1335
138.076
73.3064
103.499
23.9527
6.45537
16.9513
21.7849
57.2479
38.4536
7.03324
66.7666
29.5837
23.5518
95.6013
227.238
0
0
23.2548
16.582
0
320.967
301.384
280.347
295.849
187.019
0
0
0
0
8.79828
0
9.2502
0
-7.515e-15
139.625
64.7282
338.678
69.1296
124.387
91.9179
314.389
125.535
0
0
146.279
30.2781
9.22691
51.1885
4.26537
64.4582
47.0111
100.649
81.7191
31.446
59.6715
71.7863
75.5926
70.1528
95.2613
130.07
81.8801
124.796
49.2835
33.3894
54.8785
4.27863
20.9628
24.4893
152.728
22.3278
15.079
5.86252
33.8792
14.5334
21.7343
19.7043
130.528
16.5117
52.3269
60.0312
202.615
53.8552
29.9849
36.7275
39.8622
22.9543
15.9518
43.4958
54.0338
15.2517
19.4045
26.2718
0
6.701
78.9944
138.734
90.6128
83.4544
80.4954
-1.22434e-14
0
0
0
0
49.0512
43.1886
66.4299
69.4197
48.0753
0
0
0.264711
0
0
0
7.61087
0
7.10688
156.929
122.041
315.044
123.083
121.975
95.025
242.05
133.968
0
0
78.5264
96.3922
18.1345
42.1055
132.466
59.3244
71.5377
61.6292
57.5932
52.1018
74.0468
61.75
190.721
87.7196
71.1709
116.279
89.4326
85.5605
74.2337
51.566
39.4977
54.2718
55.435
28.931
45.4912
66.223
11.5584
14.7265
88.3013
29.6182
86.7892
61.5375
80.5833
29.1084
78.4249
49.1369
37.8576
30.3788
56.959
50.4191
19.3897
62.7719
16.963
12.1993
59.6522
25.4099
35.2169
11.4624
-7.06604e-15
6.3857
78.2185
103.491
18.1423
61.1876
81.6649
6.82149
18.4791
0
7.127
0
2.12583
21.4894
16.487
-9.1728e-15
24.6914
0
0
0
0
18.1708
0
0
0
-1.07994e-14
100.193
118.869
213.838
105.708
133.706
123.233
287.81
77.0162
29.4928
50.4017
46.8479
130.044
160.688
70.4677
75.4172
28.0996
53.8211
54.7404
23.6201
49.5928
150.481
110.331
60.7807
19.5099
51.4282
48.8717
19.5382
77.0776
51.2265
27.3736
27.0784
4.37668
6.26915
27.8747
16.5425
62.0643
29.9764
127.488
72.2416
55.512
81.6297
126.199
75.8965
82.5932
58.6903
52.6505
21.2701
2.99411
25.1556
50.1516
25.6587
49.2907
31.4252
60.0169
28.5937
25.0724
35.6263
126.262
-1.88392e-14
72.7863
19.6732
45.9775
57.8549
14.9112
20.3228
0.277933
3.46227
0.880803
14.5883
0.300225
0
27.708
-5.1382e-15
0
31.5209
13.1819
-1.15992e-15
9.41176
0
21.6403
0
-6.03277e-15
0
13.8315
111.093
176.651
308.367
88.7952
111.3
137.298
227.643
128.622
29.1675
13.8105
25.525
49.7981
32.0287
49.741
-2.74967e-14
43.8546
35.3909
28.1009
73.4092
117.23
194.296
112.813
193.01
26.357
65.1847
46.0872
12.6663
84.664
56.8853
26.3486
27.8178
0
10.2786
22.8553
29.2446
13.8116
266.098
90.5394
83.8486
175.535
62.5314
228.257
82.4479
163.505
13.2542
11.9684
38.5871
54.861
22.809
31.9643
15.5265
19.6507
19.5391
99.1142
452.796
139.275
386.903
155.573
426.684
259.752
12.019
0
46.9084
40.4923
0
45.6994
8.86092
249.307
203.105
9.9466
0
33.9244
17.9273
35.9088
52.7248
0
19.814
14.2784
0
7.46898
0
6.96333
0
0
161.858
112.54
264.265
47.1539
246.825
84.7308
274.883
289.28
0
17.2213
35.8
59.2121
47.2652
54.8219
29.516
12.454
10.1249
28.0528
84.4751
37.1672
87.8093
55.2393
10.8849
0
39.8919
15.4019
0
14.1202
26.3979
11.1455
23.6555
0
5.81242
15.9959
19.3126
0.539595
58.358
73.5225
26.172
58.6866
14.1069
33.3085
23.253
25.658
11.9989
4.88335
18.3099
59.3586
12.9
45.2237
29.7978
76.1367
21.8182
35.4544
39.2361
48.5209
109.277
40.133
201.471
152.921
19.2527
21.7254
57.249
36.3202
59.4037
152.574
39.3538
157.169
358.852
115.659
19.8747
138.778
45.0911
37.4897
145.1
12.2361
165.012
5.86716
16.5755
7.07852
22.5596
16.6379
-1.27207e-14
7.26309
286.016
113.853
424.082
163.09
241.16
210.125
344.825
257.83
21.1559
-1.52416e-14
52.4766
24.7417
21.1744
28.8003
30.0089
29.9801
43.9229
27.2265
32.1033
13.9879
91.1896
-9.48426e-15
0
20.9838
4.87204
13.6736
20.4848
11.9767
14.3063
17.1083
0.556702
23.8597
40.6864
11.192
41.6808
-2.64776e-15
9.43271
18.7327
10.3346
28.6557
18.8092
31.2191
16.7205
17.135
22.5598
51.2213
17.7379
38.7308
26.8284
30.6993
14.259
66.6784
93.2259
62.208
16.1443
47.9765
27.4852
30.9556
97.2439
41.5322
59.5986
184.411
58.5988
63.4443
26.6952
81.0311
90.4539
78.4368
27.8301
37.0773
22.103
125.093
75.3092
55.819
142.431
110.131
68.5227
11.8963
14.8398
42.8427
16.3061
23.9651
27.9978
20.1812
179.821
180.65
363.421
81.7383
213.319
143.458
238.508
383.054
5.63462
33.9707
28.761
32.2133
32.2786
60.1235
65.4453
60.4787
21.1391
33.5614
56.3448
0
84.8082
1.22495
0
44.4921
15.8379
19.7253
-1.9695e-14
11.6633
39.8726
19.6192
18.5172
8.41805
33.0865
13.1233
28.704
-1.29136e-14
6.88319
37.9915
7.99793
18.1841
18.5487
0
10.8693
41.1783
16.8084
113.739
29.6247
37.2824
12.779
35.0981
6.78714
34.2613
45.5613
69.4942
20.26
45.0201
16.7112
26.1521
22.5112
25.3229
48.8471
-2.12221e-14
104.896
68.3762
95.1484
11.422
28.444
59.4381
20.5873
0
129.605
120.718
86.6402
78.1328
139.601
-3.03607e-14
17.08
13.7262
13.943
20.4555
28.8062
19.6761
2.74692
28.2487
289.079
135.801
280.346
126.304
266.598
132.171
177.988
353.527
48.4157
14.0942
7.11047
76.5836
41.2128
72.042
55.7115
44.7817
26.3377
59.3409
97.4304
58.058
99.189
34.1335
11.9848
0
0.368323
22.1096
31.6878
19.2158
15.6464
9.08246
29.1886
-3.72249e-15
18.2329
24.1858
34.4581
33.2158
27.0571
13.008
17.4978
17.4003
22.2872
30.5015
31.3066
-1.37161e-14
-4.04257e-15
22.7568
0.15487
28.1265
19.3007
54.7198
12.7211
59.8874
95.5871
71.8653
7.96975
30.3679
29.9018
-6.95676e-15
21.4608
15.7698
69.1669
7.38346
94.0979
53.6687
92.2552
26.2762
9.34455
32.2791
22.2527
9.26962
43.1051
141.49
138.575
79.2407
130.632
-9.99567e-15
21.8554
29.6246
21.1844
49.5174
14.6619
-3.26357e-16
9.80391
83.1934
169.735
163.942
179.416
116.68
192.676
110.172
148.722
205.862
19.2382
75.7268
31.9229
23.8836
32.0804
67.2543
46.2079
50.766
69.8393
48.5983
67.2547
39.1023
56.7787
38.7527
40.1186
-1.95771e-14
12.4653
11.4588
0
6.47178
11.6164
4.61336
23.0403
28.0363
10.8769
32.2894
29.1646
-1.28865e-14
40.3697
0
21.1941
5.87421
0
40.3508
51.7949
5.92714
0
35.1866
32.0537
25.1496
19.5016
53.3084
27.8052
62.4464
18.1184
39.5335
0
-1.75695e-14
11.8573
0
0
11.9193
67.6907
94.5146
87.3813
80.0795
122.335
6.77482
12.4719
0
10.2248
33.8144
96.124
114.987
114.211
110.539
117.616
38.6373
23.4949
49.0216
27.9214
41.0461
23.6264
33.3187
31.4173
84.7859
114.125
94.1576
87.8698
84.4426
76.6661
78.3647
80.9165
107.738
17.3826
52.256
33.6029
46.7142
29.0051
49.585
46.4691
70.0052
86.4004
37.5266
47.3684
24.0197
59.6928
15.6372
22.1858
14.2225
19.0729
5.86276
0
13.2004
22.1151
4.55981
3.96708
0
18.5945
35.6777
14.4234
28.6454
0
0
64.999
0
0
23.6202
35.5486
17.8037
12.6078
35.3421
5.76716
54.1721
27.3168
22.5742
12.442
35.7505
55.7809
28.0678
7.55145
22.6846
5.52016
0
0
-1.04712e-15
50.935
106.831
71.2452
49.1508
64.8339
64.5986
66.5186
0
61.9841
212.897
34.1581
118.264
73.8044
54.3033
74.8391
12.005
23.7063
25.4801
41.9009
41.5715
34.6032
36.1758
66.6995
78.3461
108.7
55.4079
65.2671
71.8969
64.0833
51.5942
78.0273
66.1951
28.081
91.662
48.6207
69.6777
64.8427
35.354
93.8361
46.0127
61.6147
35.6375
37.4925
43.9094
65.9534
11.2733
-1.01041e-14
0
12.909
11.8314
0
15.0266
0
13.4224
34.7212
23.3092
18.4905
16.4214
13.2519
32.0013
0
0
41.6063
15.746
62.0548
-1.79013e-15
-1.6193e-14
27.4626
25.8568
32.3782
12.5482
50.6931
12.4503
10.9731
18.9398
18.8278
20.7866
57.0034
7.61287
0
0
0
1.38096
22.7665
67.9081
114.051
42.6903
63.2248
95.8397
6.46902
12.2576
28.259
7.01255
17.2862
108.292
70.8463
136.902
88.8723
113.338
16.9957
30.6584
83.6831
74.296
61.4464
67.4247
44.0199
28.2223
62.442
111.526
53.3233
52.1687
49.5322
46.6654
66.0648
55.5593
74.284
59.2039
61.998
40.4304
69.1014
26.8181
33.9782
22.1498
26.8717
34.8673
42.9023
19.6705
64.2505
16.1653
0
6.76778
23.0261
6.70059
11.404
0
11.0767
8.06646
0.219034
23.6766
13.7072
0.487344
33.5576
4.47164
13.3487
0
0
9.90342
2.02424
11.6009
10.1618
6.50851
0
5.74536
54.2269
12.2326
18.2142
16.8763
11.6067
15.4847
45.7737
18.4691
28.621
0
0
2.22308
15.7297
17.0451
6.33153
71.6924
113.315
62.3608
70.8279
150.679
29.1614
9.51082
3.52119
6.83453
43.1153
113.542
110.11
110.757
70.7135
103.412
92.4433
73.1171
27.9881
76.8045
69.904
98.7261
84.7928
92.9419
54.1971
54.2052
37.6922
29.1238
63.0454
45.884
39.532
8.11138
71.0295
78.6274
38.6749
32.1742
22.9308
10.6599
16.4646
33.8513
36.7913
-1.73027e-14
27.3758
34.6357
40.677
3.91065
0
3.30994
28.6203
11.0237
5.89217
48.8989
7.314
13.9717
24.5011
22.9822
0
21.5176
6.84923
19.2979
15.9013
0
0
3.63523
-3.18849e-16
0
9.7265
7.69018
0
0
12.0361
12.4643
26.6579
1.61282
30.6925
23.2838
26.9693
32.1146
63.7604
-6.96858e-15
0
0
7.42851
0
0
77.1898
149.775
42.3814
46.8835
49.1882
0
57.9109
0
0
53.4834
47.0321
48.2894
47.556
56.9768
27.6775
103.543
128.673
20.3807
82.1525
60.6267
63.4545
11.7021
36.6268
19.4372
28.3742
24.7932
35.7191
37.9565
54.4386
29.185
18.4944
50.0293
32.5021
46.1202
12.7277
-2.03105e-14
22.6502
50.6354
0
16.0663
-2.89645e-14
12.7623
44.8701
0
118.974
12.2363
10.5018
-3.43655e-14
20.8935
4.01278
29.5676
20.5789
12.2024
21.3758
9.29446
18.876
12.641
37.0379
0
23.3984
0
0
5.29194
0
0
16.8334
10.109
0
0
11.6709
12.5758
21.5919
10.5876
24.152
12.4942
23.6986
41.9465
30.7974
0
0
0
11.3663
0
6.1901
48.2066
22.7106
29.1445
28.3812
51.6116
13.7367
24.0276
0
6.71219
8.33342
25.7326
37.5836
32.6904
29.518
28.8712
45.9194
17.3465
24.4416
36.8901
20.6185
31.2926
9.75865
2.12698
13.8563
51.5201
24.4114
3.79716
15.1537
28.3971
19.0454
22.9157
78.6428
61.8043
4.93387
24.2039
43.9029
16.6125
27.9576
0.783738
18.5123
61.0298
9.59297
20.8359
19.1375
1.84763
0
23.7297
24.0015
14.4071
29.3144
23.0344
14.1479
18.4701
11.5999
6.14796
7.89869
23.2915
13.2713
23.7849
14.42
0
0
5.2723
5.85581
6.07956
0
5.21605
0
0
4.09184
11.0658
6.52286
32.83
30.9437
17.5519
35.0983
55.2166
50.9332
-7.04919e-15
0
6.27596
4.18447
0
-4.4276e-15
41.9592
-1.44641e-14
53.3999
23.5705
12.8336
6.25608
44.2157
6.78771
4.92906
16.6363
-1.49707e-14
22.5728
33.7174
36.0596
43.7338
1.97415
0.513417
13.8253
24.7608
6.17519
6.45364
6.51613
11.8263
6.23088
3.67765
9.23536
11.5897
21.3409
22.4663
14.5027
10.0674
34.9492
24.9491
33.8569
14.9852
66.9628
18.0594
16.6421
13.5127
34.771
29.6756
22.0221
11.7928
24.4415
8.35832
27.7604
46.9241
45.9184
19.3279
10.1884
0
0.184079
38.9502
11.7867
9.35881
0
12.5303
14.0921
14.0915
10.9092
0
18.1489
11.9071
0
7.61899
0
15.6118
0
-5.27823e-15
17.2168
14.117
41.0945
17.8396
28.3157
11.4228
22.0686
69.7225
45.0108
-2.62634e-15
0
0
0
0
0
43.0129
14.8068
27.9287
42.4961
41.8563
6.72696
14.6469
0
0
33.4922
65.6401
38.206
35.2943
3.31172
31.6302
21.1159
-1.39469e-14
5.24547
11.9229
8.99135
6.26375
9.43415
11.2477
5.9481
18.0167
22.2606
13.9358
18.4231
2.50211
6.54327
-1.9424e-16
10.3036
25.522
22.1933
17.2077
7.63944
5.94443
17.3217
34.16
13.7387
21.2393
1.87097
10.6438
-1.75177e-14
0.260989
-3.67217e-15
21.8475
0
0.531707
24.9363
30.6555
14.8455
36.0604
0.210548
0
0
0
7.63259
16.491
34.8457
13.5959
-1.20527e-14
0
0
0
-9.42535e-15
0
5.91302
10.5787
31.6755
34.0178
24.656
18.6003
12.0255
21.6284
41.5584
38.9089
26.7874
7.73867
0
0
7.75142
0
0
16.5261
43.1503
17.7003
24.6411
32.5039
0
41.5335
24.7646
0
16.9395