/*--------------------------------*- C++ -*----------------------------------*\
| =========                 |                                                 |
| \\      /  F ield         | OpenFOAM: The Open Source CFD Toolbox           |
|  \\    /   O peration     | Version:  5.x                                   |
|   \\  /    A nd           | Web:      www.OpenFOAM.org                      |
|    \\/     M anipulation  |                                                 |
\*---------------------------------------------------------------------------*/
FoamFile
{
    version     2.0;
    format      ascii;
    class       volScalarField;
    location    "0.55";
    object      voidfraction;
}
// * * * * * * * * * * * * * * * * * * * * * * * * * * * * * * * * * * * * * //

dimensions      [0 0 0 0 0 0 0];

internalField   nonuniform List<scalar> 
10571
(
0.425358
0.670812
0.621296
0.761503
0.572424
0.805011
0.9252
0.978156
0.962238
0.595657
0.437654
0.787075
0.922145
0.974414
0.987514
0.68884
0.462897
0.909627
0.968742
0.947076
0.805932
0.630151
0.66897
0.902763
0.420392
0.487185
0.420804
0.466531
0.509951
0.452938
0.47558
0.885424
0.972084
0.603241
0.413863
0.432437
0.904205
0.971002
0.984302
0.94659
0.429705
0.920225
0.985891
0.951409
0.971141
0.508467
0.744703
0.994232
0.425644
0.400686
0.422984
0.486896
0.953162
0.427995
0.446819
0.901865
0.970148
0.978559
0.419502
0.43107
0.733894
0.969461
0.982121
0.99566
0.434669
0.961443
0.993936
0.977465
0.942853
0.978761
0.996531
0.994376
0.786936
0.406014
0.421543
0.846407
0.993282
0.422365
0.506023
0.97945
0.985214
0.986497
0.428531
0.427322
0.889561
0.990064
0.981848
0.992741
0.910116
0.994277
0.99521
0.976348
0.963607
0.992146
0.998251
0.99797
0.982521
0.401302
0.416925
0.970936
0.997381
0.418529
0.681252
0.990381
0.995342
0.988917
0.427365
0.538646
0.985361
0.997752
0.98279
0.994455
0.995761
0.998048
0.996447
0.993161
0.909522
0.99911
0.998219
0.99201
0.988236
0.399356
0.764889
0.990384
0.998218
0.436527
0.951304
0.992069
0.997971
0.99245
0.712112
0.705849
0.971728
0.993807
0.997934
0.984624
0.998587
0.539316
0.996361
0.99777
0.996733
0.987931
0.952
0.99849
0.998278
0.99993
0.998901
0.465017
0.957641
0.993091
0.998856
0.940386
0.98335
0.992455
0.998393
0.996452
1
0.990763
0.999391
0.995676
0.997464
0.990712
0.999516
1
0.999639
0.999292
0.997884
0.993912
0.934145
0.999343
0.998877
0.997584
0.991887
0.992745
0.723348
0.981098
0.992789
0.999249
0.980533
0.99186
0.993289
0.99872
0.997865
0.99917
0.996811
0.999357
0.993258
0.996019
0.993746
0.996124
1
0.997383
0.999668
0.998561
0.994467
0.908784
1
0.999264
1
0.99602
0.980762
0.992046
0.992204
0.993939
0.998403
0.99608
0.992041
0.993464
0.997652
0.998989
1
0.996811
0.997023
0.991267
0.993054
0.995507
0.996262
1
0.998286
0.999482
0.998299
0.991981
0.926239
0.998141
1
0.994191
0.971966
0.995071
0.997875
0.99029
0.995635
0.995743
0.99648
0.993788
0.992753
1
0.996811
0.993032
0.99143
0.987369
0.985772
0.994255
0.999699
0.998641
0.99401
0.985277
0.901102
0.998877
1
0.98809
0.9823
0.995072
0.997032
0.991178
0.985758
0.998784
0.996851
0.991386
0.96565
0.998871
1
1
0.996069
0.985768
0.983159
0.993996
1
0.998145
0.978237
0.942235
0.918527
0.998877
0.996105
0.967655
0.995712
0.994512
0.99646
0.989222
0.97507
0.999021
0.997202
0.994375
0.984268
0.972536
1
1
0.997829
0.993039
0.985277
0.9874
1
0.998356
0.986792
0.959418
0.907357
0.998877
0.988737
0.974379
0.987246
0.998376
0.993561
0.970575
0.989335
0.985917
0.993883
0.980188
0.991003
0.987713
1
0.998039
0.997853
0.985169
0.979138
0.956862
1
0.995271
0.98997
0.982274
0.9482
0.999342
0.985929
0.982777
0.993623
0.998768
0.955937
0.983716
0.985459
0.988956
0.993716
0.972736
0.974832
0.994767
1
0.999189
0.999215
0.988368
0.980391
0.981739
1
0.996988
0.992092
0.990051
0.969964
1
0.984962
0.986767
0.984057
0.996584
0.992482
0.99902
0.996485
0.998683
0.983098
0.992781
0.99162
0.98585
1
0.99902
0.998492
0.994331
0.986612
0.992593
1
0.992914
0.993224
0.976963
0.981377
1
0.992209
0.978436
0.988785
0.990312
0.995044
0.992872
0.995614
0.98585
0.985704
0.986648
0.996232
0.99403
0.997031
0.999054
0.997919
0.991234
0.992169
0.998246
1
0.998494
0.994728
0.984809
0.978506
0.992218
0.992058
0.965974
0.99835
0.980401
0.996259
0.986489
0.997386
0.983657
0.997032
0.997413
0.996672
0.994378
0.997691
0.996722
0.996165
0.995555
0.993183
0.997007
1
0.998583
0.996944
0.980303
0.949723
0.994735
0.996346
0.968979
1
0.984265
0.995348
0.995879
0.995343
0.995847
0.99654
0.997517
0.997044
0.995192
0.977351
0.994052
0.994107
0.997557
0.992218
0.994588
0.999128
0.997529
0.99561
0.984511
0.89787
0.997716
0.997011
0.98411
0.998681
0.99496
0.997405
0.995406
0.996516
0.997704
0.998028
0.998707
0.997637
0.987558
0.992414
0.992193
0.996808
0.997092
0.993239
0.990267
0.995551
0.996075
0.986093
0.971259
0.92692
0.992181
0.991245
0.98817
0.997911
1
0.997708
0.99642
0.997717
0.998379
0.99863
0.99825
0.997314
0.991899
0.99934
0.996789
0.997692
0.996488
0.992133
0.990267
0.996092
0.992502
0.991041
0.983977
0.93147
0.993419
0.994837
0.97256
0.998571
0.999776
0.998247
0.998244
0.995134
0.999021
0.999538
0.997893
0.995251
0.99182
1
0.998276
0.998065
0.996023
0.986645
0.979566
0.998256
0.99446
0.991664
0.974864
0.94477
0.991173
0.9907
0.97249
0.996482
1
0.998247
0.997399
0.994232
1
0.998939
0.997195
0.995368
0.993255
0.996921
0.995066
0.993061
0.996233
0.984768
0.978085
0.996002
0.996209
0.989715
0.969289
0.96955
0.99547
0.99203
0.97669
0.998791
0.9958
0.997067
0.996285
0.996335
0.999021
0.998424
0.997459
0.994411
0.996395
1
0.99412
0.996415
0.991873
0.98613
0.980684
0.996934
0.991824
0.988401
0.980806
0.96787
0.989857
0.996468
0.98593
1
0.99832
0.99936
0.999932
0.996305
0.999021
0.999248
0.995652
0.997327
0.991782
1
0.998344
0.995984
0.99504
0.986454
0.979233
0.991824
0.99356
0.994251
0.98381
0.98089
0.993612
0.997464
0.99055
0.9989
1
0.997944
0.999966
0.998648
1
0.999443
0.997908
0.995776
0.98744
1
0.997229
0.995242
0.996984
0.984874
0.978538
0.993838
0.996592
0.996135
0.994759
0.98887
0.996554
0.993449
0.99195
1
0.998264
0.99791
1
0.997356
1
0.999645
0.998423
0.992686
0.994069
1
0.998107
0.998396
0.996519
0.985668
0.981682
0.984519
0.997404
0.996014
0.990853
0.98376
0.994037
0.995622
0.99993
0.996151
1
0.999022
0.999831
0.997387
0.999797
0.999508
0.998519
0.991697
0.99058
1
0.99804
0.999219
0.997154
0.992133
0.987425
0.996392
0.998611
0.995068
0.993925
0.99958
0.992529
0.995049
0.99713
1
1
0.999056
1
0.996546
0.999021
0.99958
0.99848
0.995097
0.989146
1
0.999358
0.999238
0.996933
0.994694
0.995617
0.999669
0.998793
0.995355
0.994659
0.99993
0.998877
0.997494
1
0.996812
1
0.999292
1
0.996906
0.999021
0.999645
0.997951
0.994605
0.993992
0.996812
1
0.99825
0.993867
0.994873
0.990448
0.998256
0.998078
0.994692
0.995126
0.99678
0.997445
0.995652
0.99846
1
0.998376
1
1
0.999579
1
0.998928
0.997386
0.996309
0.99589
1
0.998986
0.998942
0.99171
0.994857
0.994287
0.997685
0.998486
0.994522
0.993457
0.99594
1
0.998521
1
0.996921
1
1
1
0.999129
0.999021
0.999397
0.997908
0.996075
0.998643
1
1
0.997996
0.993836
0.99664
0.993198
0.998557
0.998441
0.997146
0.995493
1
1
0.999306
1
1
1
0.999798
0.999662
0.999249
0.999966
0.998302
0.996535
0.99599
0.991431
1
0.99902
0.998119
0.995536
0.99681
0.992141
0.999128
0.998631
0.997938
0.997163
0.99797
0.999961
0.998068
1
1
0.999384
1
0.999831
0.995343
0.999021
0.998714
0.996051
0.996842
0.996394
0.99989
1
0.9981
0.995996
0.995882
0.998428
0.999308
0.999532
0.999139
0.9998
0.99433
1
0.999124
1
0.996811
1
0.998078
0.998378
0.999459
1
0.998585
0.997068
0.998328
0.996782
0.99989
1
0.997661
0.996678
0.998144
0.99737
1
0.999051
0.998642
0.999933
1
1
1
0.99636
1
1
1
0.998987
0.995883
0.999358
0.998653
0.997847
0.997585
0.997325
1
1
0.998619
0.998196
0.997965
0.999123
1
0.999689
0.99867
0.998698
0.99979
0.998877
1
1
1
1
0.999022
0.997399
0.997386
1
0.998783
0.99886
0.998659
0.998876
0.99934
1
0.999146
0.997983
0.998411
0.996493
1
0.999725
0.998836
0.999366
0.99629
1
0.999909
1
1
1
0.996831
0.999358
0.998257
1
0.998966
0.999137
0.998009
0.997945
1
1
0.999219
0.998049
0.998338
0.99743
1
0.999883
0.998573
0.999032
0.995939
1
0.997433
0.99867
1
1
0.999663
1
0.998408
0.999358
0.9986
0.999067
0.998005
0.998139
1
1
0.99955
0.999121
0.998816
0.997218
1
0.999859
0.997934
0.998398
1
1
0.998551
0.99594
1
1
0.998416
1
1
1
0.999226
0.999555
0.99897
0.996627
1
1
0.99945
0.999229
0.998075
0.999123
1
0.999673
0.997926
0.996528
0.99839
1
0.99544
0.99727
1
1
0.998045
0.998953
1
1
0.999557
0.999555
0.998873
0.998837
1
0.999966
0.999331
0.999551
0.998379
0.998186
0.999158
0.999996
0.998868
0.999099
1
1
0.998249
0.99741
0.997032
1
1
0.997703
0.999129
1
0.999554
0.996258
0.998692
0.998139
1
0.999662
0.999738
0.999439
0.998358
0.997491
1
1
0.999648
0.999032
0.99797
1
0.998762
0.99664
1
1
0.998247
0.99902
0.999129
1
0.998287
0.996212
0.998792
0.998488
1
1
0.999704
1
0.999177
0.998307
0.998256
1
0.999883
0.997697
0.99825
1
1
0.99594
1
0.998376
0.996393
1
0.999099
1
0.996009
0.998829
0.999455
1
1
1
0.999785
0.999775
0.998825
0.999002
1
0.999875
1
0.997096
1
1
1
0.99538
1
0.998936
1
1
0.999129
1
0.999142
0.999444
0.998744
0.998178
1
1
0.999765
1
0.998683
0.999123
1
1
1
1
1
1
1
0.99867
1
1
1
1
1
1
0.999962
0.999777
0.99832
0.997441
1
1
0.999788
1
0.999084
1
1
1
1
1
1
1
1
1
1
1
1
1
1
1
0.999889
0.999893
0.997674
0.997751
1
1
0.999777
0.999888
0.998942
0.997853
1
1
1
1
0.99881
1
1
1
0.99989
1
1
0.99902
0.9997
1
1
0.999996
0.997952
0.998488
1
1
1
1
0.999023
0.99619
1
1
1
1
1
1
1
1
1
1
1
1
1
1
1
1
0.998853
0.997015
1
1
1
1
0.998727
0.997369
1
1
1
1
0.99797
1
1
1
1
1
1
1
1
1
1
1
0.998255
0.998876
1
1
1
1
0.999274
0.998035
1
1
1
1
0.99636
1
1
1
1
1
1
1
1
1
1
1
0.999144
0.999767
1
1
1
1
0.998987
0.998247
1
1
1
0.999165
1
1
1
1
1
1
1
1
0.999609
1
1
1
0.999112
0.997751
1
1
1
1
1
0.99997
1
1
1
1
1
1
1
1
1
1
1
1
1
1
1
1
0.999649
0.999263
1
1
1
1
1
0.997642
1
1
1
1
0.99881
1
1
1
1
1
1
1
1
1
1
1
0.999883
0.997752
1
1
1
1
0.999765
0.997068
1
1
1
1
1
1
1
1
1
1
1
1
1
1
1
1
0.999645
1
1
1
1
1
0.999688
1
1
1
1
1
1
1
1
1
1
1
1
1
1
1
1
1
0.999608
0.998915
1
1
1
1
0.999489
1
1
1
1
1
1
1
1
1
1
1
1
1
1
1
1
1
0.999532
1
1
1
1
1
0.999765
1
1
1
1
1
1
1
1
1
1
1
1
1
1
1
1
1
0.999422
1
1
1
1
1
0.999882
1
1
1
1
1
1
1
1
1
1
1
1
1
1
1
1
1
0.999564
1
1
1
1
1
1
1
1
1
1
1
1
1
1
1
1
1
1
1
1
1
1
1
1
1
1
1
1
1
0.999611
1
1
1
1
1
1
1
1
1
1
1
1
1
1
1
1
1
0.999883
1
1
1
1
1
0.999883
1
1
1
1
1
1
1
1
1
1
1
1
1
1
1
1
1
1
1
1
1
1
1
1
0.999127
1
1
1
1
1
1
1
1
1
1
1
1
1
1
1
1
1
0.999609
1
1
1
1
1
1
1
1
1
1
1
1
1
1
1
1
1
1
1
1
1
1
1
1
1
1
1
1
1
1
1
1
1
1
1
1
1
1
1
1
1
1
1
1
1
1
1
1
1
1
1
1
1
1
1
1
1
1
1
1
1
1
1
1
1
1
1
1
1
1
1
1
1
1
1
1
1
1
1
1
1
1
1
1
1
1
1
1
1
1
1
1
1
1
1
1
1
1
1
1
1
1
1
1
1
1
1
1
1
1
1
1
1
1
1
1
1
1
1
1
1
1
1
1
1
1
1
1
1
1
1
1
1
1
1
1
1
1
1
1
1
1
1
1
1
1
1
1
1
1
1
1
1
1
1
1
1
1
1
1
1
1
1
1
1
1
1
1
1
1
1
1
1
1
1
1
1
1
1
1
1
1
1
1
1
1
1
1
1
1
1
1
1
1
1
1
1
1
1
1
1
1
1
1
1
1
1
1
1
1
1
1
1
1
1
1
1
1
1
1
1
1
1
1
1
1
1
1
1
1
1
1
1
1
1
1
1
1
1
1
1
1
1
1
1
1
1
1
1
1
1
1
1
1
1
1
1
1
1
1
1
1
1
1
1
1
1
1
1
1
1
1
1
1
1
1
1
1
1
1
1
1
1
1
1
1
1
1
1
1
1
1
1
1
1
1
1
1
1
1
1
1
1
1
1
1
1
1
1
1
1
1
1
1
1
1
1
1
1
1
1
1
1
1
1
1
1
1
1
1
1
1
1
1
1
0.511882
0.494357
0.477612
0.493602
0.51312
0.463507
0.462148
0.470085
0.50548
0.502168
0.538857
0.504991
0.735388
0.853129
0.931315
0.956735
0.956588
0.929163
0.828013
0.934752
0.916229
0.636967
0.471509
0.900599
0.647917
0.475769
0.50376
0.515069
0.564692
0.812301
0.93786
0.921125
0.943669
0.910244
0.927715
0.890647
0.879373
0.879301
0.805403
0.850033
0.780865
0.720813
0.646481
0.856882
0.870414
0.526611
0.617409
0.527401
0.522186
0.530419
0.493294
0.851739
0.879606
0.773387
0.872939
0.873843
0.846007
0.855686
0.824509
0.768955
0.760452
0.799113
0.726872
0.807168
0.769189
0.703395
0.638161
0.555427
0.508357
0.498586
0.474553
0.555708
0.821978
0.47428
0.673617
0.836084
0.836754
0.740226
0.664905
0.733685
0.656722
0.617339
0.609912
0.591991
0.538764
0.580489
0.519623
0.511038
0.486731
0.508814
0.498019
0.532084
0.563116
0.578719
0.547915
0.55596
0.445746
0.423673
0.43776
0.427334
0.426305
0.424267
0.425408
0.42409
0.430451
0.429659
0.416638
0.432581
0.428756
0.4149
0.409049
0.613757
0.804283
0.614982
0.768484
0.6075
0.668911
0.47365
0.822092
0.484984
0.422386
0.974493
0.717409
0.523103
0.41727
0.959933
0.684581
0.474354
0.448777
0.497148
0.441432
0.473018
0.487809
0.408994
0.419885
0.699897
0.511359
0.596427
0.702374
0.505624
0.461007
0.43586
0.419921
0.437486
0.433049
0.538446
0.642936
0.793257
0.519659
0.884067
0.418149
0.406644
0.912639
0.418762
0.667514
0.426543
0.820282
0.408993
0.551057
0.816765
0.955139
0.914689
0.94958
0.864777
0.988361
0.98296
0.954925
0.451089
0.423734
0.595254
0.49027
0.563169
0.694455
0.426249
0.775238
0.535562
0.712361
0.800892
0.452015
0.96123
0.414757
0.40688
0.411393
0.423178
0.421318
0.412752
0.423141
0.420996
0.427799
0.435984
0.414272
0.433049
0.447425
0.411926
0.451527
0.607942
0.446564
0.43747
0.540564
0.448188
0.420822
0.419138
0.436586
0.432204
0.42476
0.864524
0.657029
0.69709
0.611782
0.863499
0.836883
0.476896
0.715529
0.464154
0.405805
0.428535
0.435164
0.404605
0.41991
0.746874
0.62277
0.867268
0.959644
0.959993
0.430867
0.428799
0.409612
0.427087
0.433123
0.816975
0.982017
0.997392
0.987504
0.988581
0.404291
0.409672
0.665493
0.410734
0.488115
0.431627
0.483847
0.431199
0.486952
0.879059
0.99054
0.987131
0.969974
0.896002
0.996033
0.997908
0.973241
0.411139
0.482218
0.663586
0.430845
0.693635
0.829814
0.640314
0.888745
0.462866
0.93728
0.981785
0.750584
0.998016
0.400786
0.398202
0.412052
0.422931
0.430064
0.418914
0.428549
0.42416
0.441843
0.514171
0.492815
0.54695
0.845889
0.730182
0.958085
0.398355
0.396808
0.425662
0.418982
0.420706
0.398016
0.420793
0.422527
0.422967
0.970846
0.965143
0.953133
0.974187
0.981458
0.987434
0.980042
0.977125
0.992608
0.424976
0.404513
0.419284
0.43171
0.402223
0.425095
0.992214
0.992116
0.989832
0.987654
0.997471
0.425568
0.434053
0.421651
0.427107
0.437409
1
0.99051
0.995807
0.999341
0.993428
0.419552
0.420135
0.560115
0.452398
0.77097
0.5522
0.877861
0.811191
0.984913
0.862639
0.997151
0.998937
0.980032
0.887521
0.993008
0.99814
0.940418
0.883203
0.990929
0.987139
0.992134
0.992006
0.996867
1
0.993313
0.991916
0.998645
0.99714
0.999562
0.995879
0.401362
0.400399
0.473606
0.433152
0.429468
0.63875
0.4235
0.486536
0.81556
0.976339
0.954492
0.943904
0.992143
0.966768
0.998047
0.398224
0.402021
0.421387
0.422988
0.424951
0.400318
0.422428
0.424009
0.423481
0.989834
0.991401
0.989453
0.99438
0.985206
0.991525
0.992269
0.991126
0.991051
0.430074
0.420727
0.425198
0.427801
0.418419
0.427644
0.992282
0.989539
0.984878
0.993152
0.994092
0.431284
0.43539
0.415125
0.428068
0.532578
0.993619
0.991155
0.99705
0.99672
0.989764
0.601213
0.937513
0.994059
0.990952
0.994712
0.992639
0.993974
0.996682
0.997761
0.918006
0.998208
0.995875
0.987934
0.923614
0.996196
0.998925
0.922395
0.992099
0.995943
0.996351
1
0.996593
0.99248
1
0.996283
0.996929
0.999004
0.997946
0.994513
0.997268
0.405083
0.400844
0.779223
0.422557
0.614582
0.891585
0.441917
0.808452
0.977675
0.984742
0.98186
0.978515
0.995041
0.993511
0.994415
0.400641
0.412016
0.407166
0.420043
0.416552
0.396758
0.405213
0.412041
0.41804
0.9933
0.996921
0.984747
0.997346
0.992066
0.996937
0.99257
0.990228
0.989355
0.42463
0.417575
0.426676
0.430436
0.430845
0.40683
0.985732
0.98961
0.986796
0.98864
0.949469
0.432043
0.78786
0.441077
0.562676
0.953067
0.992906
0.980853
0.996952
0.954455
0.941681
0.981725
0.978584
0.996177
0.999381
1
0.994618
0.998548
0.998369
0.999122
0.95036
0.996677
1
0.985145
0.983551
0.995876
0.991347
0.910659
0.997971
0.997971
0.999094
1
0.997909
0.998248
0.993634
0.994921
0.999561
1
0.999922
1
0.996774
0.467031
0.780766
0.980867
0.791566
0.965471
0.989774
0.954748
0.977676
0.990331
0.998566
0.995932
0.994726
0.996396
0.998674
0.994628
0.416032
0.427435
0.430738
0.412516
0.434257
0.418144
0.690019
0.43352
0.746826
0.996703
0.997125
0.995228
0.998822
0.996918
0.999022
0.998878
0.982859
0.99765
0.426912
0.463375
0.480964
0.612487
0.854734
0.872957
0.948005
0.998851
0.859415
0.997975
0.998375
0.997909
0.999004
0.458117
0.554289
0.39048
0.99985
0.94478
0.993075
0.902356
0.896495
0.979514
0.973828
0.981273
0.987026
0.878309
0.878763
0.971473
0.998883
0.999931
0.865687
0.992926
0.38855
0.731245
0.436076
0.991226
0.905768
0.99823
0.942578
0.984722
0.990582
0.99934
1
0.997669
0.999068
1
0.996737
0.999697
0.993039
0.993878
0.996799
0.992676
0.989903
0.989868
0.995189
0.956608
0.997971
0.996082
1
0.99989
0.997677
0.998942
1
1
0.996817
0.997221
0.99736
1
0.995796
0.915372
0.89648
0.976141
0.929779
0.954386
0.947005
0.952308
0.954993
1
0.996862
0.996702
0.993515
0.997754
0.999303
0.996661
0.562367
0.72231
0.889205
0.549736
0.958434
0.47151
0.867233
0.681225
0.967227
0.995077
0.999663
0.99997
0.998257
0.998437
0.998046
0.999095
0.997278
0.997848
0.99577
0.999067
1
0.997994
1
1
0.954129
0.96756
0.986126
0.982464
0.997471
0.991851
0.998589
0.998996
0.998894
0.998902
1
1
0.999277
0.9997
1
1
1
1
1
1
0.997303
0.996592
1
0.995485
0.996088
0.998706
0.87733
0.98646
0.996909
0.999686
0.894908
0.983073
1
0.999285
1
1
1
1
1
0.997279
0.99986
1
0.996962
0.998244
0.999128
0.998086
0.998369
1
0.989368
0.991245
0.992124
0.992733
0.983273
0.992637
0.994051
0.997995
0.931241
0.996174
1
0.998944
1
1
1
0.996677
1
0.99849
1
1
0.998487
1
0.999366
0.998953
1
0.99993
0.813246
0.965285
0.98043
0.962915
0.978981
0.966136
0.986994
0.975741
0.987425
0.998877
0.986809
0.981667
0.996941
0.997705
0.99993
0.917655
0.984743
0.89088
0.863551
0.966152
0.963983
0.972009
0.980209
0.983353
1
0.998383
0.999183
0.998857
1
0.999966
0.998407
0.99991
1
1
1
0.999949
1
0.997647
1
0.987071
0.993622
0.997879
0.992103
1
0.998061
0.99993
0.999654
1
0.998196
1
0.99933
1
1
1
1
1
1
1
1
0.997545
0.999961
1
0.999424
0.998528
0.996987
0.908043
0.982926
0.994539
0.999968
0.913964
0.98906
1
1
1
1
1
1
1
0.995954
1
1
1
1
1
0.99967
0.998931
1
0.972274
0.991606
0.988921
0.989368
0.963358
0.991227
0.966336
0.994648
0.923464
1
1
1
1
0.997971
1
1
1
0.998684
0.997221
1
0.999961
1
1
0.996664
1
0.995946
0.985501
0.998048
0.974052
0.992878
0.98204
0.980098
0.997561
0.981707
0.974787
0.982221
0.962841
0.974727
0.967732
0.999791
0.99735
0.98746
0.993521
0.995115
0.992042
0.996319
0.995015
0.991879
0.994457
0.997785
1
0.995459
0.998553
0.997317
1
0.999033
0.99997
1
0.99839
0.9976
1
0.996638
0.993962
0.996811
0.998152
1
0.998937
1
1
1
1
0.999019
1
1
1
1
1
1
1
0.999121
1
1
1
1
0.99896
0.937488
0.991771
0.99997
1
0.974837
0.992912
1
1
1
1
1
1
1
1
1
0.999868
0.997806
1
0.99997
0.998086
1
1
0.965297
0.995968
0.958211
0.992914
0.963456
0.975165
0.946322
0.913312
1
1
0.999124
1
0.999613
1
0.996817
0.998875
1
0.99846
0.994763
1
0.995797
1
0.997909
0.950519
0.990672
0.976256
0.963824
0.992569
0.980891
0.978032
0.976801
0.966469
0.979854
0.986139
0.992746
0.993933
0.99596
0.994427
0.99973
0.993176
0.998079
0.995184
0.996854
0.996245
0.998209
0.998373
0.995118
0.99912
0.996542
1
0.955519
0.999059
1
1
0.997716
1
1
0.998413
1
0.999122
0.999074
1
1
0.999079
1
1
1
1
1
1
1
0.978803
0.995887
1
0.982796
0.998675
1
1
1
1
1
0.999043
0.998369
1
0.932363
0.968564
0.954162
0.9614
0.933029
0.944726
0.961994
0.910011
1
1
1
1
1
1
1
0.995114
1
0.999305
0.996706
1
0.981931
0.996027
0.992124
0.983067
0.994002
0.986736
0.971082
0.996208
0.974534
0.977857
0.981691
0.989665
0.97907
0.97875
0.981804
0.962428
0.99596
1
0.988406
0.996901
0.997787
0.99244
0.987388
0.999076
0.998438
0.996462
0.953956
0.995552
0.959272
0.996462
0.98679
0.988029
0.997979
0.986672
0.997987
1
0.997365
0.997368
0.996811
1
0.994537
1
0.987059
0.989443
0.996813
1
0.998877
1
1
1
1
0.98421
0.987457
0.996816
0.988312
1
1
1
1
1
0.999128
1
1
1
0.931997
0.958947
0.965098
0.958013
0.944256
0.978083
0.954593
0.928553
1
0.997971
1
0.996817
0.999187
0.999456
1
0.977801
1
0.985355
0.973699
0.999122
0.967379
0.991079
0.994215
0.968333
0.992609
0.975867
0.97559
0.989785
0.969418
0.98113
0.984634
0.97889
0.991428
0.989278
0.954689
0.982154
0.99596
0.99596
0.990025
0.996723
0.997429
0.995128
0.996555
0.984507
0.993948
0.985789
0.99272
0.972337
0.990688
0.977359
0.992357
0.991864
0.976665
0.985876
0.996633
1
0.999122
0.995859
1
0.99894
0.988507
0.99373
0.988608
0.984995
0.990208
1
1
1
1
1
0.978022
0.979496
0.984405
0.975931
0.938042
1
1
1
1
1
1
1
1
1
0.951868
0.971852
0.957351
0.967992
0.96545
0.974403
0.959771
0.921419
1
1
0.9971
1
0.996903
0.990939
1
0.976839
0.996817
0.986865
0.985592
0.996817
0.976268
1
0.997979
0.977789
0.980382
0.970357
0.980978
0.970322
0.972446
0.990641
0.971705
0.990324
0.989066
0.981497
0.989543
0.988357
0.988716
0.987044
0.997933
0.968628
0.995933
0.996248
0.996795
0.99282
0.99987
0.986289
0.986656
0.991076
0.984889
0.989379
0.980362
0.990712
0.985871
0.996642
0.999071
0.997911
0.996881
0.991911
0.994612
0.99894
0.991286
0.996149
0.996899
0.987563
0.970843
1
1
0.996811
0.998243
1
0.955265
0.93609
0.955376
0.959113
0.962485
1
1
1
1
0.998819
1
0.999077
1
1
0.967303
0.986896
0.921956
0.984977
0.971692
0.981332
0.925851
0.969335
1
1
0.981033
0.996817
0.998877
0.992691
0.999341
0.989736
0.993635
0.983875
0.986676
0.99583
0.989428
0.987873
0.986898
0.988125
0.981698
0.975807
0.986146
0.97601
0.989857
0.995002
0.991562
0.99934
0.996699
0.996052
0.97776
0.996514
0.99791
0.999025
0.994129
0.997646
0.998145
0.996696
0.978284
0.997408
0.991736
0.99202
0.971399
0.992678
0.995734
0.995111
0.994069
0.996944
0.997831
0.994123
0.992298
0.997911
0.997396
0.996439
1
0.999122
0.989772
0.981957
0.98837
0.988924
0.989328
1
1
1
1
1
0.991977
0.990747
0.988662
0.98868
0.989856
1
1
0.999967
1
1
1
0.999044
1
0.999304
0.964644
0.975524
0.924437
0.975126
0.971842
0.980359
0.939809
0.970594
1
1
0.989037
0.988366
0.997755
0.99402
0.984086
0.990278
0.990671
0.989582
0.990123
0.992866
0.986138
0.989476
0.967314
0.985266
0.986225
0.97829
0.984606
0.983362
0.986102
0.992064
0.994387
0.991864
0.991671
0.995549
0.993377
0.990519
0.998398
0.99798
0.984694
0.995472
0.986269
0.990032
0.986012
0.995829
0.987603
0.993481
0.994233
0.995976
0.992189
0.993369
0.997001
0.991559
0.997761
0.998391
0.992027
0.996811
0.995609
0.998336
1
0.999122
0.98953
0.985698
0.997558
0.99192
0.987898
0.999121
0.997754
1
0.999121
1
0.99978
0.995277
0.99737
1
0.995315
1
1
1
1
0.997821
1
1
1
1
0.977304
0.974643
0.947327
0.978165
0.969952
0.97367
0.92749
0.983687
0.996502
0.994193
0.993235
0.984086
0.979558
0.989943
0.990451
0.994849
0.991659
0.990851
0.995623
0.993086
0.969475
0.980277
0.98871
0.996591
0.98994
0.99131
0.996811
0.985529
0.990371
0.995911
0.995897
0.99934
0.99897
0.995936
0.997211
0.990379
0.99589
0.983144
0.9873
0.992016
0.987245
0.980456
0.986761
0.988381
0.990434
0.993144
0.996705
0.999576
0.996335
0.993537
0.99598
0.993525
0.995942
0.992235
0.996246
0.996811
0.995609
0.984093
1
0.991036
0.997367
0.993619
0.992286
0.997912
0.99681
0.99997
0.999613
0.99989
0.998243
0.999961
1
0.994618
1
1
0.993921
0.998675
1
0.999044
1
0.997367
1
1
1
0.998244
0.973491
0.961356
0.923647
0.98117
0.973094
0.969383
0.937776
0.971225
0.996642
0.998391
0.996285
0.993744
0.996012
0.992691
1
0.992021
0.994842
0.994776
0.986637
0.984087
0.959463
0.97986
0.965779
0.995711
0.98727
0.991764
0.997911
0.983903
0.990159
0.996305
0.995935
1
0.998486
0.996787
0.995816
0.998048
0.965384
0.98781
0.985385
0.975781
0.990598
0.964719
0.98583
0.977207
0.997917
0.99837
0.994003
0.992798
0.996846
0.995786
0.997528
0.997277
0.997481
0.98727
0.944815
0.983066
0.954183
0.979176
0.950963
0.968017
0.998366
1
0.993721
0.994493
1
0.994427
0.998916
0.970531
0.975851
0.998838
1
0.992565
0.99731
0.994066
0.98978
1
0.998047
0.998088
1
0.999122
1
0.99911
1
1
0.9604
0.974245
0.929513
0.989682
0.940031
0.980026
0.927051
0.92433
1
0.997971
0.994654
0.994292
0.993689
0.991815
0.996159
0.997753
0.998354
0.995048
0.984665
0.994733
0.9818
0.989407
0.997979
1
0.992069
0.997063
1
0.997523
0.995457
0.998244
0.996633
1
0.999121
0.997755
0.997978
0.99993
0.991642
0.9899
0.995567
0.99154
0.997918
0.994624
0.996166
0.996246
0.998113
0.999382
0.997166
0.992133
0.998228
0.994157
0.995287
0.989835
0.997201
0.995314
0.994621
0.993624
0.98586
0.994542
0.974596
0.979767
0.997367
0.996809
0.992248
0.995007
0.991419
0.981733
0.99547
0.980867
0.957371
0.986912
0.996813
0.97282
0.992987
0.994285
0.971737
0.998605
0.981514
0.99911
0.998369
0.999122
0.997414
0.99779
1
0.999122
0.926006
0.972975
0.880433
0.964704
0.936385
0.95028
0.903002
0.929136
0.997971
1
0.992119
0.996708
0.997057
0.99556
0.995719
0.994385
0.993745
0.995047
0.994073
0.997914
0.979623
1
1
0.996812
0.99911
0.997699
0.996811
0.997755
0.997365
0.997305
0.999923
0.996811
0.994093
0.998335
0.994145
1
0.998677
0.997283
0.998263
0.995919
0.997137
0.99496
0.997214
0.997527
0.996713
0.993426
0.997134
0.994827
0.996184
0.996009
0.997759
0.990891
0.987829
0.991884
0.997756
0.993624
0.996276
0.995587
0.990432
0.994154
0.99171
0.973491
0.991858
0.991314
0.995709
0.989762
0.989585
0.990212
0.996425
0.995663
0.996484
0.974219
0.987723
0.991096
0.970686
0.987513
0.992049
0.998417
0.998481
0.994643
0.998106
0.996801
0.996851
0.997578
0.952572
0.957745
0.904618
0.980799
0.938185
0.964846
0.932848
0.896855
0.99923
0.995942
0.99535
0.99583
0.995315
0.990757
0.991438
0.989583
0.996818
0.994081
0.990315
1
0.982914
0.99993
1
0.993623
0.99706
0.99676
1
0.997756
0.993762
0.997032
0.99733
0.99879
0.995123
0.998142
0.995957
1
0.999304
0.994636
0.998592
0.997409
0.99717
1
0.999131
0.99413
0.997494
0.985279
0.995289
0.994978
0.998257
0.995391
0.998978
0.99531
0.993915
0.990484
0.997136
0.993624
0.997608
0.996284
0.996811
0.996335
0.993041
1
0.985615
0.990406
0.991527
0.998546
0.996631
0.992412
0.997394
1
0.980221
0.972864
0.986242
0.987359
0.967279
1
0.997977
0.998154
0.998369
0.997458
0.996662
0.997362
0.999662
0.996488
0.918411
0.966774
0.925242
0.969412
0.928269
0.968131
0.948336
0.906518
0.993984
0.998391
0.998732
0.989683
0.994037
0.988975
0.992318
0.99179
0.996269
0.989822
0.982606
0.991329
0.977382
0.993868
0.997769
1
0.999961
0.996549
0.996811
0.996633
0.997365
0.998637
0.997058
1
0.997334
0.996632
0.99498
0.995329
0.99596
0.99798
0.997185
0.997379
0.996649
0.995127
0.994697
1
1
0.996966
0.999967
0.996037
0.997356
0.992863
0.998187
0.99192
0.986989
0.990625
0.998878
0.996812
0.99564
1
0.996811
0.997668
0.989984
0.9989
0.986471
0.992313
0.986247
0.996668
0.998877
0.996701
0.997182
0.998877
0.992528
0.966864
0.976565
0.98659
0.970415
1
0.99728
0.995978
0.997863
0.993796
0.998256
1
0.998875
0.989283
0.952846
0.961636
0.947619
0.973853
0.947399
0.975551
0.959697
0.942861
0.997552
0.990415
0.994926
0.996817
0.995354
0.989277
0.993854
0.990782
0.989134
0.991877
0.987953
0.994074
0.986345
0.993031
0.992821
1
0.997911
0.998153
1
0.998878
0.998213
0.999425
0.996671
0.996371
0.998425
0.995316
0.995956
1
0.993941
1
0.996346
0.999136
1
0.993504
0.991373
0.999136
1
0.995336
0.995091
0.996521
0.997206
0.992975
0.995748
0.991345
0.997552
0.994333
1
1
0.998244
1
1
0.998243
0.990075
0.986139
0.986936
0.987985
0.980856
0.999122
0.99849
1
0.998667
0.995973
0.983298
0.973251
0.978924
0.981094
0.974133
0.995397
0.99721
0.993472
0.996626
0.994552
0.997264
0.995515
0.996231
0.98883
0.970567
0.975924
0.977454
0.980599
0.978978
0.981997
0.977559
0.97031
0.998041
0.993214
0.994625
0.993634
0.99547
0.991996
0.993635
0.987414
0.986831
0.993446
0.990819
0.995939
0.987746
0.997212
0.995958
0.997911
0.996673
0.999122
1
0.997756
0.996548
0.999303
0.999381
1
0.997365
0.994774
0.997978
0.995957
1
1
0.989129
1
1
0.996136
0.993919
0.997408
0.998145
0.995336
0.99911
0.992437
0.996154
0.996909
0.998088
0.994917
0.992304
0.995943
0.998878
0.996811
0.999122
1
1
1
0.991981
0.982949
0.989029
0.992132
0.989768
0.991913
0.992179
1
0.992364
0.974942
0.993737
0.972477
0.986272
0.990107
0.981413
0.998745
0.997209
0.996505
0.995108
0.99425
0.995971
0.99535
0.991787
0.989404
0.972611
0.985591
0.982992
0.983637
0.981877
0.986711
0.980725
0.982214
0.996362
0.987896
0.99239
0.990561
0.989818
0.99405
0.987269
0.991674
0.990562
0.993839
0.992446
0.993415
0.984945
0.997979
1
1
0.99791
0.998123
1
0.997369
1
0.998062
0.995007
0.996812
0.997425
0.997639
0.998118
0.996863
1
1
0.992902
0.997706
0.990794
1
1
0.995978
0.99616
0.995505
0.998089
0.99274
0.998257
0.998426
0.9971
0.997307
0.996922
0.991744
0.998878
1
1
1
0.99989
0.99679
0.98941
0.979428
0.993448
0.989499
0.982617
0.999122
0.99849
0.996921
0.999121
0.997792
0.980331
0.982851
0.974025
0.982962
0.973629
0.997978
0.996302
0.988757
0.990833
0.991707
0.992061
0.993998
0.996569
0.991282
0.973129
0.988874
0.986834
0.988914
0.987948
0.983244
0.986095
0.981654
0.991604
0.991465
0.993447
0.990561
0.995896
0.994291
0.996817
0.995043
0.994623
0.992933
0.99663
0.989573
0.996009
1
0.998815
0.996811
0.998878
0.998244
1
0.998143
0.999152
0.99997
0.996594
0.998131
0.999939
0.995084
0.999373
0.998675
1
1
0.998293
0.999702
0.998211
0.998376
0.998832
1
0.999121
0.992752
0.998089
0.997368
0.997656
0.99837
0.997759
0.993252
0.997272
0.995872
1
1
0.999697
0.997755
0.997471
0.999122
0.987866
0.977888
0.989998
0.98738
0.968974
0.996274
0.998839
0.99934
0.999121
0.994733
0.976924
0.973522
0.97714
0.984831
0.976766
0.98919
0.99121
0.996209
0.99044
0.990013
0.988062
0.988193
0.988018
0.991796
0.986214
0.991123
0.993219
0.986008
0.989352
0.990938
0.998304
0.983614
0.989157
0.994893
0.994926
0.996817
0.99818
0.997342
0.996817
0.992797
1
0.995319
0.993298
0.993415
0.99867
1
0.999442
0.996811
0.998182
0.999092
0.993623
0.9988
0.997971
0.996487
0.996671
1
0.996789
0.999032
0.997281
0.9977
1
1
0.999371
1
1
0.998376
0.998682
1
1
0.99837
0.998089
0.996067
0.99979
0.995841
0.996441
0.996096
0.994893
0.990485
1
1
1
0.998878
1
1
0.985415
0.971178
0.993255
0.990891
0.987788
1
0.992721
1
1
0.993184
0.99077
0.986916
0.989386
0.988568
0.993107
0.987237
0.983954
0.997132
0.989372
0.991556
0.991761
0.998351
0.99505
0.997336
0.993259
0.99392
0.991807
0.991752
0.987216
0.993127
0.995874
0.990197
0.995172
0.993354
0.997916
1
0.996438
0.991694
1
0.996979
1
0.997705
0.99171
1
0.998109
0.997909
0.998188
1
0.996633
0.999394
0.996922
0.996634
0.998244
0.997062
0.998645
0.997472
0.998062
0.994619
1
0.996653
1
1
0.999102
1
1
0.998376
0.998262
1
1
0.998371
0.998089
0.996793