/*--------------------------------*- C++ -*----------------------------------*\
| =========                 |                                                 |
| \\      /  F ield         | OpenFOAM: The Open Source CFD Toolbox           |
|  \\    /   O peration     | Version:  5.x                                   |
|   \\  /    A nd           | Web:      www.OpenFOAM.org                      |
|    \\/     M anipulation  |                                                 |
\*---------------------------------------------------------------------------*/
FoamFile
{
    version     2.0;
    format      ascii;
    class       volScalarField;
    location    "1";
    object      p;
}
// * * * * * * * * * * * * * * * * * * * * * * * * * * * * * * * * * * * * * //

dimensions      [0 2 -2 0 0 0 0];

internalField   nonuniform List<scalar> 
10571
(
92.8007
117.677
93.8857
97.0647
205.457
131.943
157.227
166.874
230.366
251.878
128.584
147.965
161.202
190.212
235.948
253.289
177.419
182.454
194.649
233.206
250.079
193.682
213.232
226.478
92.9383
107.15
93.849
90.1302
86.4075
122.855
98.5412
87.798
107.943
143.315
135.09
127.8
151.885
153.409
192.969
189.644
134.45
176.509
187.557
208.084
198.52
178.007
188.539
195.359
88.5079
90.7229
83.434
85.1844
81.6692
101.18
82.5976
79.4803
82.4393
83.0915
134.269
124.991
101.888
94.6223
116.32
122.921
104.97
117.701
147.135
154.347
137.219
126.981
156.388
155.083
83.053
75.5443
77.4755
81.075
79.978
67.9646
71.8929
70.8972
67.9435
76.0235
51.4534
78.7734
44.2565
41.2178
55.9724
77.4632
48.2295
39.2497
53.2082
84.0702
89.2586
66.0982
87.6706
94.4134
78.921
42.5048
77.413
80.485
64.6197
33.5235
48.3419
48.6519
38.1013
44.2767
35.4503
34.0387
32.7709
32.3446
34.5187
43.0488
35.3544
34.8661
36.1587
36.9267
48.7635
38.0744
40.4723
45.6258
53.4238
34.9749
67.0922
76.1391
31.716
34.3918
31.9569
31.3353
32.2931
33.6176
33.6542
35.1595
35.3088
35.4023
34.7111
33.9298
33.9173
33.687
35.0577
35.7441
34.8896
34.0891
34.1839
35.1806
35.0176
34.688
31.0576
33.9526
30.9294
29.6038
33.6907
33.6217
32.551
32.4675
34.2198
33.6585
33.7957
34.6406
34.5628
35.1338
34.7415
34.1034
33.9161
33.8249
34.7817
35.1523
34.9591
34.2247
34.1127
33.9248
34.8362
34.7005
34.464
33.5018
33.7406
33.5293
33.7155
33.6763
33.7425
33.5632
33.7711
34.1985
33.8416
33.74
34.5305
34.3731
34.3429
34.3112
33.9663
33.9461
33.6453
34.5302
34.7595
34.7819
34.2925
34.0669
33.8243
34.7048
34.5592
34.411
33.7045
33.9113
33.5528
33.6045
33.6418
33.9015
33.4729
33.6726
33.8016
33.8291
33.8296
34.2321
34.0708
34.0048
34.0715
33.8302
33.8338
33.6668
34.2516
34.6607
34.5397
34.1759
33.9985
34.5663
34.4054
34.2915
33.5843
33.8333
33.5909
33.5679
33.501
33.833
33.4456
33.5623
33.603
33.613
33.9871
33.86
33.9421
33.9955
33.7195
33.9615
34.0352
34.562
34.2476
33.9863
33.8646
34.3357
34.2288
34.1328
33.528
33.7732
33.5907
33.4845
33.5499
33.7073
33.5402
33.6413
33.565
33.6064
33.9239
33.833
33.9422
33.9397
33.6452
33.729
33.8733
34.3497
33.9729
33.82
33.8132
34.1728
34.1112
33.9889
33.4642
33.7578
33.5825
33.2226
33.5584
33.7419
33.6798
33.7687
33.6075
33.6307
33.9498
33.8732
33.9196
33.8599
33.7072
33.7829
33.7834
34.1194
33.8027
33.6974
33.8329
34.125
34.0168
33.9093
33.4407
33.793
33.5652
33.1939
33.4958
33.8766
33.7804
33.9201
33.7049
33.531
34.0132
33.9813
33.9139
33.8914
33.8702
33.9114
33.797
33.9172
33.7807
33.7164
33.9132
34.0842
33.9634
33.9073
33.6403
33.8989
33.7187
33.5368
33.4947
33.9758
33.8727
33.9868
33.9239
33.7119
34.0508
34.0567
33.9181
33.9515
33.9949
34.0303
33.8684
33.842
33.8638
33.8213
34.0242
34.0601
33.9656
33.9567
33.9193
33.9929
33.9108
33.9109
33.731
34.0427
33.9462
34.1012
34.1018
34.0077
34.0804
34.0789
33.9231
33.9468
34.0628
34.0548
33.9595
33.8785
33.9541
33.9581
34.1065
34.0692
34.0007
34.0405
34.0653
34.0125
33.9976
33.9949
33.9265
34.0668
34.063
34.1468
34.1242
34.1915
34.1123
34.0767
33.967
34.0324
34.1054
34.0877
34.04
33.9597
34.0337
34.0428
34.1597
34.0952
34.0403
34.1059
33.961
33.9539
33.9005
33.8502
33.9543
34.0416
34.1484
34.0326
34.0066
34.2509
34.1211
34.0717
34.0488
34.0891
34.1423
34.1604
34.0974
34.0517
34.0862
34.09
34.2252
34.1365
34.0932
34.158
33.8446
33.9403
33.8023
33.6596
33.8734
33.992
34.1385
33.8432
34.0828
34.3377
34.1189
34.0711
34.105
34.1116
34.2095
34.3171
34.1357
34.1262
34.1189
34.1572
34.2607
34.1841
34.1368
34.2088
33.8986
34.0041
33.828
33.6476
33.7866
34.0018
34.1424
33.8682
34.204
34.3199
34.1399
34.1042
34.1536
34.1174
34.2586
34.3892
34.1601
34.1901
34.1529
34.2165
34.3076
34.221
34.171
34.2495
34.1728
34.1084
33.9936
33.8575
33.8563
34.0833
34.1666
33.966
34.2311
34.2628
34.1902
34.1556
34.1926
34.1425
34.2673
34.3392
34.1837
34.2459
34.19
34.2592
34.3088
34.2604
34.2004
34.2823
34.4526
34.2296
34.2097
34.185
34.1195
34.2038
34.2183
34.0254
34.2593
34.2171
34.2396
34.218
34.2293
34.1929
34.2629
34.2933
34.2154
34.2923
34.2316
34.2728
34.302
34.299
34.2498
34.2831
34.5086
34.3324
34.3581
34.3419
34.3156
34.3075
34.2856
34.1129
34.3038
34.233
34.2895
34.2784
34.268
34.2525
34.2731
34.2808
34.2528
34.3269
34.2782
34.3016
34.3059
34.3353
34.2855
34.3236
34.4563
34.4037
34.4448
34.3669
34.3828
34.3776
34.3475
34.206
34.3346
34.2803
34.3427
34.3377
34.3144
34.3017
34.3083
34.2984
34.2884
34.3528
34.3223
34.3298
34.3246
34.3626
34.3323
34.3399
34.4043
34.4486
34.4743
34.3333
34.364
34.4042
34.4085
34.2978
34.3488
34.3234
34.3836
34.3662
34.3533
34.3448
34.3515
34.3312
34.3234
34.3733
34.3626
34.3614
34.3554
34.397
34.3631
34.3767
34.4195
34.4632
34.5183
34.4463
34.3366
34.3899
34.4416
34.3968
34.3658
34.361
34.4142
34.3894
34.3733
34.3875
34.3916
34.3697
34.3518
34.3863
34.3941
34.3942
34.3934
34.4209
34.4046
34.4126
34.5092
34.4654
34.5333
34.643
34.3616
34.375
34.4545
34.4989
34.3762
34.3936
34.4373
34.3962
34.3918
34.4244
34.4284
34.4116
34.3848
34.3919
34.4194
34.4184
34.4307
34.4404
34.4312
34.4361
34.5633
34.4876
34.5306
34.6624
34.4503
34.424
34.4699
34.5298
34.3996
34.4321
34.4444
34.4298
34.4151
34.4519
34.4673
34.4574
34.4125
34.3997
34.4418
34.4399
34.4638
34.449
34.4608
34.458
34.5629
34.5138
34.5367
34.5762
34.5204
34.4856
34.4995
34.5146
34.4443
34.4702
34.4741
34.4627
34.4408
34.4648
34.5017
34.4995
34.4378
34.4146
34.4593
34.4612
34.4901
34.4517
34.4798
34.4819
34.5759
34.5327
34.546
34.5564
34.552
34.5079
34.5309
34.5479
34.4782
34.4867
34.4891
34.4855
34.4917
34.483
34.5178
34.5203
34.4672
34.4372
34.4791
34.4819
34.5084
34.4662
34.4936
34.5008
34.5703
34.5372
34.5401
34.5407
34.5301
34.5259
34.5394
34.5295
34.4845
34.5102
34.5363
34.5295
34.5655
34.517
34.5322
34.5324
34.5151
34.4662
34.5001
34.5032
34.5243
34.4884
34.5061
34.518
34.5291
34.5273
34.5051
34.4661
34.4911
34.5481
34.5363
34.519
34.5145
34.5366
34.5912
34.5781
34.5843
34.5375
34.5412
34.5435
34.559
34.5
34.519
34.5241
34.5428
34.5224
34.5292
34.5387
34.4951
34.53
34.4936
34.4241
34.5063
34.5632
34.5531
34.535
34.5347
34.5435
34.6139
34.6009
34.587
34.5463
34.5569
34.5543
34.5814
34.5315
34.5349
34.5428
34.5639
34.5571
34.5468
34.5573
34.5249
34.5562
34.5322
34.5382
34.6286
34.5662
34.5604
34.5612
34.5465
34.5396
34.6002
34.5974
34.5808
34.5603
34.5692
34.5682
34.5852
34.553
34.5497
34.5562
34.5755
34.5603
34.5584
34.5698
34.5918
34.5605
34.5702
34.6368
34.6297
34.5595
34.5637
34.5789
34.5589
34.5748
34.5923
34.5903
34.5741
34.5609
34.5668
34.5722
34.5817
34.5598
34.5519
34.5592
34.5749
34.5714
34.5618
34.5734
34.5916
34.5395
34.5505
34.6155
34.5846
34.5617
34.5468
34.5416
34.5271
34.5457
34.5938
34.5802
34.5454
34.5341
34.5383
34.5545
34.5752
34.5423
34.5363
34.5464
34.5607
34.5635
34.5518
34.5625
34.5466
34.4812
34.4903
34.5375
34.5342
34.5306
34.4984
34.482
34.487
34.505
34.5516
34.5694
34.4938
34.4857
34.492
34.5164
34.5464
34.5039
34.506
34.52
34.5314
34.5322
34.5304
34.5411
34.4981
34.3738
34.428
34.4696
34.4826
34.435
34.4179
34.4276
34.4482
34.4631
34.4544
34.4678
34.418
34.4173
34.4541
34.4743
34.48
34.453
34.4703
34.4906
34.4958
34.4902
34.5023
34.5157
34.4665
34.3844
34.3944
34.4254
34.4445
34.3646
34.3583
34.382
34.4196
34.4358
34.3817
34.3646
34.3704
34.3522
34.4277
34.4431
34.4114
34.3987
34.4351
34.4659
34.4663
34.4512
34.4753
34.4927
34.4509
34.4125
34.3816
34.4004
34.4234
34.3415
34.3254
34.3481
34.3982
34.4205
34.3927
34.3559
34.3512
34.3361
34.4176
34.4307
34.3665
34.3549
34.4274
34.449
34.4487
34.4214
34.4562
34.4758
34.4471
34.4392
34.3783
34.3896
34.4151
34.3527
34.3038
34.3377
34.3882
34.416
34.3636
34.3375
34.3435
34.3627
34.4147
34.4365
34.3258
34.3458
34.4317
34.441
34.4468
34.4122
34.4583
34.474
34.4559
34.459
34.3797
34.3926
34.4169
34.3716
34.2914
34.3522
34.3971
34.4223
34.2964
34.3015
34.331
34.406
34.4291
34.4539
34.2693
34.3667
34.4194
34.448
34.4617
34.4207
34.4931
34.4638
34.4788
34.4735
34.3886
34.4113
34.4371
34.3899
34.2919
34.3838
34.4277
34.4432
34.3454
34.3382
34.3226
34.4502
34.4495
34.4753
34.3169
34.4077
34.4214
34.4684
34.4894
34.4302
34.5252
34.4855
34.5162
34.4897
34.3998
34.447
34.4775
34.3957
34.3043
34.4136
34.4654
34.4779
34.4257
34.4168
34.3184
34.4772
34.4943
34.4986
34.4231
34.44
34.4826
34.5103
34.5288
34.4446
34.4783
34.5316
34.5723
34.5036
34.4174
34.4935
34.5278
34.4005
34.3255
34.4464
34.5001
34.5248
34.4426
34.4256
34.3199
34.5027
34.5102
34.5279
34.4739
34.4642
34.4946
34.5559
34.5636
34.4699
34.4572
34.5322
34.6368
34.5174
34.4248
34.5474
34.5782
34.4202
34.3698
34.4954
34.5442
34.5688
34.4087
34.3863
34.377
34.5194
34.5367
34.562
34.4338
34.4676
34.5588
34.5717
34.5881
34.5152
34.5143
34.5434
34.7008
34.5386
34.4283
34.5851
34.6238
34.4582
34.4253
34.5428
34.5826
34.6057
34.3851
34.3784
34.4519
34.5622
34.5604
34.5997
34.4221
34.5314
34.6234
34.6053
34.6181
34.6184
34.6171
34.5808
34.7428
34.5595
34.4043
34.6061
34.6557
34.5151
34.4598
34.5496
34.5969
34.626
34.4824
34.4812
34.4751
34.5758
34.5821
34.6254
34.488
34.5736
34.6044
34.6252
34.6222
34.6564
34.6376
34.5969
34.7426
34.5751
34.336
34.5924
34.6602
34.5557
34.467
34.5211
34.5893
34.617
34.5781
34.5671
34.431
34.5312
34.5876
34.6111
34.4716
34.4924
34.5452
34.5946
34.593
34.5813
34.5954
34.5779
34.699
34.5813
34.2648
34.5381
34.6461
34.565
34.4337
34.4851
34.5836
34.6028
34.6038
34.5743
34.4229
34.4973
34.5603
34.5783
34.437
34.4462
34.4958
34.5461
34.5202
34.503
34.54
34.5433
34.6312
34.5691
34.2053
34.4638
34.6205
34.5576
34.4105
34.4583
34.5599
34.5824
34.5987
34.5611
34.444
34.4836
34.5262
34.5479
34.5331
34.4609
34.4797
34.5179
34.4755
34.4724
34.5041
34.5151
34.5574
34.5447
34.1621
34.3882
34.5797
34.5243
34.3987
34.4317
34.5129
34.5584
34.5749
34.5332
34.4574
34.4682
34.4891
34.5257
34.575
34.4781
34.4804
34.5194
34.5268
34.4731
34.4875
34.5034
34.4874
34.5084
34.1319
34.3188
34.5267
34.4852
34.3787
34.3996
34.4625
34.5343
34.5385
34.4949
34.457
34.449
34.4905
34.5275
34.5473
34.4792
34.4782
34.508
34.5513
34.4778
34.4818
34.4939
34.4327
34.4643
34.1293
34.2505
34.471
34.4526
34.3524
34.3628
34.4341
34.5266
34.5067
34.4679
34.4518
34.4202
34.4822
34.4991
34.5226
34.4768
34.4695
34.4861
34.5105
34.4805
34.4754
34.4835
34.399
34.4547
34.1846
34.1811
34.4147
34.4474
34.3336
34.3263
34.3981
34.5001
34.4906
34.4605
34.4436
34.3914
34.4315
34.4554
34.5162
34.4767
34.4587
34.4626
34.4782
34.4839
34.4699
34.4702
34.389
34.4934
34.277
34.1644
34.383
34.4681
34.3417
34.2898
34.3286
34.4585
34.4939
34.4703
34.4412
34.3739
34.3685
34.4016
34.5253
34.4829
34.4465
34.4275
34.419
34.4915
34.4668
34.4546
34.4332
34.5299
34.3875
34.2072
34.4165
34.5084
34.3766
34.2633
34.2321
34.42
34.5131
34.4918
34.4466
34.3725
34.2947
34.3488
34.539
34.4918
34.4382
34.3931
34.3581
34.5011
34.462
34.4366
34.5187
34.5923
34.5247
34.2995
34.5606
34.5531
34.4242
34.2215
34.1715
34.4145
34.5417
34.5215
34.4577
34.3752
34.1854
34.2544
34.5582
34.5062
34.4323
34.3555
34.314
34.514
34.4627
34.42
34.7165
34.6606
34.6149
34.4748
34.8992
34.5821
34.4621
34.1656
34.2063
34.5509
34.5702
34.5488
34.4689
34.3693
34.1039
34.2683
34.5788
34.5206
34.4266
34.3455
34.2972
34.5335
34.4712
34.4087
34.9693
34.7078
34.6874
34.7328
35.4195
34.5951
34.46
34.1309
34.1676
34.9476
34.5918
34.5718
34.4798
34.3806
34.0127
34.2944
34.5976
34.5363
34.4259
34.3295
34.2861
34.5537
34.4743
34.4035
35.3097
34.6988
34.6989
34.8457
35.7817
34.577
34.4069
34.0503
33.6415
35.7376
34.6083
34.5842
34.4803
34.355
33.8239
34.2339
34.619
34.5511
34.4236
34.3275
34.2527
34.5738
34.4794
34.3821
35.7488
34.593
34.5954
34.8452
34.9064
34.5235
34.2439
33.7784
31.8143
33.971
34.6335
34.5961
34.4569
34.1885
33.2579
33.0034
34.6546
34.5821
34.377
34.1794
34.0025
34.6106
34.4706
34.3195
35.565
34.325
34.1007
34.554
33.6256
34.4648
34.0311
33.0337
29.4416
29.9751
34.6936
34.6412
34.4536
33.9669
32.2338
29.0782
34.731
34.6392
34.3676
33.8758
32.7607
34.662
34.479
34.2278
33.8699
34
33.0644
32.2265
31.5695
34.4808
33.9507
32.5495
28.104
22.6863
34.8256
34.7664
34.5867
33.791
31.4583
23.6942
-15.3718
34.8843
34.8172
34.452
33.4553
29.9313
34.7904
34.5725
34.2392
32.2084
33.9242
31.698
30.1991
30.5713
34.6798
34.2255
32.9081
28.9934
18.8163
3.52267
35.0522
35.0022
34.8944
34.0973
31.9066
21.8053
-0.256419
35.1313
35.1183
34.7809
33.6125
27.5167
35.0428
34.8266
34.5029
33.0795
34.3777
32.3269
31.3988
32.3298
35.0732
34.8427
34.0492
31.9555
24.2716
6.09713
35.3703
35.3374
35.3541
34.8094
33.3492
25.4577
6.89506
35.4466
35.5544
35.2338
34.4675
29.1842
10.1282
35.4093
35.237
35.0589
35.1156
35.4184
34.6886
34.4592
34.8126
35.6059
35.6741
35.3002
34.1177
26.9656
4.66462
35.7322
35.728
35.8926
35.4957
34.5333
27.9522
5.79863
35.7868
35.9147
35.7417
35.0184
31.4802
35.8186
35.7272
35.6451
36.4852
36.3988
36.3982
36.1672
35.9812
36.1494
36.3609
36.2941
35.2628
30.0346
36.0833
36.1178
36.3341
36.0309
35.3027
29.8923
-18.0768
36.0999
36.2013
36.1254
35.4894
34.5393
36.2564
36.241
36.0704
37.0009
36.7569
36.8206
36.7622
36.3443
36.5133
36.7321
36.7831
35.9863
34.4522
36.3618
36.3831
36.5431
36.3923
35.9731
34.1608
36.3389
36.3788
36.2638
36.059
35.9268
36.6
36.573
36.4704
37.1465
36.8792
36.9508
36.8965
36.4889
36.7378
36.8237
36.653
36.3062
35.971
36.575
36.5637
36.5527
36.5983
36.515
36.023
36.5182
36.5359
36.7905
36.6817
36.696
36.9082
36.6613
36.9553
37.0379
36.9541
36.9812
36.8285
36.708
36.852
36.7491
36.586
36.537
36.5061
36.7397
36.7274
36.7165
36.6752
36.6841
36.5972
36.6322
36.5828
36.8019
36.9256
36.8922
36.7423
36.7829
37.1558
36.9843
36.973
36.9402
36.8265
36.839
36.8574
36.6665
36.57
36.6738
36.7503
36.8396
36.796
36.6244
36.6339
36.7606
36.7795
36.7181
36.5492
36.7259
36.8464
36.9155
36.1885
36.6012
36.898
36.9822
37.0321
36.9305
36.8616
36.9312
36.9147
36.7013
36.6464
36.8171
36.9343
36.9456
36.861
36.6947
36.6226
36.8121
36.9086
36.8542
36.584
36.6732
36.8212
36.9443
36.1928
36.5532
36.8112
37.0119
37.2197
37.0285
36.911
37.0229
37.0767
36.7749
36.7549
36.9817
37.1446
37.1131
36.9432
36.7497
36.75
36.9845
37.1129
37.0601
36.7052
36.6732
36.8993
37.1232
36.6313
36.6657
36.9344
37.0594
37.5005
37.235
36.9451
37.1193
37.3259
36.8625
36.8042
37.0139
37.3859
37.3903
37.1322
36.8376
36.8298
37.0331
37.4339
37.3072
36.8483
36.7283
37.067
37.4617
36.9453
36.8014
37.1747
37.4158
37.7364
37.45
37.1419
37.2311
37.5672
37.0494
36.9286
37.1578
37.5689
37.6514
37.2746
36.9476
36.9498
37.218
37.6263
37.4706
37.0118
36.9331
37.2741
37.7242
37.1104
36.9844
37.4071
115.044
99.5386
102.587
102.31
101.186
108.742
158.423
211.488
155.377
193.682
166.706
194.676
193.267
117.181
113.864
182.466
162.47
152.582
198.152
173.258
203.631
237.947
244.936
233.335
252.529
254.486
150.215
151.443
158.533
189.657
185.631
187.748
172.131
205.653
227.485
179.418
223.568
202.211
222.683
242.991
235.852
242.322
255.099
242.963
250.456
258.964
257.965
256.048
165.826
170.527
171.416
178.247
171.403
174.398
175.71
179.39
188.919
178.173
187.308
236.342
249.706
205.181
242.49
246.023
250.628
247.584
251.4
259.499
257.421
256.335
174.784
183.174
183.198
188.284
190.777
184.888
190.087
191.043
195.901
210.065
233.828
209.819
227.979
239.964
256.152
254.456
268.423
261.006
193.694
197.232
203.652
206.163
226.261
229.862
224.043
250.049
94.9855
97.497
95.4394
96.5265
96.4911
95.9583
97.3733
96.3984
92.2346
99.5186
93.8294
93.3405
87.9131
153.94
97.2966
123.608
124.429
99.2601
124.454
140.238
110.724
97.1169
118.075
109.056
229.691
219.565
243.366
122.733
166.726
152.995
190.373
244.736
202.486
125.681
125.366
129.918
130.013
133.409
133.329
252.788
250.904
213.326
220.888
220.401
134.479
146.87
133.78
133.017
133.055
251.527
252.399
230.202
228.88
231.596
167.705
146.483
180.306
184.124
187.938
163.437
174.754
180.057
185.268
244.499
230.443
242.577
221.438
225.401
214.054
219.303
228.58
190.65
188.822
197.262
200.394
189.496
191.293
193.807
222.905
211.376
199.956
208.12
199.886
209.919
93.9401
88.8647
94.9889
94.3126
94.3591
92.5001
89.9425
91.1309
92.4103
87.8248
90.9383
89.9902
86.1072
89.0725
84.7116
127.567
116.696
93.3541
118.669
104.091
99.7884
88.1028
110.097
99.1038
101.403
92.0721
112.755
82.6649
86.3688
81.7353
89.3643
123.66
94.4019
132.296
134.616
134.471
128.663
134.944
134.903
168.162
169.019
95.5855
128.045
135.543
134.298
133.71
134.097
133.594
133.475
183.306
199.566
154.235
149.815
166.111
128.531
127.383
156.153
156.949
171.765
122.642
131.466
133.97
147.306
200.436
199.682
198.15
193.05
173.859
179.77
175.139
167.807
174.421
148.557
182.839
182.205
153.921
163.633
164.17
193.829
187.181
176.864
180.884
173.343
178.646
84.9487
82.3014
89.5842
86.4058
87.8877
86.8354
83.7553
85.1229
87.5978
84.5313
85.9985
85.4473
82.1032
81.9182
79.6004
102.842
84.001
83.4533
100.165
91.8512
82.7224
80.1174
88.0541
86.1318
83.5598
80.3501
84.2568
81.0791
81.6804
78.9936
80.3198
87.2856
80.8969
112.772
133.636
129.719
78.3021
104.068
92.1351
96.3465
107.353
79.4953
82.2077
87.7219
133.045
125.929
123.598
120.618
96.4574
121.342
134.666
97.3285
97.1943
107.581
111.796
70.6188
107.747
108.312
115.41
71.7899
81.386
75.3312
82.5154
143.266
153.629
147.566
117.983
114.603
123.929
119.479
111.578
119.505
89.855
136.585
138.865
96.7417
105.627
108.574
158.181
151.012
122.566
126.135
120.451
126.446
81.0426
81.2438
84.5393
82.0901
83.1742
83.6304
81.7147
82.4348
82.5907
78.7107
80.6724
79.6424
74.3498
77.3982
72.4752
55.7279
37.9409
77.6094
73.2258
79.6962
63.1053
75.9921
47.1178
68.7873
78.4108
77.0662
74.6113
77.2295
68.4442
75.794
64.2602
75.1333
65.8929
42.8038
40.2109
42.2622
35.0928
35.3871
35.0389
75.0351
75.896
66.0423
64.6617
62.2253
64.7991
56.7547
35.413
36.7093
39.3045
78.2978
84.6901
60.4281
61.4283
64.3587
49.7108
39.4046
46.2277
44.7011
48.2593
37.5552
35.597
36.6744
37.1104
88.9393
91.4869
91.712
58.0568
65.2472
63.8282
66.6887
68.2514
58.685
39.4753
72.9768
77.5804
46.3317
47.7505
53.5455
92.3876
87.4068
60.3139
64.4693
61.6171
66.409
81.5906
74.7681
85.5748
82.9146
83.3342
89.3015
86.2387
85.8178
76.8759
70.3902
77.4588
74.9159
58.6636
60.7427
44.393
35.5905
35.9952
70.5902
35.2512
50.2926
35.2145
46.1539
34.6912
37.2328
49.9466
66.493
45.6921
39.4361
37.7736
39.6494
36.2955
48.3307
36.4133
36.1002
36.7607
36.3333
35.7955
36.1326
36.0994
45.8487
42.2275
34.5957
35.5635
34.4886
34.5555
35.6056
35.5086
35.2553
35.4304
42.6271
45.4907
34.4882
34.484
34.4903
35.6939
35.3715
35.6225
35.705
35.7138
35.2259
35.6054
35.3502
35.3904
45.2088
42.6522
46.4341
33.784
34.9235
34.6548
35.4642
35.5861
35.9331
35.4347
37.5465
40.5152
35.7271
35.7074
36.295
43.4108
43.968
35.6239
35.671
36.9358
35.9683
40.5983
32.4318
83.4265
79.5549
86.3592
37.9214
38.62
48.183
59.4142
37.4188
33.0726
33.2126
30.3811
34.6047
33.8244
35.6161
34.8803
32.1135
35.3654
32.546
34.9294
32.4566
34.8715
33.1535
34.043
31.2734
34.2639
33.1103
33.6663
32.9807
33.9178
33.6857
33.3311
34.9274
35.4684
35.472
34.4437
34.9764
34.9297
34.2086
33.4956
34.42
33.3023
33.3199
33.873
33.6041
33.7914
33.6783
33.838
33.6989
33.855
33.7828
33.9293
35.0848
35.0558
34.832
34.8234
34.8316
34.3036
34.0461
34.1132
33.9471
33.8826
34.018
34.0197
33.893
33.8322
34.0198
33.7932
34.0265
33.9117
34.1575
35.0395
34.8524
34.9526
35.1284
35.1324
34.9069
34.7757
34.9845
34.9601
34.3253
34.4427
34.4492
34.1412
34.37
34.4309
34.4775
34.194
35.1472
34.964
35.5878
35.6473
34.9582
34.9852
34.9972
35.0589
35.1519
34.918
34.9649
34.9302
34.6203
33.2233
33.6246
29.6641
29.868
30.2564
33.4215
33.004
33.3973
31.0155
32.5913
33.16
32.8654
33.5475
33.9984
33.8255
34.2239
33.9867
33.1504
34.154
33.3679
33.5811
33.2552
33.8903
33.5275
33.6414
33.8067
33.6842
33.7223
33.7272
33.7581
33.7077
33.6624
33.6336
33.9312
34.1414
33.7882
33.8506
33.792
33.865
34.2049
34.6365
34.5489
34.1011
34.412
34.3294
33.7995
33.8559
33.9541
33.7723
33.9178
33.8052
33.919
33.8967
33.8254
34.0072
33.7547
33.8704
33.7416
33.9341
34.673
34.6984
34.5523
34.5743
34.5712
33.9706
33.9999
34.0346
33.9568
33.959
34.0199
34.0111
34.1033
33.9517
34.2489
33.7475
33.9847
33.8908
34.1031
34.7422
34.643
34.7202
34.8264
34.8346
34.6651
34.6571
34.6914
34.7289
34.2543
34.321
34.3527
34.2976
34.2719
34.3823
34.3643
34.0451
34.0946
34.0216
34.2132
33.8996
34.122
34.8228
34.7393
34.7998
34.8119
34.7988
34.7455
34.7592
34.7021
34.7429
34.6705
34.6346
34.6848
34.463
33.602
33.578
34.1813
33.6264
34.0007
33.7623
33.4188
33.6377
33.1285
33.4025
33.5118
33.3644
33.3804
33.6488
33.5821
33.969
33.9576
33.4711
33.9235
33.6881
33.8853
33.6757
33.9195
33.7129
33.8057
33.6321
33.7846
33.6717
33.8095
33.6081
33.7837
34.1465
34.1987
34.0147
34.1493
33.774
33.8155
33.8161
33.8378
34.0497
34.2632
34.2531
34.0216
34.2572
34.2031
34.0126
33.7939
34
33.7306
33.9783
33.8042
33.9509
33.8324
33.6973
33.8841
33.7745
33.8553
33.7247
33.8511
34.4793
34.4479
34.4195
34.34
34.3313
33.9869
33.9533
33.9127
33.8926
33.9345
33.8696
33.8665
33.9592
33.7717
34.0419
33.6785
33.899
33.7573
34.0088
34.5046
34.381
34.5758
34.5599
34.5899
34.3846
34.4913
34.4324
34.4549
34.1845
34.3185
34.2684
34.2463
34.1184
34.2891
34.216
33.9606
34.0072
33.9399
34.0692
33.7974
34.029
34.6381
34.5456
34.6454
34.6641
34.6461
34.5994
34.616
34.5479
34.5861
34.5165
34.4989
34.5221
34.3655
33.6351
33.6927
33.6324
33.3653
33.5574
33.6619
33.5079
33.6016
33.5618
33.4101
33.7159
33.5832
33.4047
33.5192
33.4029
33.9469
33.948
33.7472
33.9038
33.7359
33.8681
33.7662
33.8869
33.7458
33.7434
33.5935
33.7257
33.5654
33.6716
33.5417
33.6591
33.8458
33.6256
34.0009
34.1998
34.1196
33.9782
34.065
34.0107
34.344
33.7964
33.9796
33.7367
34.3471
33.8289
33.9284
33.9076
33.7387
33.9231
33.9758
33.9605
33.8603
34.0098
34.1927
34.2343
34.0876
34.0692
34.144
33.9266
33.8592
33.8717
33.8499
33.9808
33.76
33.8906
33.9544
33.7462
34.0495
33.8381
33.9844
33.79
34.009
34.2619
34.1667
34.3802
34.3096
34.3442
34.1369
34.2672
34.195
34.2493
34.0586
34.2408
34.1422
34.0825
33.9794
34.168
34.0657
33.895
34.4412
34.3325
34.523
34.5334
34.4622
34.434
34.446
34.396
34.4142
34.3361
34.3565
34.3462
34.2097
33.7157
33.6795
33.6419
33.5882
33.5979
33.6176
33.5989
33.5824
33.5221
33.4395
33.5267
33.4943
33.5251
33.3515
33.4491
33.9299
33.8863
33.7742
33.8499
33.733
33.8015
33.7271
33.8021
33.6901
33.623
33.4866
33.6141
33.4909
33.6288
33.4596
33.6053
33.5489
33.6301
33.9586
33.9482
33.9234
33.9147
33.8717
33.8651
33.833
34.077
33.5936
33.6618
33.4427
33.9812
34.0662
33.9382
33.9378
34.0117
34.1384
33.735
33.7896
33.7742
33.7349
34.0815
34.0129
34.1642
34.0893
34.1601
33.9507
34.0579
33.999
34.0606
33.8938
34.0821
33.9809
33.9076
33.8066
33.997
33.9185
33.832
34.2201
34.118
34.3162
34.3365
34.2334
34.2411
34.2599
34.2471
34.2421
34.1678
34.1619
34.1788
34.0585
33.703
33.8463
33.6181
33.6522
33.5992
33.6213
33.7588
33.6336
33.4939
33.5955
33.5134
33.4553
33.5922
33.6512
33.7411
33.8361
33.806
33.6873
33.7636
33.6263
33.7584
33.7049
33.743
33.5779
33.6434
33.4404
33.6161
33.5845
33.6462
33.3984
33.6478
33.6696
33.676
33.8652
33.8401
33.8407
33.8501
33.8447
33.8573
33.6052
33.5969
33.6291
33.5923
33.6384
33.9232
33.963
33.9265
33.9267
33.9289
33.8627
33.7435
33.7484
33.8781
33.7786
33.9513
33.8974
33.9641
33.9187
33.9949
33.8128
33.8881
33.8858
33.9501
33.7425
33.9118
33.8554
33.7525
33.7062
33.8696
33.8234
33.8034
34.0545
34.0402
34.1793
34.1903
34.1531
34.1415
34.1469
34.0863
34.1129
34.0635
34.0123
34.0708
33.9413
33.8936
33.8247
33.6102
33.7918
33.6317
33.5905
33.7409
33.6031
33.3896
33.5037
33.4244
33.3527
33.4254
33.6651
33.5615
33.8047
33.8292
33.724
33.7466
33.5662
33.7655
33.713
33.7669
33.5811
33.6189
33.3951
33.6296
33.5107
33.5706
33.4418
33.5394
33.6503
33.5788
33.8617
33.8801
33.8835
33.8952
33.9274
33.9223
33.5476
33.6132
33.578
33.5328
33.5793
33.9505
33.9238
33.9848
33.9917
33.9375
33.9094
33.8374
33.845
33.9595
33.8853
33.8743
33.8761
33.8163
33.8788
33.9304
33.7843
33.7584
33.8893
33.9311
33.693
33.8359
33.8235
33.6956
33.7197
33.8374
33.8374
33.8504
34.0321
34.0179
34.0991
34.1028
34.1049
34.0569
34.0639
33.9573
34.0346
33.9868
33.9192
34.0095
33.8912
33.7801
33.8056
33.5939
33.696
33.5931
33.6396
33.6936
33.6326
33.3668
33.4097
33.5135
33.4481
33.4482
33.5088
33.5054
33.8713
33.9262
33.7235
33.8086
33.6382
33.8397
33.7719
33.8699
33.7438
33.5027
33.4929
33.4267
33.4792
33.4713
33.5598
33.4443
33.5
33.4896
33.9394
33.9796
33.9738
33.9821
34.0193
34.0103
33.5461
33.6003
33.57
33.6097
33.6546
34.0283
33.966
34.0392
34.0451
33.9949
34.0163
33.9476
33.9717
34.0494
34.0032
33.9011
33.9286
33.7347
33.9022
33.9278
33.8249
33.7479
33.9258
33.9459
33.7652
33.8613
33.8746
33.7587
33.8269
33.8976
33.9208
33.9639
33.9999
34.0094
34.0165
34.0347
34.0674
33.9974
34.0187
33.9065
34.0017
33.9559
33.8889
33.9966
33.9186
33.8697
33.9266
33.7186
33.736
33.7084
33.8021
33.7977
33.7939
33.5789
33.5163
33.78
33.7193
33.5799
33.5179
33.5283
33.9853
34.048
33.8418
33.9318
33.8803
33.9539
33.9174
33.9893
34.0257
33.5385
33.6358
33.6103
33.6047
33.6904
33.7113
33.7832
33.6045
33.7626
34.021
34.0513
34.0364
34.058
34.083
34.0687
33.7104
33.7466
33.8713
33.8362
33.8827
34.0502
34.0206
34.0601
34.0545
34.0458
34.0758
34.0634
34.0486
34.048
34.1142
33.961
34.0019
33.7897
33.9668
33.9782
33.9144
33.8454
34.0051
34.0145
33.9029
33.937
33.9754
33.8923
33.9746
33.9776
34.0288
34.0707
34.033
34.0461
33.9882
34.0168
34.0555
33.9869
34.0158
33.9172
34.0144
33.9773
33.9432
34.0208
33.9886
33.9598
33.9688
33.86
33.8558
33.8522
33.8952
33.8924
33.8842
33.8341
33.6799
34.029
33.9148
33.7944
33.6165
33.7584
34.0932
34.1027
33.9898
34.0323
34.1866
34.0171
34.026
34.0585
34.2547
33.8488
33.8101
33.897
33.8474
33.9654
33.8972
33.9612
33.9074
34.0251
34.0898
34.1157
34.1011
34.1104
34.1404
34.1234
33.9581
34.0163
34.1123
34.0552
34.1222
34.0695
34.0733
34.1001
34.0897
34.1022
34.0484
34.1401
34.0664
34.0728
34.154
34.0406
34.0761
33.9013
34.0341
34.046
34.0018
33.9581
34.0689
34.0832
34.0318
34.027
34.073
34.0081
34.0835
34.071
34.1086
34.1416
34.0759
34.0954
34.0006
34.0356
34.0685
34.0161
34.0504
33.984
34.0567
34.022
34.0192
34.0717
34.0817
33.9702
33.9659
33.8964
33.9027
33.8893
33.8616
33.8914
33.8514
33.9422
33.8803
34.0321
33.9135
33.9253
33.8565
33.9091
34.0829
34.0455
34.0209
34.0489
34.2076
33.988
33.9945
34.0045
34.1313
34.0257
33.9645
34.0004
33.9591
34.0442
34.0178
34.0286
34.0997
34.1389
34.1125
34.1448
34.1275
34.0841
34.1307
34.1089
34.131
34.1967
34.2295
34.1698
34.2399
34.1018
34.1243
34.1183
34.1089
34.1287
34.1066
34.1759
34.1207
34.1438
34.2068
34.1053
34.1245
34.0185
34.0994
34.1067
34.0705
34.0697
34.1237
34.13
34.1138
34.1037
34.1421
34.067
34.1497
34.1289
34.1676
34.183
34.118
34.1378
34.0375
34.0759
34.1112
34.0585
34.0982
34.0435
34.0964
34.0636
34.0667
34.1104
34.1252
33.9383
33.9097
33.8072
33.8672
33.7971
33.755
33.845
33.7435
33.8593
33.9412
33.8903
33.8067
33.9357
33.93
33.922
34.0078
33.9835
33.963
33.9513
34.0508
33.931
33.9334
33.9211
33.9916
34.0383
34.0455
34.0541
33.9242
34.0226
34.038
34.0829
34.1601
34.1772
34.0434
34.1053
34.0805
34.0242
34.0803
34.0607
34.1915
34.2605
34.2937
34.2397
34.2955
34.1117
34.1378
34.1208
34.1117
34.1482
34.1861
34.2418
34.2334
34.2489
34.2816
34.1403
34.1528
34.1089
34.147
34.1527
34.1188
34.1368
34.1653
34.1698
34.1786
34.157
34.1797
34.1224
34.1953
34.1739
34.1998
34.2348
34.1619
34.1815
34.0851
34.1225
34.159
34.1083
34.1392
34.1005
34.1382
34.1192
34.1317
34.1536
34.1814
33.8984
33.9162
33.723
33.8424
33.6998
33.7384
33.8707
33.7067
33.7718
33.9272
33.8432
33.7755
33.9397
33.896
33.8847
33.9851
34.0117
33.9224
33.9296
33.9596
33.9689
33.9328
33.9696
33.9546
33.9995
34.0221
34.0871
33.8159
33.961
34.0017
34.0627
34.1866
34.1791
34.023
34.0723
34.0563
34.0339
34.0816
34.0698
34.2937
34.3083
34.3456
34.3211
34.3292
34.1127
34.1544
34.1234
34.1212
34.1632
34.3169
34.3073
34.3775
34.3694
34.3348
34.1617
34.168
34.1571
34.1814
34.1865
34.1483
34.1716
34.1958
34.2017
34.2213
34.2021
34.2274
34.1893
34.2541
34.2263
34.2563
34.2962
34.2003
34.2154
34.131
34.1686
34.2013
34.1497
34.1827
34.1583
34.1734
34.1548
34.1759
34.1879
34.2316
33.9619
34.0311
33.8124
33.9295
33.7767
33.9409
34.0168
33.8967
33.8299
33.9852
34.0104
33.9316
34.0514
33.9132
33.9723
34.0527
34.098
33.9639
34.0246
33.976
34.0507
34.016
34.0749
34.0194
33.9366
34.0144
34.039
33.8054
33.9364
34.0185
34.0279
34.16
34.1332
34.0564
34.0997
34.0952
34.0979
34.1256
34.1269
34.3339
34.3548
34.3043
34.3373
34.3528
34.1394
34.1765
34.1641
34.1631
34.193
34.3905
34.3409
34.3688
34.3788
34.3328
34.1759
34.1879
34.1826
34.2095
34.2171
34.1715
34.1895
34.2228
34.2304
34.2774
34.2467
34.2739
34.2402
34.2858
34.2678
34.2893
34.3058
34.2313
34.2454
34.1703
34.1952
34.2403
34.1909
34.217
34.1927
34.2013
34.1844
34.21
34.2117
34.2667
34.1191
34.2098
34.113
34.1305
34.0579
34.2817
34.2528
34.2379
34.0933
34.1347
34.3329
34.2689
34.2536
34.0453
34.1579
34.1443
34.1926
34.0845
34.1279
34.0793
34.1689
34.158
34.1854
34.1492
33.9425
34.015
34.0311
33.9725
33.9645
34.0276
34.0433
34.1162
34.1139
34.1427
34.1591
34.1631
34.1796
34.1927
34.1978
34.3084
34.3275
34.2369
34.2871
34.3014
34.191
34.2113
34.2176
34.2198
34.2307
34.35
34.3229
34.3112
34.3203
34.3093
34.2007
34.216
34.1984
34.2357
34.2434
34.1976
34.2104
34.2498
34.2564
34.2939
34.2806
34.2879
34.2703
34.2976
34.2878
34.2874
34.3053
34.2603
34.2744
34.2151
34.2358
34.2794
34.2346
34.2553
34.2233
34.2304
34.2241
34.2328
34.2477
34.2752
34.2874
34.3411
34.4112
34.3547