/*--------------------------------*- C++ -*----------------------------------*\
| =========                 |                                                 |
| \\      /  F ield         | OpenFOAM: The Open Source CFD Toolbox           |
|  \\    /   O peration     | Version:  5.x                                   |
|   \\  /    A nd           | Web:      www.OpenFOAM.org                      |
|    \\/     M anipulation  |                                                 |
\*---------------------------------------------------------------------------*/
FoamFile
{
    version     2.0;
    format      ascii;
    class       surfaceScalarField;
    location    "1";
    object      phi;
}
// * * * * * * * * * * * * * * * * * * * * * * * * * * * * * * * * * * * * * //

dimensions      [0 3 -1 0 0 0 0];

internalField   nonuniform List<scalar> 
29271
(
-1.38027e-05
-4.04805e-06
1.36925e-06
1.64815e-05
-1.01325e-05
5.89997e-06
-9.66265e-07
5.30848e-06
-4.7223e-05
1.23659e-05
-1.56107e-05
5.58133e-06
-1.85198e-05
6.34063e-05
-4.62248e-05
9.02205e-06
1.25684e-05
-1.68831e-05
-1.22275e-05
5.37449e-05
-2.79977e-05
5.4668e-06
-5.63677e-06
-1.9486e-06
1.69207e-05
1.31955e-05
-3.63607e-05
5.20341e-07
2.03185e-06
-3.37672e-06
-1.4262e-06
3.86114e-05
-2.57227e-05
9.70791e-06
-1.65368e-06
1.69947e-06
1.22086e-06
1.47481e-05
-4.81787e-05
1.36455e-05
8.42067e-06
-2.10174e-05
-8.66066e-06
5.57906e-05
-2.8342e-05
1.45533e-06
1.5831e-05
-1.01675e-05
-1.14814e-06
2.23713e-05
-2.03551e-05
1.30889e-06
-3.22984e-07
1.44991e-05
5.02456e-06
-1.03304e-05
4.38732e-06
-3.49703e-06
9.4238e-06
-3.79286e-05
8.14066e-06
7.17886e-06
-8.29692e-06
-1.50758e-05
4.59818e-05
-3.98533e-05
8.07592e-06
9.98155e-06
-1.8103e-05
-2.86666e-05
6.85654e-05
-3.05079e-05
-7.60029e-07
2.75213e-05
-1.86909e-05
4.45082e-07
2.19924e-05
-4.54703e-05
-1.164e-06
2.08598e-05
-2.36717e-05
3.20493e-06
4.62413e-05
-2.71994e-05
-9.99344e-07
-1.02869e-06
1.94088e-06
1.42885e-05
1.2998e-05
-3.22311e-05
1.82456e-05
-1.25881e-05
-2.08858e-05
2.04634e-05
2.6996e-05
-4.7482e-05
2.10472e-05
4.30843e-05
-3.43075e-05
-4.08936e-05
5.85517e-05
-3.5372e-05
1.47704e-05
4.22715e-05
-4.5681e-05
-1.8482e-05
4.24931e-05
-5.48099e-05
-1.712e-05
1.18301e-06
3.32963e-05
-1.21564e-06
3.86663e-05
-5.48582e-06
-7.9256e-07
3.40151e-06
2.96749e-06
-2.8667e-05
8.5441e-06
-1.63671e-05
1.07616e-05
2.57593e-05
-2.76724e-05
1.20623e-05
-8.04296e-06
-1.70872e-07
9.75643e-06
1.40674e-05
-3.77938e-06
-6.4104e-07
3.0513e-06
1.49089e-06
-1.97491e-05
-8.22204e-06
6.31724e-06
2.16556e-05
-5.0894e-06
1.47005e-05
-1.2826e-05
3.21705e-06
1.68331e-05
-1.63387e-05
-7.40909e-05
1.08385e-05
-1.8427e-05
8.11848e-05
-2.72417e-06
-7.192e-05
-2.34704e-06
-2.80078e-06
-8.81105e-06
8.8603e-05
-8.22225e-06
-1.45372e-06
-8.84405e-07
5.1005e-07
6.93762e-06
3.1127e-06
1.90393e-05
-2.86702e-05
-4.60408e-05
3.47383e-05
-2.62028e-05
4.71363e-05
9.49928e-06
-0.00014398
0.000249551
-1.88529e-05
-2.24038e-05
-7.22666e-05
-2.42951e-05
1.77276e-05
2.46777e-05
1.55431e-05
2.85754e-05
-2.36167e-05
-4.86639e-06
-2.49258e-05
-1.03664e-05
-2.40519e-05
-7.33632e-05
0.000201734
-4.72844e-05
-2.94491e-05
-2.52521e-05
-3.97442e-05
1.68176e-05
5.08206e-06
1.85183e-05
6.49225e-06
-2.98365e-06
-2.5239e-05
0.000110026
1.12559e-06
1.39717e-06
5.00211e-06
2.38404e-06
-4.47687e-06
-2.57355e-06
-3.81579e-06
-1.93568e-05
-1.63979e-05
-3.78907e-05
-3.12523e-05
-1.28706e-05
1.5386e-06
-4.57461e-06
1.30403e-05
-1.3236e-05
9.09454e-06
-1.31376e-05
1.7279e-05
9.94933e-06
-5.92406e-05
2.2614e-05
-1.333e-05
-3.05949e-05
7.06021e-05
-3.24592e-05
-8.55769e-05
0.00019328
-8.69733e-05
-7.22129e-05
-8.15699e-05
-7.56109e-05
2.03433e-05
2.35216e-05
3.28167e-05
2.04617e-05
-2.41527e-05
-3.49317e-05
9.00999e-05
-1.78452e-05
-2.49001e-05
-5.45101e-05
-3.95825e-05
1.36737e-07
-1.67759e-06
6.26003e-05
8.846e-08
9.01102e-07
9.80052e-07
-4.1237e-07
-5.54632e-08
-2.54256e-07
-3.93183e-05
-2.91054e-05
-2.92197e-05
-1.40552e-05
-1.14082e-05
2.4203e-06
1.64191e-06
-1.70893e-06
9.19169e-06
-8.84035e-06
5.05355e-07
-3.38911e-06
-1.88193e-06
2.08023e-06
1.15258e-05
-1.64389e-05
-7.77081e-07
8.66621e-05
4.84304e-06
1.9856e-06
4.15202e-06
1.98779e-06
-1.24988e-06
-2.69964e-07
-5.68304e-07
-4.63793e-05
-4.63369e-05
-3.27102e-05
-4.04769e-05
-6.07651e-06
-1.05758e-06
5.69737e-05
-1.61108e-06
-1.23167e-06
-9.73915e-07
-9.57878e-07
-4.10035e-07
-5.06758e-07
-3.01952e-05
-2.69602e-05
-1.93119e-05
-1.90515e-05
-2.19603e-05
-4.23651e-07
2.21989e-06
1.241e-05
-2.45029e-06
2.42213e-07
-2.10735e-07
2.42359e-06
-4.16263e-06
-3.40225e-07
1.37827e-07
3.64768e-06
-7.25358e-06
1.15118e-06
-3.93514e-06
4.6664e-07
8.51332e-06
-1.62196e-06
-1.70145e-06
1.54213e-06
1.63361e-06
-2.09963e-05
-6.34978e-06
9.66943e-06
1.76869e-05
-4.06313e-06
7.30386e-06
-6.54802e-06
3.27906e-06
1.05268e-05
-1.03741e-05
-8.75485e-05
7.80829e-06
-1.36268e-05
9.32144e-05
-5.89267e-06
-0.000100369
-8.92878e-06
1.67994e-05
-1.05899e-05
0.000108981
-1.68193e-05
-4.52304e-06
-4.28555e-07
6.6831e-06
2.54518e-05
-1.0364e-05
6.19006e-06
-8.09668e-06
-4.47573e-05
2.23163e-05
-9.82617e-06
3.41737e-05
4.41218e-05
-5.60942e-05
0.000289115
1.4298e-05
2.62321e-05
1.20068e-05
2.63682e-05
-3.25501e-05
-2.07902e-05
-3.06144e-05
-2.25418e-05
1.85209e-06
-4.10017e-05
0.000242702
1.47286e-05
2.36839e-06
1.71808e-05
8.02552e-06
-1.37002e-06
-3.0099e-05
0.000131738
2.91629e-06
3.05141e-06
4.61463e-06
2.42536e-06
-1.37105e-06
9.86049e-07
-1.01388e-06
-1.67388e-05
1.26425e-06
-1.05133e-05
2.45519e-05
-1.55414e-05
2.43158e-06
3.86792e-06
9.25656e-06
-2.07478e-05
-7.47345e-05
1.36625e-05
1.89978e-05
-1.90811e-06
6.47301e-05
3.74839e-06
-4.51866e-06
0.000143801
1.52726e-06
-4.14128e-06
-1.67063e-06
-1.56009e-06
6.70026e-07
-1.1292e-05
6.34686e-05
6.79296e-07
-8.07442e-07
3.27918e-05
5.84656e-07
9.39466e-07
7.38834e-07
-6.50881e-07
-4.73665e-07
-6.30746e-07
-7.10488e-06
3.41646e-06
1.45566e-06
-2.29412e-06
5.20616e-06
-2.95143e-06
-9.18157e-07
4.36421e-07
-3.40424e-08
7.36597e-06
-3.89877e-06
-1.52297e-06
2.92514e-07
8.06729e-05
1.71559e-07
3.18648e-07
7.72193e-07
5.79356e-07
2.08014e-07
3.11688e-07
3.3955e-07
5.18892e-07
2.36325e-07
4.06602e-05
2.9522e-07
8.32553e-07
4.67917e-07
2.93752e-07
3.97232e-07
4.56539e-07
-7.84488e-06
1.08294e-06
3.88997e-07
6.0844e-06
-2.82818e-06
6.13788e-07
-1.01411e-06
3.11423e-06
-3.39503e-06
9.02037e-08
-1.91227e-07
3.7368e-06
-7.9422e-06
7.20492e-07
-5.77028e-07
8.91898e-07
7.14316e-06
-1.96219e-06
-3.64439e-07
1.99617e-07
2.03363e-06
-1.45629e-05
-3.73128e-06
6.8292e-06
1.14845e-05
-2.81727e-06
-1.21965e-06
1.10658e-06
2.99357e-06
1.15943e-06
-3.9944e-06
-9.76143e-05
5.21302e-06
6.52857e-07
9.45833e-05
-7.02672e-06
-0.000114981
-8.69273e-06
1.72029e-05
-3.05046e-06
0.000116548
-3.07158e-05
-9.50838e-07
6.69621e-06
1.15444e-05
2.66062e-05
-1.31801e-05
-1.96461e-06
8.77708e-06
-2.70315e-05
-6.06586e-06
-2.21422e-07
2.65063e-05
3.18212e-05
3.38652e-05
0.000233408
-1.32563e-06
1.27405e-05
-4.38241e-06
1.04168e-05
-1.11434e-05
-1.33493e-05
-1.96448e-06
-9.72015e-07
2.40931e-05
3.63755e-05
0.000222507
2.6158e-06
-5.484e-06
6.8789e-07
-6.27186e-06
4.34364e-07
6.2369e-06
0.000171581
-1.21602e-05
-2.99184e-06
-1.13429e-05
-1.84174e-06
1.14098e-06
2.5965e-06
2.17857e-06
-2.95113e-05
2.88936e-07
-1.71828e-06
3.12188e-05
-6.67771e-06
7.05106e-07
-2.97275e-06
8.86558e-06
2.60812e-06
-4.63393e-05
5.28859e-07
5.87769e-06
4.49991e-06
3.28247e-05
8.10049e-06
1.13768e-05
0.000194183
-1.81423e-05
-9.57305e-06
-5.37555e-06
-2.9036e-06
-1.08665e-06
7.36768e-07
0.000108294
1.6438e-07
-8.05803e-07
4.0763e-05
-2.58873e-07
2.35153e-07
-2.12103e-07
-7.74663e-07
-5.62807e-07
-6.06228e-07
-3.95549e-06
1.41091e-06
6.95593e-07
-1.34889e-06
3.36226e-06
-1.26639e-05
-7.18073e-07
3.93962e-07
1.43644e-06
1.71138e-05
-5.56224e-06
-4.55232e-06
-1.3269e-06
0.000100721
7.05294e-08
4.14859e-07
5.17878e-07
3.63854e-07
-1.43309e-06
-1.44638e-06
-1.28016e-06
-9.53934e-07
-8.85144e-07
4.3729e-05
-8.58814e-07
-8.79912e-07
-8.62646e-07
-8.43709e-07
-8.34299e-07
-7.65893e-07
-5.82549e-06
-1.49065e-07
-2.9572e-07
4.51053e-06
-3.09022e-06
7.42652e-07
-1.21555e-07
2.41668e-06
-4.01034e-06
2.46258e-07
-5.14979e-07
2.95758e-06
-7.15392e-06
6.31708e-07
-3.38955e-07
5.9119e-08
5.9169e-06
-1.89877e-06
1.29908e-07
2.59527e-07
1.49325e-06
-8.30806e-06
-7.10997e-06
9.49779e-06
5.96183e-06
-4.73524e-06
-7.45701e-06
4.58065e-06
7.52801e-06
-1.87178e-05
2.25507e-06
-8.86256e-05
5.57346e-07
2.93829e-05
7.51481e-05
-7.14582e-06
-0.000112954
-8.37134e-06
1.86915e-05
1.01581e-05
9.96219e-05
-2.35016e-05
2.09286e-06
8.73426e-06
1.34238e-06
3.00944e-05
-1.87624e-05
-5.08847e-06
9.8832e-06
-2.52659e-05
-7.87162e-06
3.59497e-06
2.47478e-05
6.78285e-06
8.65799e-05
0.000193302
-2.56228e-05
-1.00276e-05
-2.7318e-05
-3.39122e-05
3.95759e-06
1.10678e-05
1.14418e-05
1.71571e-05
3.24165e-05
7.69521e-05
0.000215952
-1.80397e-05
-2.62471e-05
-3.50525e-05
-1.66921e-05
4.51521e-06
1.01424e-05
0.00019384
-7.2606e-06
-3.97211e-06
-3.34404e-06
-3.09889e-06
2.99011e-06
7.01527e-06
3.17014e-06
-3.28512e-05
-1.96996e-06
2.8323e-07
3.87899e-05
-1.40037e-05
-1.37763e-06
-4.53655e-07
1.584e-05
-3.45742e-07
-2.90255e-05
-7.32627e-07
6.0034e-07
2.70087e-07
2.92334e-05
1.30853e-05
3.55746e-05
0.000249328
-3.76771e-06
-3.81891e-06
-3.67277e-06
-5.96593e-06
-6.68981e-06
3.37551e-05
0.000171266
-2.07867e-07
-4.84354e-07
4.87296e-05
-3.83619e-07
-3.6583e-07
-2.79504e-07
-5.92207e-07
-1.37421e-06
-8.26413e-07
-3.62956e-06
3.12123e-07
6.6888e-07
-5.81853e-07
3.02255e-06
-1.92332e-05
-1.95777e-06
7.59098e-07
5.51931e-07
2.043e-05
-5.50114e-07
-3.34287e-06
-2.18939e-06
0.000153337
-1.15352e-06
-1.04183e-06
2.13323e-07
-8.52811e-07
-1.95282e-06
-2.55291e-06
-4.1682e-06
-8.28591e-07
-5.50618e-07
8.05958e-05
-7.25912e-07
-5.69391e-07
-8.01617e-07
-5.03845e-07
-1.40734e-06
-1.06713e-06
-3.80772e-06
-8.12171e-07
-6.80639e-07
3.98758e-06
-1.75677e-06
4.73195e-07
2.69239e-07
1.04238e-06
-1.5174e-06
8.99846e-07
-4.63881e-07
-9.73274e-07
-4.89416e-06
8.79034e-07
-4.84742e-07
-3.55401e-07
4.30465e-06
-1.12185e-06
4.13908e-07
2.35907e-07
5.57455e-07
-9.25827e-06
-5.65652e-06
-3.70015e-07
1.52038e-05
-1.34926e-05
-1.67415e-05
8.91098e-06
2.13176e-05
-8.21105e-06
2.02774e-05
-5.71864e-05
-6.37887e-06
7.83538e-06
4.36636e-05
2.46834e-06
-6.98696e-05
-4.72427e-06
1.26003e-05
8.18016e-06
5.13451e-05
-4.29461e-05
-1.20906e-05
7.76836e-06
5.49665e-06
5.33182e-05
-1.15466e-05
-4.09471e-06
7.55774e-07
-2.84115e-05
-2.41845e-06
1.01079e-06
3.31581e-05
9.64165e-06
7.17904e-05
0.000160764
-1.08816e-05
-3.65851e-05
-9.25474e-06
-1.22909e-05
6.77649e-06
9.57729e-06
-1.57535e-06
5.33997e-06
4.80565e-06
5.90765e-05
0.000206739
-2.23214e-05
-8.08866e-06
-9.15592e-06
-5.4615e-06
1.69817e-06
-1.00265e-05
0.000238552
-3.6735e-06
-3.76732e-06
-5.12204e-06
-6.51346e-06
-2.87775e-06
-2.55125e-06
-7.0728e-06
-4.51014e-05
-5.2201e-06
2.63234e-06
-2.8819e-06
5.22692e-05
6.48558e-08
-8.90989e-09
1.05042e-08
-7.06876e-08
-1.5929e-05
-2.4812e-06
2.44797e-06
1.59616e-05
-8.00061e-07
-2.89925e-05
-2.24559e-06
1.39598e-06
1.34191e-06
2.93002e-05
1.98031e-05
4.30856e-05
0.000270251
-5.50665e-06
-3.76981e-06
-1.71604e-06
-1.0286e-06
1.4591e-05
3.37563e-05
0.000201799
-3.12145e-08
-7.11818e-06
7.15427e-05
2.31597e-06
9.5253e-07
3.21102e-06
-4.82324e-06
-7.01359e-06
-5.74188e-06
-2.81353e-06
2.28025e-06
-1.51439e-06
-3.30391e-06
5.32037e-06
4.93782e-09
1.86226e-07
-2.51e-08
-3.13932e-08
-1.46567e-07
-2.0163e-05
4.57863e-07
-9.74234e-07
-2.50808e-08
1.92377e-05
1.46675e-06
9.74732e-06
-3.78128e-07
0.000179716
-1.8342e-08
1.32359e-06
2.62016e-06
3.39741e-06
-1.12179e-06
1.27235e-06
-1.35741e-07
3.26468e-06
-2.23206e-06
0.000114542
2.87482e-06
5.15882e-06
3.72046e-06
-1.55846e-06
-8.26823e-07
-8.43784e-07
-4.42026e-06
1.48907e-06
-6.09602e-06
5.1737e-06
-5.45273e-07
3.11137e-06
-1.55923e-06
-9.75465e-07
3.73864e-06
2.76449e-07
-6.59594e-07
-3.72145e-06
-3.6927e-06
-1.52611e-06
2.83063e-06
-1.57795e-06
1.73408e-06
3.00933e-07
3.30617e-06
-2.04573e-06
-1.54606e-06
-1.90134e-05
-1.94459e-06
5.91113e-07
2.03661e-05
-2.677e-05
-4.71889e-06
4.30808e-06
2.71808e-05
3.93386e-06
1.46578e-07
-3.67651e-05
2.63919e-06
-1.65098e-06
3.16964e-05
-2.82976e-06
-4.30571e-05
-3.34062e-06
2.65861e-06
4.78162e-06
4.17873e-05
-6.05499e-05
-9.60417e-06
7.27074e-06
4.77128e-06
6.31735e-05
-5.06148e-06
-4.1757e-06
-2.90977e-06
-3.55006e-05
7.56926e-06
-9.52182e-07
3.5969e-05
1.31378e-05
4.63178e-05
0.000146657
-6.16492e-06
-5.92761e-06
-8.23437e-06
-6.5433e-06
-8.87592e-06
1.71217e-06
-1.13301e-05
1.5425e-08
-9.01913e-06
3.63274e-05
0.000218748
-6.36125e-06
-6.14604e-06
-7.08754e-06
-6.58489e-06
-2.0898e-06
-4.51925e-06
0.000259561
-5.08502e-06
-3.81636e-06
-2.76096e-06
-3.29856e-06
-4.83632e-06
-1.43931e-06
-2.18243e-06
-6.08546e-05
5.372e-06
3.46657e-06
-6.44542e-07
5.05708e-05
6.11219e-07
1.42756e-06
2.23249e-07
-9.39497e-07
-2.42574e-06
1.10321e-06
-1.60564e-05
-1.8947e-06
2.5256e-06
1.54261e-05
-2.59463e-07
-3.0174e-05
-2.76422e-07
-9.40171e-07
-5.86764e-08
3.17088e-05
2.39749e-05
2.4084e-05
0.000269064
-2.10006e-06
-9.03134e-07
4.95809e-07
1.95315e-06
2.71724e-05
1.48268e-05
0.000220102
3.59306e-06
-5.20627e-06
9.2965e-05
5.3822e-06
5.38995e-06
3.6004e-06
-4.17591e-06
-3.49287e-06
-3.85973e-06
-7.26612e-06
4.97586e-06
2.75729e-06
-4.86717e-06
7.99319e-06
8.33518e-08
3.75438e-06
-1.95254e-06
-1.593e-06
-3.48895e-06
3.19676e-06
-1.95265e-05
1.62996e-06
-2.53997e-06
-1.46355e-06
1.96777e-05
2.2224e-06
1.19714e-05
1.57104e-06
0.000177722
1.40962e-06
2.41614e-06
2.61711e-06
2.32612e-06
3.53272e-07
2.02292e-06
1.39051e-06
5.92495e-06
-1.32727e-09
0.000116417
5.51144e-06
6.30323e-06
5.46597e-06
2.12939e-07
6.57789e-07
8.48062e-07
-6.28507e-06
3.79467e-06
-3.86894e-06
7.07801e-06
1.48819e-06
3.08064e-06
-1.93474e-06
-1.43517e-06
-1.20376e-06
2.07838e-06
2.15938e-06
-1.78275e-06
-2.45483e-06
2.40005e-06
-4.10777e-07
9.60448e-07
-1.37714e-06
-1.52875e-07
-9.38734e-07
1.96031e-06
-4.32707e-07
-4.3732e-07
1.99668e-06
2.8455e-06
-2.78067e-06
-2.06171e-06
-2.14217e-05
-2.50402e-06
5.05533e-06
1.88704e-05
-2.59165e-05
3.19544e-06
7.77782e-07
2.19433e-05
7.99649e-07
-1.34654e-06
-2.40704e-05
8.2906e-07
2.3607e-06
2.14275e-05
-4.79697e-09
-3.66485e-05
-2.51134e-06
6.02102e-06
2.63822e-06
3.05054e-05
-6.50765e-05
-7.1463e-06
6.86873e-06
5.24979e-06
6.63773e-05
-6.27305e-06
-3.67016e-08
-4.06576e-06
-3.58107e-05
9.28393e-06
-4.27901e-06
3.49082e-05
8.21911e-06
2.82602e-05
0.000150968
-4.10507e-06
-6.66932e-06
-3.26942e-06
-5.20016e-06
-9.86384e-06
-1.5607e-06
-8.7375e-06
-1.38486e-06
-9.3979e-06
2.27714e-05
0.000231816
-6.63786e-06
-5.0942e-06
-3.53427e-06
-2.95578e-06
-8.44242e-07
-1.68262e-07
0.000267341
-4.1723e-06
-3.54079e-06
-2.73916e-06
-3.25111e-06
-1.77097e-06
-3.6218e-07
-3.28889e-07
-5.13882e-05
-3.57864e-06
1.23904e-06
7.27357e-07
5.21562e-05
-5.29194e-06
-5.00693e-07
-2.53047e-07
4.93582e-08
-8.94392e-07
6.89072e-06
-1.33775e-05
1.81008e-08
2.95491e-06
1.04045e-05
-2.12653e-06
-3.45664e-05
2.10853e-06
-8.96297e-07
-2.62092e-06
3.81016e-05
2.26362e-05
1.09901e-05
0.000261724
-1.30732e-06
7.49976e-07
4.85781e-07
2.04579e-06
2.92184e-05
4.52315e-06
0.000231768
4.9553e-06
-3.43554e-06
0.00012006
1.82146e-06
5.21506e-06
2.33591e-06
-2.99848e-06
-2.97728e-06
-2.96149e-06
-1.15285e-05
4.84624e-06
5.93663e-07
-3.20594e-06
1.42498e-05
-4.95276e-06
2.71042e-06
3.28124e-06
-1.71526e-06
-2.40624e-06
3.08261e-06
-1.97703e-05
1.47695e-06
-3.36759e-06
-1.57056e-06
1.9752e-05
3.47954e-06
1.10717e-05
1.31245e-06
0.000163817
1.87997e-06
1.76239e-06
3.11191e-06
2.15911e-06
7.34825e-07
1.54407e-06
1.3181e-06
4.88218e-06
-2.6927e-08
0.000110236
4.6378e-06
5.30908e-06
5.02391e-06
4.52504e-07
4.7979e-07
1.01721e-06
-9.01147e-06
2.68493e-06
-2.17727e-06
9.95044e-06
1.43308e-07
1.06313e-06
-6.22279e-07
-5.75178e-07
-9.08349e-09
4.26991e-06
-7.74992e-07
1.49151e-06
-1.7217e-06
-3.26473e-06
1.05385e-06
1.05712e-06
1.0273e-06
-1.82532e-06
3.1874e-07
-1.32398e-06
2.11528e-06
-6.09251e-07
-5.27714e-07
1.5182e-06
1.86596e-06
-2.40116e-06
-9.82892e-07
-1.41386e-05
-1.34712e-06
6.21739e-06
9.26836e-06
-1.64513e-05
3.7273e-06
1.5169e-07
1.25723e-05
2.21022e-07
-3.86484e-06
-2.13831e-05
1.36131e-06
1.99297e-06
2.16726e-05
-3.05475e-06
-2.63522e-05
-2.4006e-06
5.76759e-06
2.41941e-06
2.36205e-05
-6.81287e-05
-5.47786e-06
5.00059e-06
4.74184e-06
6.98332e-05
-5.96905e-06
2.30514e-06
-4.99918e-06
-3.36627e-05
8.74774e-06
-4.0608e-06
3.16698e-05
6.9817e-06
2.12687e-05
0.000164663
-3.84182e-06
-6.09063e-06
-4.43675e-06
-5.1833e-06
-7.95908e-06
-3.53641e-06
-7.48101e-06
-3.4166e-06
-9.01743e-06
1.31902e-05
0.000244839
-3.21557e-06
-3.29568e-06
-1.62724e-06
-2.07537e-06
-4.61301e-07
1.96886e-06
0.000277441
-3.95251e-06
-2.40326e-06
-2.74476e-06
-4.52356e-06
-6.76317e-07
-4.25743e-06
-2.06764e-06
-6.62317e-05
2.83584e-06
4.15499e-06
-6.84775e-07
5.94644e-05
-9.49646e-06
-5.13614e-06
6.29846e-06
2.99513e-06
5.33901e-06
-7.7863e-06
1.7549e-07
1.54582e-06
6.06499e-06
-6.61985e-07
-4.23208e-05
2.16538e-06
-2.43907e-06
-3.51818e-06
4.67746e-05
1.98552e-05
6.77215e-07
0.000258851
-8.05751e-07
1.02573e-06
1.14558e-06
2.24377e-06
2.87496e-05
-2.17061e-06
0.000238234
6.38323e-06
-3.28456e-06
0.000142316
3.20929e-06
6.31781e-06
2.46313e-06
-1.82645e-06
-2.95281e-06
-1.84668e-06
-1.74541e-05
4.43483e-06
3.19098e-06
-2.79234e-06
1.90038e-05
1.17851e-07
-3.13291e-06
-1.55906e-06
2.89948e-06
2.80743e-06
-1.13279e-06
-2.02246e-05
4.34419e-07
-4.32649e-06
-5.68164e-07
2.13774e-05
3.30744e-06
1.14265e-05
7.92609e-07
0.000137715
3.28917e-06
2.61991e-06
4.31194e-06
2.74915e-06
5.86296e-07
4.66625e-07
5.36944e-07
4.17013e-06
-3.303e-07
0.000102588
3.74223e-06
4.67972e-06
3.06877e-06
4.40969e-07
1.24803e-07
1.00821e-06
-1.13384e-05
2.72368e-06
-2.51908e-06
1.20194e-05
1.1893e-06
1.42377e-06
-2.0186e-06
-5.94471e-07
2.94485e-06
1.8224e-06
9.76884e-07
-4.9507e-06
7.20075e-08
-1.3894e-06
1.54326e-06
-7.57131e-07
2.00969e-07
3.03906e-07
9.68068e-07
-1.31804e-06
4.72212e-08
-6.2587e-06
-2.06681e-06
3.50858e-06
4.81694e-06
-1.05086e-05
2.84331e-06
-1.36787e-06
9.03311e-06
-1.285e-06
-4.43174e-06
-2.12259e-05
3.34237e-06
3.50925e-06
2.00911e-05
-3.15113e-06
-2.20748e-05
-4.50322e-06
5.16471e-06
2.82833e-06
2.17361e-05
-7.11358e-05
-2.77586e-06
3.35607e-06
3.47307e-06
7.19002e-05
-4.81773e-06
1.75053e-06
-5.11362e-06
-2.92297e-05
7.54991e-06
-2.44307e-06
2.74859e-05
5.72371e-06
1.08906e-05
0.000186663
-4.66905e-06
-6.04131e-06
-4.72366e-06
-4.97188e-06
-5.8256e-06
-4.2541e-06
-5.1706e-06
-2.95721e-06
-9.05228e-06
6.97832e-06
0.000262841
-2.48892e-06
-3.47294e-06
-1.45664e-06
-2.78546e-06
-6.43657e-06
7.68177e-07
0.000299023
-3.66923e-06
-4.31347e-06
-1.92851e-06
-3.50714e-06
-3.87285e-06
-4.07335e-06
-3.60119e-06
-5.40749e-05
-4.34395e-06
-8.04707e-07
5.27869e-05
-5.06786e-06
3.51291e-07
5.84394e-08
4.65813e-06
1.82066e-06
-5.05844e-05
2.52093e-06
-3.99377e-06
-3.37397e-06
5.36106e-05
1.70415e-05
-1.11559e-05
0.000256289
4.95544e-07
1.734e-06
2.33433e-06
3.00306e-06
2.86652e-05
-7.13849e-06
0.000240727
4.4019e-06
-3.3567e-06
0.000162673
1.94574e-06
5.06608e-06
3.07668e-06
-5.47096e-07
-2.41972e-06
9.09425e-07
-2.40628e-05
2.38646e-06
-4.68872e-07
-2.4942e-07
2.67965e-05
-2.28013e-05
-9.32e-07
-4.09411e-06
1.27786e-06
2.44027e-05
2.14691e-06
8.44365e-06
-8.67336e-08
0.000104556
4.33563e-06
2.51165e-06
5.03644e-06
1.96503e-06
-4.65144e-08
-3.25431e-07
1.69614e-07
3.48532e-06
-7.77422e-07
9.63088e-05
6.47862e-07
3.91639e-06
1.83554e-07
-1.39445e-07
-3.24758e-07
5.92471e-07
-1.3043e-05
2.4253e-06
-1.69862e-06
1.24449e-05
2.61287e-07
-1.40322e-06
5.83111e-07
5.58821e-07
6.68031e-06
1.22267e-06
-1.47641e-08
-7.97514e-06
-1.51369e-06
7.6109e-08
-9.30947e-07
-6.01232e-07
2.19233e-06
6.56968e-08
-1.21315e-06
1.49311e-06
-3.46342e-07
-4.05366e-06
-3.52189e-06
4.07941e-06
3.49614e-06
-7.39075e-06
3.09073e-06
-1.66039e-06
5.96105e-06
-3.22966e-06
-4.92735e-06
-1.80954e-05
6.12756e-06
4.28539e-06
1.58394e-05
-4.17624e-06
-2.25473e-05
-6.58379e-06
5.24163e-06
2.89535e-06
2.51704e-05
-7.2997e-05
-2.05472e-06
-2.21861e-07
4.05632e-06
7.46539e-05
-3.43662e-06
2.0276e-06
-2.94228e-06
-2.60484e-05
4.49243e-06
-3.14523e-06
2.56159e-05
5.04754e-06
-6.34223e-06
0.000207858
-2.77557e-06
-3.40607e-06
-2.15892e-06
-1.94082e-06
-3.23119e-06
-3.05835e-06
-2.31153e-06
-1.01792e-06
-5.83161e-06
2.97413e-06
0.000278461
-1.33118e-06
-4.1811e-06
6.01031e-07
-2.80373e-06
-2.35771e-06
1.95895e-06
0.000310407
-3.59202e-06
-3.44962e-06
-2.26603e-06
-3.52666e-06
-1.33911e-06
-1.8851e-06
-7.58089e-07
-5.13606e-05
-6.42599e-07
-1.13483e-06
5.07803e-05
-4.61617e-06
2.54494e-07
-4.40324e-07
4.802e-06
3.38182e-06
-5.53622e-05
3.79273e-06
-5.07727e-06
-2.76955e-06
5.60345e-05
1.56551e-05
-1.96148e-05
0.000242816
1.72885e-06
2.3357e-06
3.65073e-06
3.3756e-06
3.01908e-05
-7.62819e-06
0.000236794
6.20236e-06
-1.90317e-06
0.000170439
4.56523e-06
6.44367e-06
4.72064e-06
2.1962e-06
-5.76919e-07
2.73526e-06
-2.70741e-05
2.44027e-06
1.94994e-06
5.55938e-07
2.83303e-05
-2.63134e-05
-2.60619e-06
-2.83632e-06
3.52273e-06
2.78443e-05
3.88907e-07
3.61692e-06
-1.17315e-06
7.71902e-05
4.42129e-06
1.30478e-07
4.41331e-06
-7.77758e-07
-8.4952e-07
-1.17647e-06
-8.54002e-07
2.58935e-06
-8.05036e-07
9.00173e-05
-1.24918e-06
2.60848e-06
-1.55085e-06
4.31831e-07
-7.20678e-07
9.76262e-07
-1.32215e-05
1.13363e-06
1.65251e-07
1.26088e-05
-1.36227e-06
-3.3474e-06
2.32028e-06
2.38942e-06
8.23771e-06
-3.42159e-07
-1.22856e-06
-7.84015e-06
-3.26776e-06
2.55064e-06
-4.60281e-06
9.35201e-07
3.5797e-06
5.95942e-07
-2.93434e-06
3.18544e-06
-8.47049e-07
-3.01289e-06
-3.58426e-06
3.93836e-06
2.65879e-06
-4.99289e-06
2.38644e-06
-1.66039e-06
4.26684e-06
-3.04222e-06
-4.69481e-06
-1.41093e-05
6.4197e-06
2.18445e-06
1.32422e-05
-2.47031e-06
-2.90928e-05
-6.23859e-06
4.74478e-06
-8.42422e-07
3.38994e-05
-7.63695e-05
-4.04837e-06
4.61581e-07
5.44493e-06
7.77083e-05
-3.19697e-06
2.69301e-06
-3.11398e-07
-2.56375e-05
1.06495e-06
-4.14531e-06
2.63362e-05
3.14979e-06
-2.05441e-05
0.000218979
9.18407e-07
7.09035e-07
2.48071e-06
4.18076e-06
-7.96639e-07
-1.16879e-06
-1.82572e-07
1.32196e-07
-1.96832e-06
-4.80457e-06
0.000281856
2.90675e-06
-2.55669e-06
6.29654e-06
-1.19506e-07
-1.0667e-06
5.39063e-06
0.000317652
-4.14511e-06
-3.60046e-06
-2.27654e-06
-3.2807e-06
1.34391e-07
-6.83685e-07
3.14835e-07
-5.03811e-05
-8.8468e-07
-4.40658e-08
5.02432e-05
-5.11608e-06
-1.22662e-07
-2.91854e-07
5.5306e-06
3.66703e-06
-5.58122e-05
3.89574e-06
-4.95098e-06
-1.69216e-06
5.48925e-05
1.47706e-05
-2.26586e-05
0.000218933
2.33178e-06
2.27828e-06
3.59189e-06
3.02459e-06
2.96687e-05
-4.90631e-06
0.000221998
6.49485e-06
7.32165e-07
0.00017117
5.4352e-06
6.60673e-06
5.02488e-06
4.00007e-06
1.93466e-06
4.10027e-06
-2.98273e-05
1.97911e-06
2.5522e-06
6.85954e-07
3.11049e-05
-2.91162e-05
-4.2751e-06
-4.63305e-07
5.37891e-06
2.98874e-05
-1.41168e-06
-9.55435e-08
-2.22374e-06
6.09323e-05
2.8059e-06
-1.99032e-06
2.2185e-06
-2.45686e-06
-9.08444e-07
-2.26991e-06
-1.48031e-06
1.22068e-06
-1.19319e-07
8.47706e-05
-2.44105e-06
1.3571e-06
-2.80934e-06
1.41385e-06
1.18605e-08
1.61106e-06
-1.37162e-05
-4.74337e-08
2.19813e-06
1.35183e-05
-2.92219e-06
-4.25548e-06
3.29362e-06
3.88285e-06
6.27191e-06
-2.63828e-06
-1.22972e-06
-4.62765e-06
-3.69143e-06
3.37196e-06
-5.71528e-06
1.96087e-06
3.95456e-06
1.06607e-06
-4.23932e-06
4.13492e-06
-9.61662e-07
-2.62228e-06
-2.28335e-06
1.84504e-06
3.06059e-06
-3.75519e-06
1.66406e-06
-1.53057e-06
3.6217e-06
1.45126e-07
-3.13985e-06
-1.34305e-05
3.75931e-06
-1.72882e-06
1.43948e-05
3.65688e-06
-3.82455e-05
-3.43394e-06
3.9599e-06
-7.37673e-06
4.14394e-05
-7.88829e-05
-3.31693e-06
-1.46528e-07
4.60614e-06
8.01702e-05
-2.42995e-06
2.53449e-06
1.23136e-06
-2.707e-05
-8.20298e-07
-3.41721e-06
2.75416e-05
3.7231e-08
-2.38756e-05
0.000221776
4.04726e-06
4.97795e-06
4.82352e-06
6.63367e-06
4.28161e-07
-6.2367e-07
5.30388e-07
2.23837e-07
6.31555e-07
-8.92171e-06
0.000268371
7.34927e-06
6.70065e-07
9.54243e-06
4.25101e-06
7.37998e-07
7.34734e-06
0.000316278
-3.7637e-06
-2.8066e-06
-1.4098e-06
-2.50265e-06
1.29295e-06
1.32426e-06
1.78581e-06
-4.97052e-05
-2.24245e-07
1.21868e-06
4.94482e-05
-5.97332e-06
-4.57992e-07
1.58959e-08
6.41541e-06
3.05509e-06
-5.31621e-05
1.99606e-06
-3.51468e-06
8.54365e-07
5.07713e-05
1.11276e-05
-2.16412e-05
0.000196978
1.81139e-06
1.81049e-06
2.60726e-06
2.36343e-06
2.76469e-05
1.16708e-06
0.00019539
6.56707e-06
2.97002e-06
0.000165166
5.51239e-06
6.68012e-06
4.98098e-06
5.19646e-06
3.85363e-06
5.23737e-06
-3.24381e-05
1.21907e-06
2.30476e-06
1.39555e-06
3.40858e-05
-3.03258e-05
-4.63864e-06
1.43212e-06
5.90025e-06
3.06849e-05
-3.05279e-06
-1.86482e-06
-2.22479e-06
5.52727e-05
7.26509e-07
-3.34661e-06
5.23965e-07
-3.74762e-06
-1.47692e-06
-2.77023e-06
-1.801e-06
-1.0091e-07
7.35758e-07
8.48586e-05
-3.22671e-06
2.50987e-09
-3.48133e-06
2.21029e-06
7.96331e-07
2.27836e-06
-1.48251e-05
-8.9092e-07
3.69957e-06
1.48856e-05
-4.52768e-06
-4.79994e-06
3.68274e-06
5.64488e-06
2.98784e-06
-5.69508e-07
-3.08568e-06
-1.55744e-06
-4.25688e-06
4.10127e-06
-6.42179e-06
2.3996e-06
4.91356e-06
9.13355e-07
-5.26538e-06
4.75774e-06
-4.0571e-07
-3.96943e-06
-8.32022e-07
-5.43763e-07
5.34521e-06
-3.91871e-06
5.14517e-07
-1.09129e-06
4.49549e-06
1.87174e-06
-1.61192e-06
-1.57616e-05
2.04926e-06
-3.69258e-06
1.71451e-05
8.37576e-06
-4.32829e-05
-2.09121e-06
2.8722e-06
-9.84676e-06
4.39729e-05
-8.21e-05
-1.78068e-06
-1.9208e-06
2.98776e-06
8.37337e-05
-9.19989e-07
1.3826e-06
2.05923e-06
-2.74554e-05
-1.92923e-06
-1.28136e-06
2.72242e-05
-1.39347e-06
-1.85437e-05
0.000220243
4.59344e-06
4.98771e-06
4.6825e-06
5.9368e-06
8.12342e-07
-7.80683e-07
1.00725e-06
2.30318e-07
4.45428e-06
-6.74321e-06
0.00024247
7.72788e-06
3.28738e-06
9.16646e-06
6.6142e-06
2.54752e-06
6.5856e-06
0.000304644
-2.21585e-06
-1.19767e-06
3.96813e-07
2.36345e-07
2.95657e-06
3.12357e-06
3.6548e-06
-4.88891e-05
1.02556e-06
1.51505e-06
4.8896e-05
-6.83249e-06
-8.21787e-07
4.15832e-07
7.23837e-06
2.28464e-06
-4.81091e-05
-2.00623e-07
-2.0135e-06
2.817e-06
4.52216e-05
8.20395e-06
-1.62905e-05
0.000182247
5.28781e-07
1.05693e-06
1.03004e-06
1.65868e-06
2.39722e-05
6.19972e-06
0.000166678
5.93899e-06
4.15913e-06
0.000155084
4.59256e-06
5.84442e-06
3.85428e-06
5.68918e-06
4.91464e-06
5.64638e-06
-3.65312e-05
3.91125e-09
8.80957e-07
2.36865e-06
3.92167e-05
-3.11347e-05
-4.21127e-06
1.883e-06
5.84702e-06
3.17472e-05
-4.13119e-06
-2.96728e-06
-1.9242e-06
5.8513e-05
-2.51928e-07
-4.16677e-06
-1.16023e-07
-4.214e-06
-1.51255e-06
-2.60324e-06
-1.77489e-06
-1.33843e-06
1.49407e-06
8.88627e-05
-3.48372e-06
-1.20486e-06
-3.56612e-06
2.91586e-06
1.51144e-06
2.90004e-06
-1.62563e-05
-1.93679e-06
4.49645e-06
1.65173e-05
-6.48268e-06
-5.05383e-06
4.09586e-06
7.44066e-06
7.40399e-08
-3.79024e-07
-3.29869e-06
1.67947e-06
-5.68293e-06
4.40878e-06
-6.96522e-06
2.8079e-06
6.92554e-06
-6.33683e-08
-5.91189e-06
5.2122e-06
7.63065e-07
-7.00451e-06
5.18711e-07
-2.47841e-06
8.96421e-06
-5.17373e-06
-1.85449e-07
-5.75006e-07
5.93419e-06
1.99902e-06
-1.00858e-06
-1.83404e-05
2.12956e-06
-4.04768e-06
1.92681e-05
9.75606e-06
-4.44558e-05
-1.76191e-06
1.12973e-06
-9.84583e-06
4.51777e-05
-8.44315e-05
1.64946e-06
-3.45736e-06
5.50541e-07
8.42534e-05
1.43548e-06
7.47121e-08
2.86272e-06
-2.66058e-05
-3.056e-06
8.88949e-07
2.58354e-05
2.88019e-06
-9.32179e-06
0.000207607
3.88714e-06
3.91599e-06
3.7762e-06
4.61639e-06
9.57298e-07
-3.44731e-07
1.31223e-06
9.57248e-07
1.21505e-05
-1.03724e-07
0.000209975
6.44233e-06
3.8012e-06
7.23273e-06
5.85219e-06
4.05174e-06
5.39397e-06
0.000288435
-7.2134e-07
1.64095e-06
1.98001e-06
2.44614e-06
4.37145e-06
4.33893e-06
4.85778e-06
-4.92198e-05
1.65594e-06
1.49614e-06
5.01195e-05
-7.70704e-06
-1.11179e-06
5.95453e-07
8.22338e-06
2.19444e-06
-4.24009e-05
-1.53232e-06
-1.54805e-06
3.16894e-06
4.01179e-05
8.05035e-06
-9.41129e-06
0.000173273
-7.53282e-07
2.07418e-07
4.23074e-07
1.13516e-06
1.9162e-05
7.73968e-06
0.000147723
4.34125e-06
4.38699e-06
0.000146573
2.76974e-06
4.05316e-06
1.94562e-06
5.35578e-06
5.06398e-06
5.15033e-06
-4.24441e-05
-1.21962e-06
-4.72758e-07
3.36503e-06
4.51127e-05
-3.24676e-05
-3.55971e-06
1.48419e-06
5.30477e-06
3.32795e-05
-4.04115e-06
-2.15058e-06
-1.78585e-06
6.71727e-05
-6.38337e-07
-4.30785e-06
-3.0007e-07
-4.15117e-06
-1.20985e-06
-2.08941e-06
-1.43779e-06
-2.46514e-06
2.15078e-06
9.51411e-05
-3.402e-06
-2.03742e-06
-3.50673e-06
3.34054e-06
2.05378e-06
3.1769e-06
-1.80943e-05
-2.87552e-06
4.76278e-06
1.81289e-05
-8.09863e-06
-5.01725e-06
4.49236e-06
8.62353e-06
-3.05986e-06
1.75202e-07
-3.72189e-06
4.8207e-06
-8.2898e-06
4.53612e-06
-7.23475e-06
3.18513e-06
9.95408e-06
-1.23959e-06
-5.84369e-06
5.20805e-06
1.87523e-06
-1.09628e-05
1.41483e-06
-3.24697e-06
1.27949e-05
-6.70709e-06
-4.10206e-07
-2.01575e-07
7.31887e-06
5.25754e-07
-7.92384e-07
-1.98779e-05
3.04297e-06
-3.17237e-06
2.0274e-05
8.94179e-06
-4.6618e-05
-2.98465e-06
5.2108e-07
-9.00473e-06
4.91445e-05
-8.42093e-05
3.46822e-06
-4.34014e-06
-1.36551e-06
8.40147e-05
2.43203e-06
-5.97537e-07
3.31235e-06
-2.49858e-05
-4.15686e-06
2.23207e-06
2.41958e-05
1.24257e-05
2.15655e-07
0.000181025
2.60143e-06
2.79165e-06
1.72915e-06
3.55004e-06
8.71965e-07
1.28175e-07
1.10588e-06
1.16268e-06
1.7124e-05
4.55258e-06
0.000183671
4.58779e-06
2.76444e-06
5.23641e-06
4.46504e-06
4.27874e-06
4.17278e-06
0.000276988
1.2485e-07
2.41665e-06
2.3753e-06
2.56624e-06
4.3583e-06
3.95773e-06
4.32043e-06
-5.10338e-05
2.05097e-06
1.56001e-06
5.17015e-05
-8.73558e-06
-1.04233e-06
6.08691e-07
9.16922e-06
2.13968e-06
-3.88429e-05
-2.62231e-06
-1.98469e-06
2.96016e-06
3.835e-05
7.53019e-06
-4.08065e-06
0.000168064
-3.91231e-07
1.8821e-07
8.8823e-07
1.29082e-06
1.3067e-05
8.04065e-06
0.000138699
2.38554e-06
4.10276e-06
0.000141385
5.3181e-07
1.92029e-06
-3.45546e-07
4.61607e-06
4.82389e-06
4.39286e-06
-4.7996e-05
-2.30662e-06
-1.39741e-06
4.57784e-06
4.95077e-05
-3.40699e-05
-2.848e-06
9.1395e-07
4.65021e-06
3.49538e-05
-3.60008e-06
-1.21345e-06
-1.32751e-06
7.77872e-05
-6.54776e-07
-3.9851e-06
-2.52268e-07
-3.78651e-06
-8.67719e-07
-1.61991e-06
-9.8796e-07
-2.90003e-06
2.39958e-06
0.000102237
-3.20738e-06
-2.14754e-06