/*--------------------------------*- C++ -*----------------------------------*\
| =========                 |                                                 |
| \\      /  F ield         | OpenFOAM: The Open Source CFD Toolbox           |
|  \\    /   O peration     | Version:  5.x                                   |
|   \\  /    A nd           | Web:      www.OpenFOAM.org                      |
|    \\/     M anipulation  |                                                 |
\*---------------------------------------------------------------------------*/
FoamFile
{
    version     2.0;
    format      ascii;
    class       volVectorField;
    location    "1";
    object      U;
}
// * * * * * * * * * * * * * * * * * * * * * * * * * * * * * * * * * * * * * //

dimensions      [0 1 -1 0 0 0 0];

internalField   nonuniform List<vector> 
10571
(
(0.51951 0.496472 2.85911)
(0.240019 -0.100701 0.593208)
(1.12261 -2.27053 3.96245)
(-1.46528 -1.02857 2.39285)
(-0.890911 -0.550811 1.14135)
(-0.476862 -0.183826 1.59397)
(0.242291 -0.392077 1.32722)
(-1.49644 -1.47208 3.04984)
(-1.13063 -0.215425 1.79499)
(-0.215227 -0.144127 1.2343)
(0.471449 -0.425973 2.65405)
(-0.512422 -0.768284 2.07102)
(-0.925865 -1.10913 3.84309)
(-1.44647 0.291317 2.58715)
(-1.818 0.217845 2.924)
(-0.166819 0.137706 1.00607)
(-0.961339 -1.68864 1.66041)
(-2.07005 -2.85071 2.94601)
(-3.09015 -1.18154 3.36151)
(-2.03381 0.165405 2.22917)
(-0.176734 0.0866458 0.552109)
(-0.924541 -0.620086 1.19498)
(-0.563411 -0.232604 0.84769)
(-0.111289 0.0218935 0.288099)
(1.27564 0.148759 3.00623)
(0.599913 -0.520742 0.185008)
(1.24176 -1.60464 3.16508)
(-0.0377484 -0.0980477 3.48683)
(-0.0691761 0.119483 0.437343)
(2.0084 -1.73051 2.03009)
(0.499062 -2.05643 2.51432)
(-0.30049 -1.57009 3.10557)
(-0.391862 -0.519411 1.41249)
(-0.278647 -0.404685 1.09176)
(-0.244276 -1.26222 1.95742)
(-1.04439 -1.89946 3.39399)
(-1.45546 -2.70348 3.41642)
(-0.503147 -0.920317 1.8524)
(-0.195042 -0.404502 1.288)
(0.0547218 -0.2799 0.838532)
(-0.155686 -0.195587 0.316724)
(-0.65651 -0.40017 1.85521)
(-0.302472 -0.48131 1.35075)
(-0.250422 0.0512444 1.40718)
(0.0206987 -0.017177 0.47494)
(0.0474196 -0.00157345 0.323441)
(-0.29956 -0.00411146 0.615366)
(-0.139179 0.144274 0.30288)
(1.09658 0.169894 3.05589)
(0.272922 -0.319405 0.378996)
(0.919402 -1.02323 3.99056)
(0.750856 -0.191389 4.65518)
(0.0125241 0.735719 0.963223)
(1.17017 -0.74426 1.87862)
(1.53122 -1.77065 3.77297)
(0.219282 -1.45583 2.89543)
(0.00625093 -1.07888 2.44789)
(-0.196391 -0.876257 1.72098)
(0.231074 -0.703204 2.90751)
(2.20473 -1.14109 3.92428)
(-0.00468919 -0.285017 1.41738)
(0.0861186 -0.37834 0.981168)
(0.0743024 -0.209954 0.880671)
(0.0380988 -0.41757 0.48414)
(0.100299 0.0839606 0.354739)
(-0.0559047 0.0632337 0.63327)
(0.0109074 -0.085132 0.675725)
(0.114016 -0.0312493 0.660974)
(0.108593 -0.0760918 0.564688)
(-0.0165403 0.00128167 0.414172)
(-0.119924 0.0537671 0.523405)
(-0.0372709 0.043155 0.409264)
(0.530212 0.111083 2.03386)
(-0.045374 0.0678567 0.401109)
(0.591478 -0.0125111 4.16579)
(0.872223 0.147934 5.15491)
(0.785991 0.300218 1.50575)
(-0.945124 0.110537 1.48662)
(0.873896 0.318188 3.29984)
(0.470461 0.934432 3.04904)
(0.3738 0.26624 1.57607)
(-0.107642 -0.177922 2.20469)
(-0.219849 -0.156298 1.14001)
(-0.15289 0.216572 2.32609)
(0.477459 0.627633 1.90152)
(-0.0228439 0.237628 0.86703)
(0.00494859 -0.0480503 0.472193)
(0.0416695 -0.192765 0.30818)
(0.0250739 0.48624 0.985357)
(-0.0945778 -0.15943 1.53266)
(-0.154087 -0.108494 0.690626)
(-0.0946803 -0.0983377 0.530583)
(0.0174104 -0.0839754 0.545647)
(-0.057927 -0.0938575 0.409017)
(-0.0968413 -0.0838744 0.5954)
(-0.0253172 -0.00787807 0.363381)
(0.884785 0.263884 1.21436)
(-0.587584 0.247119 0.565783)
(-0.0429236 2.00993 3.77239)
(1.01172 0.65242 4.66304)
(0.875424 -0.117282 1.14203)
(-0.847121 0.436499 1.7332)
(-0.226353 1.07944 1.8029)
(0.431141 1.12779 1.81546)
(0.541689 0.575657 2.17349)
(0.047636 0.101054 1.76402)
(-0.148147 0.138233 2.41002)
(-0.0770085 -0.00395243 2.15221)
(0.513644 2.0886 3.23372)
(-0.0976102 1.81425 2.27932)
(-0.208128 -0.0605676 0.838058)
(0.0398828 -0.0637461 0.249163)
(0.141345 0.0415375 1.11144)
(0.0498637 -0.504472 1.93543)
(-0.187337 -0.182926 0.989621)
(-0.13504 -0.098271 0.207331)
(-0.0205717 -0.0608616 0.273525)
(0.00872145 -0.0812299 0.10014)
(-0.0938552 -0.066631 0.319803)
(-0.0200322 -0.0362526 0.175735)
(1.05353 -0.178205 1.58905)
(-1.09317 0.525907 1.56839)
(-0.978576 0.864746 1.96333)
(1.17223 -0.0887042 2.53945)
(1.44442 0.523904 2.6223)
(0.23986 0.116941 1.22415)
(0.0333443 1.56012 2.38803)
(0.292714 1.3215 2.81451)
(-0.16864 0.408777 3.10047)
(0.00420157 0.3691 2.45147)
(-0.00534714 0.00501454 -0.00435214)
(0.0551052 0.350903 2.22997)
(0.047702 0.202208 1.17599)
(0.531884 1.59003 2.62636)
(0.104534 1.26044 1.86481)
(0.312762 -0.707049 0.829841)
(-0.208485 -0.267567 0.310075)
(-0.00547527 -0.00321022 -0.00325011)
(-0.0845424 -0.145112 0.790735)
(0.124429 -0.186968 1.7548)
(0.179471 -0.175681 1.37503)
(0.197767 -0.483679 0.119593)
(0.0565433 -0.160814 0.163052)
(-0.0653726 0.0276528 -0.236868)
(0.220376 -0.161491 0.159029)
(0.173836 -0.105355 0.00366945)
(0.680764 -0.176286 3.40591)
(-0.287251 0.135742 1.9815)
(0.228185 -0.294026 2.27906)
(0.26756 0.248556 2.86212)
(0.535634 0.471938 2.40757)
(0.51635 0.0249614 1.64372)
(0.397893 0.900284 1.64637)
(0.0447834 0.829146 2.30527)
(-0.288457 0.341604 2.72158)
(-0.051932 0.260224 2.49719)
(-0.116941 -0.0610817 -0.0557411)
(0.0727026 0.338589 2.29196)
(-0.0607942 0.142661 1.38971)
(0.478897 0.87755 2.55631)
(0.296588 0.56912 2.04752)
(0.544319 -0.531285 0.837918)
(0.122855 -0.457953 0.325323)
(-0.130771 -0.258528 0.0174367)
(-0.177281 -0.143745 0.772024)
(0.110457 -0.124892 1.90437)
(0.328571 -0.0869132 1.23347)
(0.40536 -0.306717 0.266739)
(0.0123382 -0.0948655 -0.0983)
(-0.418753 -0.117404 -0.0942334)
(0.0375444 0.196466 -0.0880956)
(0.107177 0.0572055 -0.0171182)
(0.256147 -0.0764332 -0.183539)
(0.665178 0.110694 2.86928)
(0.281898 -0.0210101 1.85366)
(0.132285 0.0917222 0.898881)
(0.295938 -0.102237 1.33132)
(0.470591 0.394105 2.60658)
(0.427347 -0.233622 1.57238)
(0.32441 0.462064 1.35742)
(-0.0237108 0.450945 2.16167)
(-0.250492 0.311007 2.79164)
(-0.0269971 0.340316 2.68425)
(-0.270518 -0.00860538 0.283692)
(0.0984233 0.053419 1.69028)
(0.0145729 -0.0326748 1.57991)
(0.45777 0.576065 2.71165)
(0.343732 0.315098 2.36069)
(0.582292 -0.327297 1.14145)
(0.229098 -0.395124 0.602173)
(-0.373154 -0.251438 0.139329)
(-0.200442 -0.152379 0.766575)
(0.0906475 -0.17674 1.87801)
(0.337553 -0.105127 1.22325)
(0.329759 -0.163416 0.398532)
(-0.00651729 -0.0146299 0.0278683)
(-0.234091 0.0369397 -0.291409)
(-0.0083612 0.202811 -0.0864339)
(0.13958 0.0665262 -0.0283289)
(0.198947 -0.0413116 -0.114127)
(0.48112 0.191474 1.60484)
(0.162476 0.11408 1.00594)
(0.184799 0.116675 0.948169)
(0.323463 0.160842 1.08618)
(0.38322 0.32991 2.68774)
(0.489494 -0.261082 1.44053)
(0.296968 0.44207 1.52427)
(-0.018773 0.356557 2.37221)
(-0.236685 0.292708 3.00243)
(-0.0104517 0.306228 2.67067)
(0.452785 0.137973 0.398103)
(0.0306461 0.0549544 0.961619)
(-0.120111 -0.0669657 1.9642)
(0.384306 0.328235 2.68346)
(0.355046 0.113046 2.45229)
(0.598964 -0.230425 1.49846)
(0.34056 -0.330219 0.910906)
(0.0352627 0.10041 -0.136401)
(-0.19345 -0.0899602 0.81156)
(0.0614359 -0.28853 1.6857)
(0.338539 -0.145833 1.14596)
(0.279474 -0.203208 0.494357)
(0.0974242 -0.0985941 -0.0747242)
(-0.0130057 0.203023 -0.20508)
(0.151239 0.0502421 -0.00610281)
(0.0949882 0.0199452 0.00240518)
(0.477457 0.0631076 0.764507)
(0.102147 -0.0191779 0.715962)
(0.281977 0.262699 0.915755)
(0.399266 0.294324 0.95588)
(0.323157 0.239477 2.80119)
(0.488851 -0.125727 1.24061)
(0.230262 0.4408 1.78612)
(0.0029379 0.320422 2.61304)
(-0.231149 0.211153 3.13058)
(-0.115308 0.145733 2.60185)
(-0.0114666 0.0714472 0.683997)
(-0.25823 -0.141692 2.31901)
(0.236583 -0.0352602 2.63575)
(0.401678 -0.0454331 2.46755)
(0.570275 -0.1798 1.66472)
(0.303416 -0.11489 0.956082)
(-0.124076 0.0099452 0.911288)
(-0.0336837 -0.290786 1.24006)
(0.313806 -0.170447 1.01254)
(0.234377 -0.22339 0.545331)
(-0.0897076 0.186706 -0.00332412)
(0.0195462 0.121138 -0.388687)
(0.0612541 0.00925263 0.0823871)
(-0.162559 0.0899095 -0.0160592)
(0.562139 0.0497194 0.536639)
(0.139304 -0.0458137 0.469933)
(0.414542 0.362175 0.740695)
(0.493778 0.337043 1.02192)
(0.248218 0.31339 2.8915)
(0.282975 -0.150938 1.13893)
(0.163144 0.159507 2.01227)
(0.0364221 0.20256 2.76291)
(-0.208478 0.193693 3.24683)
(-0.0772667 0.0954563 2.56343)
(-0.0266815 0.101365 0.666934)
(-0.349687 -0.230689 2.46459)
(0.133241 -0.359254 2.55869)
(0.422468 -0.0913515 2.42518)
(0.565819 -0.116173 1.78256)
(0.38134 -0.111624 1.1066)
(0.00925517 0.15201 1.05164)
(-0.105975 -0.263808 0.942311)
(0.214555 -0.167367 0.987699)
(0.195846 -0.103192 0.543878)
(-0.11634 0.349914 0.169095)
(0.03642 -0.0135074 -0.411955)
(-0.210098 0.00297737 0.153095)
(-0.277146 0.168382 -0.0631098)
(0.505646 0.0621351 0.391792)
(0.0850528 -0.0430459 0.333205)
(0.411166 0.267616 0.586145)
(0.393946 0.106265 1.39205)
(0.198698 0.466661 3.01033)
(0.0600252 -0.219455 1.14877)
(0.0752441 -0.190808 2.15056)
(0.0523133 -0.123026 2.85984)
(-0.115071 0.213849 3.34002)
(-0.0532891 0.148812 2.52367)
(-0.0285076 0.176046 0.762348)
(-0.346362 -0.210296 2.44562)
(0.0982934 -0.536243 2.34402)
(0.399612 -0.0626185 2.36654)
(0.568076 -0.0028305 1.84727)
(0.38796 -0.0965397 1.19059)
(0.189209 0.298577 1.16277)
(-0.0579417 -0.244967 0.689418)
(0.049503 -0.106766 0.927132)
(0.130733 0.112833 0.577034)
(-0.134975 0.454976 0.305141)
(0.06326 -0.109053 -0.291586)
(-0.317365 0.0281036 0.153359)
(-0.364518 0.232721 -0.0947733)
(0.345757 0.0529474 0.394739)
(0.0370004 -0.0474751 0.261349)
(0.262107 -0.0159437 0.618663)
(0.242165 -0.418112 1.79383)
(0.10489 0.415804 3.10252)
(-0.0822675 -0.198456 1.21182)
(-0.00172927 -0.283605 2.19886)
(0.0107284 -0.407063 2.77196)
(0.00990583 0.1451 3.384)
(0.0574671 0.207305 2.50669)
(-0.0241734 0.223847 0.887299)
(-0.25727 -0.0197931 2.29315)
(0.0552667 -0.540072 2.07218)
(0.318008 0.0675838 2.1478)
(0.5946 0.134392 1.8013)
(0.390603 -0.0306591 1.30194)
(0.268877 0.348845 1.18793)
(0.00235703 -0.233598 0.591376)
(-0.0835088 -0.0304431 0.893227)
(0.0591068 0.264327 0.634512)
(-0.143427 0.493573 0.462514)
(-0.119699 -0.0946743 -0.127317)
(-0.366239 0.0745802 0.181214)
(-0.420241 0.278735 -0.0674032)
(0.188885 0.00100123 0.659066)
(-0.0144791 -0.0330132 0.307239)
(0.150931 -0.176853 0.730797)
(0.191885 -0.731189 1.93731)
(-0.022408 0.290293 3.26994)
(-0.172494 -0.0737322 1.20844)
(-0.0191389 -0.256838 2.21172)
(-0.0153393 -0.421867 2.60248)
(0.161813 0.00790023 3.2993)
(0.191953 0.16551 2.45102)
(-0.0151768 0.26097 1.00215)
(-0.181512 0.152403 2.05711)
(0.0288061 -0.368264 1.88694)
(0.260065 0.16679 1.80904)
(0.542704 0.223951 1.68905)
(0.362754 0.0993 1.48191)
(0.265945 0.359277 1.22725)
(0.0526763 -0.220094 0.590153)
(-0.155099 0.0326474 0.909643)
(-0.0406777 0.344377 0.701517)
(-0.163843 0.519459 0.637434)
(-0.128838 -0.0697652 0.0286996)
(-0.390173 0.112286 0.249508)
(-0.457683 0.314844 0.0275023)
(0.0478358 -0.0686553 1.13687)
(-0.0406922 -0.00128294 0.397764)
(0.119271 -0.203427 0.832686)
(0.0979798 -0.748523 1.96674)
(-0.235215 0.0660894 3.29851)
(-0.258794 0.0936165 1.15112)
(0.0267372 -0.167658 2.1862)
(0.0900038 -0.185753 2.27082)
(0.304911 -0.0544765 3.10019)
(0.290874 0.076744 2.4958)
(-0.00896202 0.282034 1.13713)
(-0.197846 0.205177 1.81019)
(0.0442073 -0.147703 1.78386)
(0.246021 0.177537 1.56674)
(0.405512 0.236319 1.57949)
(0.266747 0.216334 1.72673)
(0.219795 0.324579 1.28292)
(0.101113 -0.190778 0.660555)
(-0.171478 0.0852757 0.967194)
(-0.145469 0.371559 0.773455)
(-0.197412 0.517444 0.766743)
(-0.1735 -0.0710053 0.187357)
(-0.405798 0.139654 0.367503)
(-0.452473 0.315392 0.132807)
(-0.0638802 -0.0917773 1.69586)
(-0.0386378 0.0162559 0.510274)
(0.10304 -0.106287 0.875878)
(0.121051 -0.674768 2.09321)
(-0.349295 -0.103952 3.28631)
(-0.301881 0.159285 1.07586)
(0.211621 -0.0138365 1.95994)
(0.215387 0.0044296 1.92322)
(0.336616 -0.0544907 2.9327)
(0.309097 0.018826 2.59)
(-0.00291993 0.257531 1.28433)
(-0.209905 0.219773 1.69013)
(0.05496 0.0164748 1.71208)
(0.220351 0.140689 1.43046)
(0.221926 0.208452 1.50739)
(0.164719 0.303782 1.93164)
(0.15787 0.277932 1.3479)
(0.118786 -0.159547 0.761718)
(-0.156534 0.126476 1.03549)
(-0.1938 0.357272 0.832917)
(-0.226413 0.474851 0.786499)
(-0.189214 -0.0432169 0.335353)
(-0.39988 0.140589 0.502179)
(-0.401033 0.267058 0.191982)
(-0.164062 -0.0848951 2.16014)
(0.0252199 -0.0224714 0.564126)
(0.0861658 0.0789574 0.89758)
(0.108317 -0.611045 2.37779)
(-0.376322 -0.196833 3.27072)
(-0.21528 0.10514 1.00463)
(0.275223 0.0393707 1.63026)
(0.15788 0.0212764 1.718)
(0.254987 -0.0664865 2.88633)
(0.172549 0.016333 2.62598)
(0.00824647 0.17591 1.35704)
(-0.192733 0.200743 1.69395)
(0.036421 0.0948926 1.66511)
(0.153118 0.0811858 1.36688)
(0.0691332 0.218644 1.47699)
(0.0180124 0.318263 1.983)
(0.108346 0.225494 1.40716)
(0.101032 -0.140828 0.871842)
(-0.151165 0.15247 1.10734)
(-0.190282 0.353672 0.902384)
(-0.232753 0.423166 0.783058)
(-0.206718 -0.0234924 0.475785)
(-0.369143 0.126798 0.638922)
(-0.376308 0.258017 0.318051)
(-0.284119 -0.089718 2.53674)
(0.120513 -0.0920224 0.587906)
(0.0232086 0.232743 0.937164)
(-0.00243523 -0.454168 2.70803)
(-0.376562 -0.246809 3.24492)
(-0.102496 0.0721803 0.968151)
(0.178903 0.0662926 1.41496)
(-0.023184 0.012813 1.6406)
(-0.0304663 -0.103997 2.80738)
(-0.104248 -0.13442 2.28936)
(0.00247715 0.118376 1.3001)
(-0.157804 0.0951352 1.7403)
(0.00440088 0.115924 1.63165)
(0.0688384 0.0629674 1.3167)
(0.0115321 0.256357 1.45407)
(-0.153741 0.22419 1.83586)
(0.0888183 0.17941 1.42781)
(0.0549352 -0.136459 0.987063)
(-0.163569 0.159852 1.1583)
(-0.160985 0.3493 0.971814)
(-0.183355 0.336585 0.784558)
(-0.217511 -0.0142322 0.610755)
(-0.344942 0.115555 0.760684)
(-0.343671 0.228736 0.399666)
(-0.421661 -0.062319 2.73566)
(0.148405 -0.115603 0.585121)
(-0.0854631 0.315563 1.01066)
(-0.190387 -0.213615 2.96761)
(-0.328753 -0.300258 3.26969)
(-0.0561015 0.0463619 1.01079)
(0.0681849 0.149833 1.32068)
(-0.141171 0.0735976 1.61162)
(-0.353284 -0.147614 2.56951)
(-0.0167661 -0.198207 1.8485)
(-0.0214831 0.113187 1.26715)
(-0.139294 -0.0288883 1.80371)
(-0.0245365 0.112698 1.62202)
(0.0129166 0.0947602 1.26458)
(0.0260874 0.274992 1.41502)
(-0.132182 0.141499 1.6427)
(0.0901292 0.161425 1.40353)
(-0.000344701 -0.130019 1.09031)
(-0.174743 0.157978 1.1968)
(-0.132304 0.325057 1.00082)
(-0.13723 0.251522 0.827423)
(-0.214362 -0.0167759 0.718522)
(-0.317142 0.103188 0.866476)
(-0.301766 0.199628 0.476722)
(-0.544433 -0.00669495 2.62597)
(0.114509 -0.108344 0.623886)
(-0.196708 0.344509 1.10924)
(-0.364028 0.0645917 3.10572)
(-0.265843 -0.328865 3.23873)
(0.0145755 -0.00879416 1.17487)
(0.0193178 0.259693 1.31034)
(-0.137995 0.188499 1.61682)
(-0.400136 -0.161856 2.26105)
(0.0866822 -0.0886666 1.61788)
(-0.030774 0.136533 1.28587)
(-0.132051 -0.0900993 1.84482)
(-0.0489667 0.100998 1.64389)
(0.00975264 0.134933 1.22753)
(0.0486069 0.267166 1.32443)
(-0.00648266 0.118617 1.5155)
(0.0966111 0.164176 1.37683)
(-0.0503758 -0.126745 1.18359)
(-0.173088 0.153345 1.23439)
(-0.112079 0.287442 1.00619)
(-0.0975043 0.168414 0.82878)
(-0.216007 -0.01533 0.813879)
(-0.291758 0.100252 0.95684)
(-0.264919 0.168209 0.535354)
(-0.400012 -0.0430846 2.32458)
(0.0753722 -0.0675377 0.717259)
(-0.225889 0.287958 1.20566)
(-0.444261 0.305652 3.15974)
(-0.130794 -0.16578 3.12341)
(0.0935645 0.00182878 1.31555)
(0.0226558 0.334086 1.34281)
(-0.0733719 0.296491 1.6405)
(-0.252265 -0.121229 1.9789)
(0.121146 0.0228067 1.55179)
(-0.031925 0.178232 1.34132)
(-0.129328 -0.0829818 1.85772)
(-0.0751966 0.0696632 1.69652)
(0.0366749 0.172672 1.21534)
(0.0355434 0.250011 1.26254)
(0.0468332 0.109701 1.45994)
(0.102414 0.173582 1.3738)
(-0.101267 -0.116274 1.25624)
(-0.156494 0.159855 1.26834)
(-0.104771 0.232827 1.00603)
(-0.0742577 0.127259 0.83173)
(-0.214263 -0.0385237 0.884725)
(-0.256288 0.0986121 1.0472)
(-0.205251 0.135428 0.55844)
(-0.187364 -0.0731485 2.17703)
(0.0567951 -0.0295616 0.804014)
(-0.199992 0.169688 1.23245)
(-0.434803 0.371362 3.21407)
(-0.0395337 -0.12079 2.95119)
(0.105513 0.0198248 1.36534)
(0.0686907 0.347976 1.40315)
(-0.00219259 0.344686 1.6483)
(-0.0769244 -0.0378822 1.7767)
(0.105999 0.0767839 1.56703)
(-0.02013 0.196533 1.42335)
(-0.13096 -0.0459016 1.86015)
(-0.0968902 0.0192106 1.75026)
(0.0614791 0.211894 1.21945)
(0.0115788 0.237688 1.22787)
(0.0459748 0.111884 1.45042)
(0.109818 0.181925 1.39999)
(-0.139033 -0.111854 1.31508)
(-0.130372 0.16923 1.30375)
(-0.101458 0.225298 1.01699)
(-0.061566 0.113329 0.830915)
(-0.19267 -0.0707478 0.938004)
(-0.227114 0.0925387 1.10733)
(-0.161076 0.108168 0.598557)
(-0.0627113 -0.0325697 2.07368)
(0.0514172 0.00174275 0.867459)
(-0.206869 0.0773351 1.20774)
(-0.338786 0.305088 3.22323)
(0.0158827 -0.0724853 2.71026)
(0.0247523 -0.0136505 1.31762)
(0.0844404 0.330901 1.45661)
(0.0683647 0.343824 1.63342)
(0.0417709 0.0495106 1.63329)
(0.0849834 0.11708 1.61216)
(-0.00759592 0.193063 1.50577)
(-0.133699 0.00896741 1.8604)
(-0.113403 -0.0377907 1.80885)
(0.0803501 0.24622 1.23002)
(-0.00222972 0.226988 1.21501)
(0.0294778 0.128067 1.46183)
(0.110793 0.185494 1.45216)
(-0.16496 -0.117927 1.36419)
(-0.106276 0.166919 1.35677)
(-0.0986945 0.228232 1.02651)
(-0.0560622 0.118043 0.843727)
(-0.164555 -0.103169 0.980533)
(-0.204623 0.0621966 1.16844)
(-0.128207 0.082016 0.641515)
(-0.00616598 0.0181365 1.97966)
(0.0335388 0.00524524 0.876789)
(-0.231285 -0.0153867 1.18169)
(-0.23271 0.226685 3.2812)
(0.0424142 -0.0195803 2.51205)
(-0.0882788 -0.0113544 1.2263)
(0.0440783 0.302884 1.48323)
(0.136316 0.331837 1.58978)
(0.106118 0.113154 1.53353)
(0.0733763 0.127987 1.65094)
(-0.000370915 0.185211 1.58502)
(-0.136968 0.062185 1.87545)
(-0.117583 -0.0798264 1.86148)
(0.0968257 0.262821 1.2447)
(-0.000647963 0.217795 1.21447)
(0.0190892 0.14893 1.47663)
(0.115895 0.195618 1.50171)
(-0.168829 -0.129899 1.40097)
(-0.102996 0.148222 1.42052)
(-0.0987666 0.239625 1.05545)
(-0.0614056 0.139373 0.891429)
(-0.133654 -0.13499 1.02464)
(-0.178039 0.032883 1.19299)
(-0.11436 0.0823138 0.700228)
(-0.060324 0.0230891 1.91028)
(0.016022 -0.010473 0.871481)
(-0.18266 -0.0574629 1.182)
(0.00203806 0.0315523 3.19426)
(0.0195368 0.0386971 2.39805)
(-0.0901279 0.00292535 1.21814)
(-0.0121101 0.261013 1.48905)
(0.177161 0.308107 1.51656)
(0.129491 0.153835 1.47741)
(0.0764584 0.148316 1.66975)
(0.0194282 0.130915 1.61508)
(-0.130147 0.0803983 1.90318)
(-0.118832 -0.109762 1.91939)
(0.10626 0.256315 1.26549)
(0.0080578 0.200213 1.2256)
(0.00620976 0.176615 1.49271)
(0.120136 0.201539 1.57878)
(-0.159504 -0.136923 1.45265)
(-0.115482 0.115985 1.49061)
(-0.0943342 0.241503 1.09622)
(-0.0751738 0.162375 0.957665)
(-0.0849861 -0.134042 1.07832)
(-0.150577 0.0049349 1.21656)
(-0.11212 0.0748566 0.778655)
(-0.133767 0.00945067 1.91911)
(0.0159659 -0.0132802 0.886771)
(-0.0994306 -0.080143 1.20231)
(0.106271 -0.00912317 2.77606)
(0.0459276 0.0640417 2.39022)
(0.030161 -0.0219441 1.27038)
(-0.0294318 0.190086 1.47202)
(0.174375 0.260141 1.43484)
(0.122329 0.17454 1.45917)
(0.0800061 0.201675 1.68516)
(0.0196247 0.092781 1.54578)
(-0.111308 0.0590298 1.94086)
(-0.114641 -0.122863 1.96823)
(0.10804 0.226121 1.28988)
(0.0123657 0.167343 1.25697)
(-0.0194864 0.203181 1.49775)
(0.13439 0.200133 1.63384)
(-0.154861 -0.146232 1.50842)
(-0.133684 0.0792372 1.55398)
(-0.0825238 0.231016 1.14765)
(-0.0847411 0.171546 1.02898)
(0.00962806 -0.0989881 1.15059)
(-0.115479 -0.048767 1.21404)
(-0.110416 0.0588084 0.840632)
(-0.153308 -0.00390086 1.9566)
(0.00053622 -0.0028422 0.954023)
(-0.0749035 -0.110661 1.22165)
(0.0214215 -0.0334706 2.26173)
(0.055099 0.0147715 2.39432)
(0.154427 -0.0310573 1.31908)
(-0.0158707 0.0636666 1.45195)
(0.135113 0.196983 1.36678)
(0.0971063 0.171408 1.46724)
(0.0843626 0.274098 1.69682)
(0.0159971 0.126444 1.40661)
(-0.0907293 0.0264625 1.9473)
(-0.104744 -0.113211 1.99203)
(0.111175 0.19185 1.30641)
(0.00299146 0.141529 1.29367)
(-0.0543346 0.206608 1.50063)
(0.111931 0.178223 1.67339)
(-0.156268 -0.163334 1.56652)
(-0.147175 0.0643404 1.60511)
(-0.0682822 0.219314 1.19762)
(-0.0786943 0.158654 1.09635)
(0.127943 -0.0552822 1.23486)
(-0.0891537 -0.0625918 1.1996)
(-0.108209 0.054502 0.905853)
(-0.147013 0.0180553 1.96776)
(0.00167207 0.00150441 1.07511)
(-0.0472548 -0.113172 1.25815)
(-0.0426804 0.0200322 1.93598)
(0.0621223 -0.0647354 2.38489)
(0.185617 -0.0394172 1.33177)
(-0.00203805 -0.062186 1.43202)
(0.0670591 0.117255 1.33387)
(0.00037181 0.115386 1.50499)
(0.0950694 0.310375 1.72222)
(0.00661502 0.106356 1.30315)
(-0.0843298 0.0315594 1.95647)
(-0.0892877 -0.0899153 1.98736)
(0.125962 0.171856 1.31101)
(-0.012074 0.126903 1.32174)
(-0.0568838 0.165878 1.53157)
(0.0920055 0.152977 1.70475)
(-0.168781 -0.153507 1.61227)
(-0.144303 0.0556025 1.63862)
(-0.0560479 0.202538 1.23894)
(-0.061766 0.132588 1.1535)
(0.207868 -0.012448 1.27275)
(-0.0756351 -0.024016 1.18707)
(-0.102306 0.0520259 0.971682)
(-0.0938356 0.0354346 1.91655)
(0.0269353 -0.0258302 1.18324)
(0.00172161 -0.145522 1.32678)
(-0.0490697 0.0797391 1.8277)
(0.152147 -0.0907781 2.36217)
(0.164651 -0.108921 1.29455)
(0.0191127 -0.135434 1.39027)
(9.69373e-05 0.061842 1.32164)
(-0.105905 0.0584674 1.50509)
(0.113494 0.296827 1.75816)
(-0.00158625 0.0371854 1.29264)
(-0.046954 0.0315378 1.9428)
(-0.0497901 -0.0422493 1.94656)
(0.145611 0.159438 1.31206)
(-0.0269115 0.125833 1.33633)
(-0.0346692 0.111808 1.56092)
(0.0787782 0.138973 1.71201)
(-0.162589 -0.0903826 1.66077)
(-0.119149 0.0502744 1.6467)
(-0.0449776 0.181311 1.27234)
(-0.0500549 0.113567 1.20155)
(0.230434 0.0209367 1.31062)
(-0.0464403 -0.00351199 1.19459)
(-0.0821743 0.0463908 1.04878)
(0.0149574 0.0214959 1.96461)
(0.0335501 -0.0469559 1.31439)
(0.0238844 -0.204889 1.43784)
(0.0078687 0.0545953 1.84384)
(0.208504 -0.0181402 2.36438)
(0.111712 -0.173602 1.25386)
(0.035593 -0.137003 1.34485)
(-0.029366 0.0565255 1.30298)
(-0.142127 0.055778 1.48009)
(0.0788885 0.230125 1.79448)
(-0.00633718 0.0249309 1.33041)
(-0.102832 -0.0102947 1.85013)
(0.0205979 0.037301 1.80821)
(0.15168 0.152718 1.31969)
(-0.0360199 0.145457 1.34567)
(-0.0368062 0.0869764 1.53188)
(0.0200951 0.154074 1.69416)
(-0.123715 -0.00394883 1.70227)
(-0.0674039 0.0557769 1.65569)
(-0.0413461 0.170885 1.31094)
(-0.047055 0.107694 1.25032)
(0.216817 0.0596537 1.38386)
(-0.0166998 0.0321543 1.24259)
(-0.0700811 0.0459758 1.14207)
(0.0409086 -0.000882948 2.05226)
(0.000188982 -0.0248869 1.39669)
(0.0277945 -0.165807 1.55121)
(0.0751136 0.0192336 1.93764)
(0.188605 0.0697761 2.33341)
(0.0335171 -0.0802823 1.2561)
(0.0296556 -0.047399 1.31167)
(-0.0244667 0.0907244 1.28597)
(-0.121523 0.107732 1.45298)
(0.0243917 0.0468472 1.76341)
(-0.0155023 0.0345869 1.42727)
(-0.115086 -0.0839015 1.75172)
(0.0660771 0.103137 1.65209)
(0.141738 0.155024 1.34805)
(-0.0296109 0.180864 1.37159)
(-0.043938 0.135896 1.45214)
(-0.0222542 0.157928 1.6705)
(-0.077833 0.0611478 1.73168)
(-0.0210972 0.0649972 1.68843)
(-0.0410357 0.171537 1.37082)
(-0.051799 0.116105 1.31536)
(0.20314 0.0868178 1.47793)
(0.0359631 0.0379069 1.34113)
(-0.0597367 0.0388 1.22806)
(0.0316332 -0.00506456 2.05276)
(-0.122161 0.100948 1.33676)
(-0.0744836 0.00561751 1.48803)
(0.0288638 0.00327731 1.95781)
(0.0787581 0.0548251 2.27426)
(-0.0631707 0.133379 1.30425)
(0.0258353 0.0760681 1.30616)
(0.0219182 0.147271 1.30573)
(-0.0354259 0.21764 1.42959)
(0.0513712 0.0736068 1.65351)
(-0.00306724 0.0859318 1.52571)
(0.0119949 0.00611877 1.66641)
(0.0941561 0.145507 1.57565)
(0.141334 0.160977 1.4082)
(-0.000776151 0.188081 1.42359)
(-0.0245672 0.204907 1.42623)
(-0.00196945 0.150387 1.66981)
(-0.0412962 0.0914285 1.78288)
(0.0297509 0.0675484 1.73863)
(-0.0309072 0.169416 1.45678)
(-0.0505919 0.109469 1.40914)
(0.181972 0.0835448 1.59588)
(0.0813239 0.0497786 1.45918)
(-0.0536436 0.0247156 1.29465)
(-0.0739371 -0.00447915 1.95213)
(-0.167197 0.166007 1.26793)
(-0.146314 0.128646 1.34506)
(-0.172368 0.160497 1.84559)
(-0.0239345 0.165464 1.88521)
(-0.0658518 0.196012 1.34131)
(0.0614057 0.114618 1.31805)
(0.0952516 0.150149 1.37365)
(0.0308758 0.235204 1.45316)
(0.10222 0.238911 1.52689)
(0.0116186 0.119721 1.5537)
(0.0738693 0.13815 1.58648)
(0.140861 0.170557 1.54523)
(0.170502 0.171507 1.46325)
(0.0499572 0.170022 1.50183)
(0.0101326 0.237316 1.48167)
(0.0623487 0.151863 1.69458)
(-0.00926157 0.100504 1.82329)
(0.0819259 0.0677643 1.7866)
(-0.0014891 0.151969 1.56705)
(-0.0369041 0.0896211 1.52097)
(0.162772 0.0887225 1.70798)
(0.112769 0.0546334 1.58645)
(-0.030075 0.00658707 1.34442)
(-0.172238 -0.0212333 1.76954)
(-0.0482538 0.0788273 1.17472)
(-0.0750706 0.0988239 1.31485)
(-0.0753703 0.196588 1.6437)
(0.0505161 0.162983 1.54157)
(-0.0498821 0.163755 1.32903)
(0.140184 0.109469 1.28904)
(0.170299 0.12472 1.41429)
(0.0973813 0.170828 1.51462)
(0.112674 0.270949 1.51834)
(0.0227706 0.139583 1.55115)
(0.053728 0.182211 1.50686)
(0.214285 0.195313 1.49218)
(0.215498 0.197272 1.51029)
(0.120599 0.151188 1.59267)
(0.030124 0.181068 1.62168)
(0.0954197 0.158909 1.73393)
(0.0413491 0.12323 1.85147)
(0.113058 0.068684 1.83722)
(0.0432285 0.123034 1.68862)
(-0.0108498 0.0614339 1.62225)
(0.15074 0.0903149 1.80006)
(0.137551 0.0527239 1.70322)
(0.00676454 -0.00453616 1.41176)
(-0.131585 -0.0283645 1.64882)
(0.0625175 -0.0436599 1.12719)
(0.0218885 0.0502219 1.36199)
(0.0679918 0.0599701 1.4868)
(0.127701 0.0761411 1.4876)
(0.0516544 0.035047 1.20999)
(0.210624 0.0704367 1.1703)
(0.217673 0.115641 1.38819)
(0.136146 0.104992 1.56722)
(0.0999309 0.197622 1.58251)
(0.0377948 0.149946 1.45096)
(0.0611403 0.182905 1.42475)
(0.261397 0.232638 1.42658)
(0.232491 0.220024 1.55654)
(0.184501 0.132996 1.69005)
(0.0470025 0.0841622 1.77184)
(0.111763 0.164653 1.77879)
(0.101574 0.161476 1.88661)
(0.122478 0.0658857 1.90656)
(0.0831489 0.0910613 1.80947)
(0.0191509 0.0310143 1.71502)
(0.151946 0.0956151 1.90194)
(0.147881 0.0504201 1.81176)
(0.0394913 -0.0118913 1.49808)
(-0.101286 -0.0320917 1.59236)
(0.0794997 -0.0721566 1.17235)
(-0.00145294 0.0560652 1.45764)
(0.114771 -0.0445798 1.39227)
(0.121015 0.0134675 1.53373)
(0.12646 0.0410163 0.970926)
(0.202636 0.0260686 1.02382)
(0.213495 0.104666 1.31902)
(0.11426 0.0540858 1.60511)
(0.076461 0.0932187 1.70507)
(0.0161694 0.225272 1.38755)
(0.0733894 0.342842 1.25948)
(0.242527 0.247615 1.3846)
(0.205988 0.219755 1.58925)
(0.193281 0.107897 1.79027)
(0.0542125 0.0165018 1.88025)
(0.0909701 0.197229 1.84324)
(0.133265 0.187646 1.93838)
(0.131606 0.0662328 1.98747)
(0.10623 0.0571355 1.91368)
(0.0434051 -0.00455592 1.81689)
(0.158426 0.0878722 2.01074)
(0.155537 0.0483647 1.9201)
(0.0719574 -0.0185876 1.59364)
(-0.113807 -0.0309287 1.54796)
(-0.137428 0.117523 1.38157)
(-0.118779 0.0991172 1.52045)
(0.0439217 -0.0700039 1.32416)
(0.0715191 -0.0292456 1.57276)
(0.124376 0.0776224 0.780406)
(0.168453 0.00888333 0.904477)
(0.174276 0.0635077 1.24972)
(0.0581972 0.00772767 1.62559)
(0.0560098 -0.00232379 1.83855)
(0.00414612 0.25002 1.49274)
(0.0449527 0.269843 1.04485)
(0.193687 0.210509 1.3278)
(0.108686 0.192906 1.61995)
(0.124743 0.0831374 1.86452)
(0.04994 -0.035762 1.94627)
(0.0878796 0.218962 1.94199)
(0.130931 0.182105 1.99855)
(0.138445 0.0640552 2.06623)
(0.117733 0.0181286 1.99861)
(0.0644373 -0.0511309 1.90042)
(0.157733 0.0805399 2.113)
(0.153222 0.0448746 2.01996)
(0.0852809 -0.0323486 1.6909)
(-0.160062 -0.0292949 1.4937)
(-0.295011 0.277948 1.4747)
(-0.231526 0.115749 1.47901)
(-0.0609705 -0.0465358 1.27909)
(0.0261861 -0.0564199 1.58121)
(0.121487 0.204411 0.772886)
(0.137994 0.0125232 0.848917)
(0.137209 -0.0104604 1.21262)
(0.00759396 -0.0313445 1.62459)
(0.0396526 -0.0678434 1.94343)
(-0.0202844 0.247899 1.51544)
(0.102527 0.121207 0.854399)
(0.165179 0.143055 1.29144)
(-0.0318764 0.130854 1.66248)
(0.0209473 0.0655499 1.8735)
(0.0348398 -0.0712627 1.97498)
(0.108909 0.211786 2.03073)
(0.116017 0.156261 2.05153)
(0.120715 0.029023 2.13297)
(0.106843 -0.00560294 2.06467)
(0.0847059 -0.0937828 1.96659)
(0.137008 0.0706164 2.20616)
(0.131998 0.0394114 2.10345)
(0.0884773 -0.0458604 1.74378)
(-0.203203 -0.0329537 1.40335)
(-0.35227 0.342319 1.46558)
(-0.301415 0.115402 1.37773)
(-0.0862916 -0.0618027 1.22844)
(-0.0249692 -0.0824347 1.59175)
(0.0897451 0.335159 0.886204)
(0.116459 0.0180936 0.842801)
(0.108232 -0.0962638 1.2074)
(-0.0293584 -0.0665775 1.611)
(0.0232559 -0.103672 2.01269)
(0.0301553 0.160081 1.34606)
(0.0842779 0.0908612 0.776069)
(0.148131 0.0623911 1.30941)
(-0.08557 0.0439423 1.71222)
(-0.0491255 0.0471394 1.82803)
(0.0273466 -0.0893731 1.96846)
(0.104527 0.15632 2.09518)
(0.0913035 0.12442 2.09721)
(0.0669477 -0.056927 2.17578)
(0.0906744 -0.0371589 2.10654)
(0.0898744 -0.122017 2.00796)
(0.110489 0.0546942 2.28253)
(0.10993 0.0225968 2.16166)
(0.115114 -0.0669312 1.73814)
(-0.216141 -0.0429997 1.32139)
(-0.376958 0.363047 1.41734)
(-0.323187 0.10282 1.23216)
(-0.101507 -0.12101 1.18929)
(-0.0708391 -0.110263 1.62096)
(0.0310255 0.428791 1.04387)
(0.104326 0.0165387 0.866089)
(0.0800976 -0.167791 1.22354)
(-0.0624061 -0.10455 1.59368)
(0.0062201 -0.123022 2.04957)
(0.074354 0.0495471 0.768898)
(0.0440918 0.134059 0.750074)
(0.138741 -0.0260317 1.353)
(-0.0701768 -0.0560017 1.7666)
(-0.0520566 0.0230565 1.78384)
(0.00796219 -0.0996809 1.94118)
(0.0924432 0.129286 2.15771)
(0.0462816 0.0747859 2.14034)
(0.00409255 -0.148606 2.18713)
(0.0731236 -0.0584892 2.13745)
(0.0926585 -0.126426 2.02819)
(0.0538362 0.0207395 2.33235)
(0.0201242 0.0213969 2.17078)
(0.148351 -0.0875139 1.61972)
(-0.214647 -0.0569693 1.29278)
(-0.385537 0.365663 1.35089)
(-0.342052 0.0847808 1.10653)
(-0.157409 -0.168537 1.16759)
(-0.110196 -0.126058 1.66142)
(0.0061596 0.472273 1.16083)
(0.102787 -0.00768802 0.913834)
(0.0317325 -0.211971 1.25473)
(-0.10263 -0.137067 1.57802)
(-0.0221234 -0.132587 2.06931)
(0.0232462 0.0280775 0.597742)
(0.0701388 0.123456 0.694103)