/*--------------------------------*- C++ -*----------------------------------*\
| =========                 |                                                 |
| \\      /  F ield         | OpenFOAM: The Open Source CFD Toolbox           |
|  \\    /   O peration     | Version:  5.x                                   |
|   \\  /    A nd           | Web:      www.OpenFOAM.org                      |
|    \\/     M anipulation  |                                                 |
\*---------------------------------------------------------------------------*/
FoamFile
{
    version     2.0;
    format      ascii;
    class       volVectorField;
    location    "1";
    object      Us;
}
// * * * * * * * * * * * * * * * * * * * * * * * * * * * * * * * * * * * * * //

dimensions      [0 1 -1 0 0 0 0];

internalField   nonuniform List<vector> 
10571
(
(0 0 0)
(0.0835825 -0.060517 -0.090466)
(0.138875 -0.120407 0.0510451)
(-0.281319 -0.0210298 0.0431762)
(-0.143656 -0.00499353 -0.0672414)
(0.0347059 -0.063516 0.00111864)
(0.177675 -0.0364025 0.0207397)
(-0.411491 0.0196594 0.171472)
(-0.261893 0.109287 0.0509053)
(-0.0492245 0.023293 -0.00605029)
(-0.0289268 -0.172566 0.00343095)
(-0.0102235 -0.199541 -0.0203831)
(-0.0850553 -0.280818 0.0682237)
(-0.185559 0.0587135 0.140449)
(-0.304951 0.118099 0.149198)
(-0.0441717 0.13422 0.0630381)
(-0.00834874 -0.105815 -0.125454)
(-0.126706 -0.286105 0.0250729)
(-0.248543 -0.13726 0.088531)
(-0.229025 0.046542 0.0639669)
(-0.0389745 0.0370392 -0.0257975)
(0.0288932 -0.0272691 -0.0869684)
(-0.024138 -0.068161 -0.111458)
(-0.0615302 0.0132002 -0.121147)
(0.0608488 0.0257559 -0.0808685)
(0.125255 -0.124572 -0.18775)
(-0.034949 0.0140964 0.049554)
(0.0422598 0.161583 0.030498)
(0.113053 0.14551 -0.140336)
(0.235172 -0.144792 -0.112788)
(0.150264 -0.244835 0.158737)
(0.0450293 -0.0499423 0.212817)
(-0.0352941 0.025239 0.0731652)
(-0.0617784 -0.0793751 -0.138325)
(0 0 0)
(0.114483 -0.05846 -0.114067)
(0.0445426 -0.200481 0.125983)
(-0.0520055 -0.0302193 0.273367)
(-0.0428828 0.0570344 0.170919)
(-0.0192675 -0.0867512 0.0751083)
(0.0867257 0.0637118 -0.200487)
(0.135103 0.0221099 0.0953969)
(0.001754 -0.0625251 0.140823)
(-0.0266304 0.118695 0.0860445)
(0.0112023 -0.0211832 -0.0288946)
(0.110714 0.0165347 -0.0600209)
(-0.0928594 -0.033505 -0.0839719)
(-0.110685 0.0931608 -0.0936122)
(0.13891 0.0331773 -0.11646)
(0.0592032 -0.0677211 -0.081336)
(-0.00602748 0.055111 0.189713)
(0.138506 0.176241 0.136594)
(0.320918 0.161929 -0.227812)
(0.113352 -0.0153762 -0.0410475)
(0.223039 -0.0484638 0.189716)
(0.265131 -0.168205 0.300388)
(0.257602 0.0618961 0.19142)
(0.0505342 -0.0675341 -0.191429)
(0.0274253 0.0817984 0.0381339)
(0.232881 0.0795434 0.0712516)
(0.0445422 0.10697 0.00379065)
(0.161972 -0.0443294 0.118274)
(0.154996 -0.0250434 0.116779)
(0.0344465 -0.213024 -0.0767765)
(0.0548908 0.026027 -0.212252)
(0.0781491 0.104841 0.0975841)
(0.0507758 0.033574 0.117333)
(0.0859551 0.0863415 0.064696)
(0.046123 -0.0403868 -0.02815)
(0.0704568 0.0393887 -0.0106899)
(-0.00796513 0.0348394 0.0188754)
(-0.0632829 0.0548124 -0.0295529)
(0.143668 0.0355994 -0.114218)
(-0.00550211 0.0230523 0.015401)
(0.0208903 0.127699 0.243535)
(0.19457 0.143493 0.274119)
(0.367755 0.0970615 0.0446355)
(-0.114174 0.0733349 0.038018)
(0.116418 0.140824 0.184545)
(0.260021 0.142726 0.186085)
(0.373669 0.0640937 0.153843)
(0.205142 0.011768 0.0287714)
(-0.0106689 0.0417217 0.0239905)
(-0.0199596 0.188492 0.188334)
(0.0452846 0.231466 0.0145926)
(0.0689178 0.115683 0.0331993)
(0.11698 -0.0139399 0.0595068)
(0.126501 -0.136993 -0.0660324)
(-0.0437073 0.121829 -0.0308106)
(0.0189002 0.0415193 0.168044)
(-0.0360373 0.0282305 0.132318)
(0.0198607 0.0216125 0.0517238)
(0.0261954 -0.0265599 -0.00952517)
(0.0199899 0.00470496 0.013122)
(-0.0240143 0.0137044 0.108293)
(-0.0152865 0.0120054 -0.00345735)
(0.194341 0.0428295 0.038449)
(-0.0903727 0.067559 0.0269308)
(0.00278496 0.17382 0.315241)
(0.283961 0.176312 0.342843)
(0.418286 -0.0430145 0.217476)
(-0.115597 0.167155 -0.00626184)
(0.0608582 0.203119 0.242088)
(0.183042 0.162038 0.226199)
(0.200327 0.026147 0.0788467)
(0.144153 -0.0122456 -0.0149565)
(0.0344465 0.0296692 -0.460564)
(-0.106904 0.158256 0.131646)
(0.0353975 0.23579 -0.0426397)
(0.0332535 0.161908 0.0416836)
(-0.0202424 -0.0490967 0.00736133)
(0.0622162 -0.0643608 0.00692953)
(-0.0368551 0.160266 -0.180118)
(-0.00238347 -0.0482574 -0.0560929)
(-0.119725 -0.0535237 0.1113)
(-0.0882747 -0.0591663 -0.016834)
(0.0129244 -0.0326637 -0.0318367)
(0.0352433 -0.0467514 -0.191071)
(-0.0720016 -0.0216659 0.0922118)
(-0.00740993 -0.0130831 -0.0385529)
(0.23474 0.00816202 0.222036)
(-0.143576 0.0515436 0.0349076)
(-0.0446134 0.0963306 0.34377)
(0.261934 0.0328969 0.382654)
(0.190351 -0.00125876 0.105227)
(0.0890695 -0.0915051 -0.555212)
(0.0163988 0.209629 0.339841)
(0.184465 0.162537 0.351005)
(0.0378644 0.00615332 -0.266567)
(-0.0417892 0.042277 -0.143019)
(-0.00796633 0.00495241 -0.00379333)
(-0.00690286 0.0417354 -0.468249)
(-0.0229486 -0.0195056 -0.22583)
(0.0819961 -0.0657953 -0.198239)
(0.0451086 -0.0520552 -0.330172)
(0.0783992 -0.102763 -0.598937)
(-0.0966822 -0.0937208 -0.135179)
(-0.00794808 -0.00257597 -0.00301768)
(0.0135021 0.0301966 -0.422144)
(0.0720918 -0.088627 -0.263446)
(0.043328 -0.0438216 -0.258315)
(-0.0238624 -0.0336162 -0.319158)
(0.0135423 -0.100978 -0.244589)
(-0.0128578 -0.026221 -0.426396)
(0.0660872 -0.0309592 -0.410368)
(0.0661105 -0.0584701 -0.42182)
(0.174403 -0.0875429 0.377414)
(0 0 0)
(-0.0704585 0.0659599 0.410345)
(0.181509 0.0714547 0.415948)
(-0.00484914 -0.0441599 -0.00200943)
(0.0163578 -0.0699075 -0.368009)
(0.035433 0.053399 -0.432557)
(0.0595666 -0.0958551 -0.646645)
(0.0174277 -0.00837352 -0.535494)
(0.0316009 -0.00271562 -0.246773)
(-0.0161336 0.00290938 -0.00576515)
(0.0295761 0.0459412 -0.383483)
(0.00708413 0.0116811 -0.321782)
(0.0473097 -0.0691129 -0.246871)
(0.0680694 -0.05719 -0.137215)
(0.143233 -0.0890469 -0.442337)
(0.027975 -0.105367 -0.760995)
(-0.0224508 -0.00350724 -0.0130741)
(-0.0429894 0.0222696 -0.454666)
(0.023322 -0.0781098 -0.172808)
(0.0577345 -0.0315013 -0.173273)
(0.0367153 -0.0489693 -0.335249)
(0.0970516 -0.0723625 -0.657951)
(-0.0205097 -0.00764468 -0.0140276)
(0.00982229 -0.0172289 -0.439943)
(0.0540114 -0.019412 -0.408011)
(0.0737958 -0.0411133 -0.435444)
(0 0 0)
(0 0 0)
(0 0 0)
(0 0 0)
(0 0 0)
(0.0146505 -0.0411546 -0.681934)
(0.036301 -0.238208 -0.130674)
(0.0613717 -0.142572 -0.186637)
(-0.0241772 -0.0504704 -0.732855)
(-0.0933182 -0.0894191 -0.841247)
(0 0 0)
(0 0 0)
(-0.0420627 -0.0108544 -0.238345)
(0.0303284 -0.0777023 -0.227806)
(0.10387 -0.0668086 -0.16788)
(0.105176 -0.055891 -0.537344)
(0 0 0)
(0 0 0)
(-0.0152037 -0.0193944 -0.831961)
(0.0270676 -0.0657691 -0.114402)
(0.0420665 -0.0233415 -0.144092)
(0.0696801 -0.0728455 -0.256424)
(0.0996573 -0.0347999 -0.719342)
(0 0 0)
(0.0100818 -0.0234162 -0.373625)
(0.0552902 -0.0243579 -0.362115)
(0.0564827 -0.0341006 -0.397998)
(0 0 0)
(0 0 0)
(0 0 0)
(0 0 0)
(0 0 0)
(0 0 0)
(0.0478538 -0.141891 -0.486039)
(0 0 0)
(0 0 0)
(0 0 0)
(0 0 0)
(0 0 0)
(0.0241554 0.0306904 -0.367799)
(0.0173527 -0.106769 -0.116518)
(0.0686346 -0.0704065 -0.118973)
(0.0938776 -0.0886227 -0.584671)
(0.112396 -0.0121545 -1.03682)
(0 0 0)
(0 0 0)
(0.0144523 -0.0406018 -0.0789281)
(0.0538378 -0.00541554 -0.113215)
(0.111471 -0.0386093 -0.179186)
(0 0 0)
(0.00122759 -0.0516522 -0.264892)
(0.0778448 -0.0359493 -0.283209)
(0.033558 -0.0510647 -0.16545)
(0 0 0)
(0 0 0)
(0 0 0)
(0 0 0)
(0 0 0)
(0 0 0)
(0 0 0)
(0 0 0)
(0 0 0)
(0 0 0)
(0 0 0)
(0.0106528 0.0226469 -0.293028)
(0.00535374 -0.0621476 -0.387948)
(0.0500471 -0.0598737 -0.100546)
(0.0594215 -0.0662587 -0.731158)
(0.0163247 -0.109099 -0.905289)
(0.0193255 0.0899631 -0.430817)
(0.00465535 -0.0105606 -0.0884571)
(0.0557006 -0.00327162 -0.122789)
(0.0465261 -0.0279991 -0.919398)
(0 0 0)
(0.00320283 0.0391168 -0.15538)
(0.0383821 0.0270906 -0.242751)
(0.0785861 -0.0106738 -0.486958)
(0 0 0)
(0.0950244 -0.0199954 -0.948358)
(0.0348891 -0.052845 -1.09869)
(0 0 0)
(0 0 0)
(0 0 0)
(0.0763851 -0.0182342 -0.898328)
(0 0 0)
(0 0 0)
(0 0 0)
(0 0 0)
(0 0 0)
(0.0472688 -0.00138979 -0.761977)
(0.0889185 0.001771 -0.957812)
(0.0286524 -0.0760924 -0.820614)
(-4.56962e-17 7.77059e-17 8.46458e-16)
(0.0465209 0.0243813 -0.788304)
(-0.00101028 -0.0125944 -0.669965)
(0.0735119 -0.0188069 -0.265416)
(0.0661639 -0.0474515 -0.681687)
(0.0299128 -0.057683 -0.952534)
(0 0 0)
(0.0793298 0.0192733 -0.655113)
(0 0 0)
(0 0 0)
(0 0 0)
(0 0 0)
(0 0 0)
(0 0 0)
(0 0 0)
(0 0 0)
(0 0 0)
(0.112105 -0.0290362 -0.942639)
(0 0 0)
(0 0 0)
(0 0 0)
(0.0217933 -0.00869687 -0.914443)
(0 0 0)
(0 0 0)
(-4.32878e-17 1.09068e-16 6.7262e-16)
(0 0 0)
(2.70497e-17 2.27968e-17 6.48312e-16)
(-0.00148805 -0.0260468 -0.726965)
(0.0621122 -0.0178536 -0.9166)
(0.0661547 -0.0323462 -0.820404)
(0 0 0)
(0.0215568 -0.0459056 -0.821101)
(0 0 0)
(0 0 0)
(0 0 0)
(0 0 0)
(0 0 0)
(0 0 0)
(0 0 0)
(0.0397131 -0.0242984 -0.932282)
(0 0 0)
(0 0 0)
(0.0444571 -0.127118 -0.91399)
(0 0 0)
(0 0 0)
(0.0279307 -0.0100897 -0.84456)
(0 0 0)
(0.102916 -0.0209384 -0.781023)
(0 0 0)
(-0.0182839 -0.0120138 -0.734765)
(0 0 0)
(0.0694136 -0.0258932 -0.655398)
(0 0 0)
(0 0 0)
(0 0 0)
(0.0246494 0.00972313 -0.799616)
(0 0 0)
(0 0 0)
(0 0 0)
(0 0 0)
(0 0 0)
(0 0 0)
(0.0232321 -0.0432395 -0.886666)
(0 0 0)
(0 0 0)
(0 0 0)
(0 0 0)
(-0.00815994 -0.0129294 -0.721643)
(0 0 0)
(0.0230116 -0.0436209 -0.689043)
(0 0 0)
(0.0943197 0.00732958 -0.928167)
(-7.831e-17 5.43183e-17 8.89814e-16)
(0 0 0)
(0.00720671 -0.00457057 -0.767509)
(0 0 0)
(0 0 0)
(0 0 0)
(0 0 0)
(0 0 0)
(0 0 0)
(0 0 0)
(0 0 0)
(0 0 0)
(0 0 0)
(0 0 0)
(0 0 0)
(0.0216702 -0.0230483 -0.912063)
(0 0 0)
(0 0 0)
(0 0 0)
(0 0 0)
(-0.0138537 -0.0022384 -0.686189)
(0.0167168 -0.00713039 -0.772747)
(0 0 0)
(0 0 0)
(0 0 0)
(0 0 0)
(0.0031067 -0.0307093 -0.581344)
(0.0475596 -0.0416141 -0.709416)
(0.0288439 -0.0640378 -0.837962)
(0 0 0)
(0 0 0)
(0 0 0)
(0 0 0)
(0 0 0)
(0 0 0)
(0 0 0)
(0 0 0)
(0 0 0)
(0 0 0)
(0 0 0)
(0 0 0)
(0 0 0)
(0 0 0)
(0 0 0)
(0 0 0)
(0 0 0)
(0 0 0)
(0.0577956 -0.068534 -0.693357)
(0 0 0)
(0 0 0)
(0 0 0)
(0.0343092 0.0128739 -0.697929)
(0.0359634 -0.0358825 -0.811299)
(0.0541064 -0.0533552 -0.875213)
(0 0 0)
(0.0362307 0.0414378 -0.811773)
(0.0688509 -0.04098 -0.763909)
(0 0 0)
(0.0351016 -0.0964965 -0.880047)
(0 0 0)
(0 0 0)
(0 0 0)
(0 0 0)
(0 0 0)
(0 0 0)
(0 0 0)
(0 0 0)
(0 0 0)
(0 0 0)
(0 0 0)
(0 0 0)
(0.0343195 -0.0757617 -0.824287)
(0 0 0)
(0 0 0)
(0.00975338 -0.0026786 -0.737246)
(0.0669682 -0.0401237 -0.628889)
(0 0 0)
(0.0228054 -0.1046 -0.774504)
(0 0 0)
(0 0 0)
(0 0 0)
(0 0 0)
(0 0 0)
(0 0 0)
(0 0 0)
(0 0 0)
(0 0 0)
(0 0 0)
(0 0 0)
(0 0 0)
(0 0 0)
(0 0 0)
(0.027556 -0.0504053 -0.626555)
(0 0 0)
(0.0627169 -0.000277491 -0.812414)
(0 0 0)
(0 0 0)
(0 0 0)
(0 0 0)
(0.0451276 -0.0230846 -0.646034)
(0 0 0)
(0 0 0)
(0 0 0)
(0.0114081 -0.0335891 -0.68228)
(1.23054e-18 5.94291e-17 6.93021e-16)
(0 0 0)
(0.0221919 -0.0975845 -0.828451)
(0 0 0)
(0 0 0)
(0 0 0)
(0.0347501 -0.043423 -0.805561)
(0 0 0)
(0 0 0)
(0 0 0)
(0 0 0)
(0 0 0)
(0 0 0)
(0 0 0)
(0 0 0)
(0 0 0)
(0 0 0)
(0 0 0)
(0.00209306 -0.00423289 -0.716484)
(0.0392375 0.00309428 -0.64732)
(-3.48677e-17 6.23123e-17 6.07574e-16)
(0.0743914 -0.0831768 -0.761829)
(4.03288e-21 7.40987e-18 6.10152e-16)
(0.0492372 -0.000814397 -0.710364)
(0.0669843 -0.0260901 -0.706182)
(0 0 0)
(0 0 0)
(0 0 0)
(0 0 0)
(0 0 0)
(0 0 0)
(0 0 0)
(0 0 0)
(0 0 0)
(0 0 0)
(0 0 0)
(0 0 0)
(0 0 0)
(0.041104 0.00632398 -0.73081)
(0 0 0)
(0 0 0)
(0 0 0)
(0.000913551 -0.00991147 -0.682645)
(0.0393988 0.00267239 -0.730369)
(-3.54105e-17 6.20325e-17 5.72549e-16)
(0 0 0)
(0 0 0)
(0.0580077 -0.0312674 -0.618039)
(0.0722037 -0.0511823 -0.707468)
(0 0 0)
(0 0 0)
(0 0 0)
(0 0 0)
(0 0 0)
(0 0 0)
(0 0 0)
(0 0 0)
(0 0 0)
(0 0 0)
(-0.00206269 -0.0183444 -0.5785)
(0 0 0)
(0.0116786 -0.00554332 -0.551386)
(-3.68588e-17 -5.32904e-18 6.44011e-16)
(0 0 0)
(0 0 0)
(0 0 0)
(0.00088622 -0.00389418 -0.58007)
(-3.68588e-17 -5.32904e-18 6.44011e-16)
(0.0418961 -0.0558442 -0.660477)
(0 0 0)
(0 0 0)
(0 0 0)
(-5.82909e-17 1.36626e-17 6.95731e-16)
(0 0 0)
(0.023892 -0.0961266 -0.76521)
(0 0 0)
(0 0 0)
(0 0 0)
(0 0 0)
(0 0 0)
(0 0 0)
(0 0 0)
(0 0 0)
(0 0 0)
(0 0 0)
(0 0 0)
(0 0 0)
(0 0 0)
(0 0 0)
(0 0 0)
(0.0160264 -0.00200549 -0.607865)
(0 0 0)
(0 0 0)
(0 0 0)
(0 0 0)
(0.0378059 0.0233242 -0.617576)
(0.0358864 -0.0323547 -0.765979)
(0 0 0)
(0 0 0)
(0 0 0)
(0 0 0)
(0 0 0)
(0 0 0)
(0 0 0)
(0 0 0)
(0 0 0)
(0 0 0)
(0 0 0)
(0 0 0)
(0 0 0)
(0 0 0)
(0 0 0)
(0 0 0)
(-0.0261382 0.0148497 -0.58893)
(0.0183948 -0.00367066 -0.522768)
(0.0463775 -0.0304055 -0.680389)
(0.0969955 -0.0193545 -0.633186)
(0 0 0)
(0 0 0)
(0 0 0)
(-5.54153e-17 4.36815e-17 6.09881e-16)
(0 0 0)
(0 0 0)
(0 0 0)
(0 0 0)
(0 0 0)
(0 0 0)
(0 0 0)
(0 0 0)
(0 0 0)
(0 0 0)
(0 0 0)
(4.63881e-18 4.18004e-18 5.96024e-16)
(0.0381859 -0.00805902 -0.759972)
(0 0 0)
(0 0 0)
(0 0 0)
(-0.0248031 -0.0120309 -0.522645)
(0 0 0)
(0 0 0)
(0 0 0)
(0 0 0)
(0 0 0)
(0.0354514 -0.0353717 -0.615637)
(0 0 0)
(0 0 0)
(0 0 0)
(0 0 0)
(0 0 0)
(0 0 0)
(0 0 0)
(0 0 0)
(0 0 0)
(0 0 0)
(0 0 0)
(0 0 0)
(-0.00405346 -0.00529777 -0.63862)
(0 0 0)
(0.0650139 -0.025364 -0.672988)
(0 0 0)
(0 0 0)
(0 0 0)
(0 0 0)
(0.0312998 -0.00235588 -0.624927)
(0 0 0)
(0 0 0)
(0 0 0)
(0 0 0)
(-6.84414e-17 4.06884e-17 5.50163e-16)
(0 0 0)
(0.0660351 -0.0826593 -0.700929)
(0 0 0)
(0 0 0)
(0 0 0)
(0 0 0)
(0 0 0)
(0 0 0)
(0 0 0)
(0 0 0)
(0 0 0)
(0 0 0)
(0 0 0)
(0 0 0)
(0 0 0)
(0 0 0)
(-0.0164374 -0.0274888 -0.436493)
(0.0105462 0.00446555 -0.573732)
(0.0496193 0.00203794 -0.576317)
(0 0 0)
(0 0 0)
(0 0 0)
(0.0574323 -0.00472861 -0.628262)
(-7.54368e-17 3.03446e-17 5.63769e-16)
(0 0 0)
(0.0747658 -0.0699921 -0.668159)
(0 0 0)
(0 0 0)
(0 0 0)
(0 0 0)
(0 0 0)
(0 0 0)
(0 0 0)
(0 0 0)
(0 0 0)
(0 0 0)
(0 0 0)
(0 0 0)
(0 0 0)
(0 0 0)
(0 0 0)
(0 0 0)
(0 0 0)
(0 0 0)
(0 0 0)
(0 0 0)
(0 0 0)
(0 0 0)
(0 0 0)
(0 0 0)
(0 0 0)
(0 0 0)
(0 0 0)
(0 0 0)
(0 0 0)
(0 0 0)
(0 0 0)
(0 0 0)
(0 0 0)
(0 0 0)
(0 0 0)
(0 0 0)
(0 0 0)
(0 0 0)
(0 0 0)
(0.0290802 -0.000405231 -0.560433)
(0 0 0)
(0 0 0)
(0 0 0)
(-2.20214e-17 -2.65078e-17 3.98985e-16)
(0.06936 -0.0292626 -0.519687)
(0 0 0)
(0 0 0)
(0 0 0)
(0 0 0)
(0 0 0)
(0 0 0)
(0 0 0)
(0 0 0)
(0 0 0)
(0 0 0)
(0 0 0)
(0 0 0)
(0 0 0)
(0 0 0)
(0 0 0)
(0 0 0)
(0 0 0)
(0 0 0)
(0.0388438 -0.00906613 -0.602582)
(0 0 0)
(0 0 0)
(0 0 0)
(0.0346949 -0.00439821 -0.472673)
(0.0419419 -0.0192282 -0.591142)
(0 0 0)
(0 0 0)
(0 0 0)
(0 0 0)
(0 0 0)
(0 0 0)
(0 0 0)
(0 0 0)
(0 0 0)
(0 0 0)
(0 0 0)
(0 0 0)
(0 0 0)
(0 0 0)
(0 0 0)
(0 0 0)
(0 0 0)
(0 0 0)
(0.0189308 0.00738295 -0.525516)
(0 0 0)
(0 0 0)
(0 0 0)
(0 0 0)
(0 0 0)
(0 0 0)
(0 0 0)
(0 0 0)
(0 0 0)
(0 0 0)
(0 0 0)
(0 0 0)
(0 0 0)
(0 0 0)
(0 0 0)
(0 0 0)
(0 0 0)
(0 0 0)
(0 0 0)
(0 0 0)
(0 0 0)
(0 0 0)
(0 0 0)
(0.0208201 -0.00468223 -0.480703)
(0 0 0)
(0 0 0)
(0 0 0)
(0.0232471 -0.00215649 -0.442672)
(0 0 0)
(0 0 0)
(0 0 0)
(0 0 0)
(0 0 0)
(0 0 0)
(0 0 0)
(0 0 0)
(0 0 0)
(0 0 0)
(0 0 0)
(0 0 0)
(0 0 0)
(0 0 0)
(0 0 0)
(0 0 0)
(0 0 0)
(0 0 0)
(0 0 0)
(0 0 0)
(0 0 0)
(0 0 0)
(0 0 0)
(0 0 0)
(0 0 0)
(0 0 0)
(0 0 0)
(0 0 0)
(0 0 0)
(0 0 0)
(0 0 0)
(0 0 0)
(0 0 0)
(0 0 0)
(0 0 0)
(0 0 0)
(-7.84079e-18 4.71941e-17 4.13569e-16)
(0 0 0)
(0 0 0)
(0 0 0)
(0 0 0)
(0 0 0)
(0 0 0)
(0 0 0)
(0 0 0)
(0 0 0)
(0 0 0)
(0 0 0)
(0 0 0)
(0 0 0)
(0 0 0)
(0 0 0)
(0 0 0)
(0 0 0)
(0 0 0)
(0 0 0)
(0 0 0)
(0 0 0)
(0 0 0)
(0 0 0)
(0 0 0)
(0.01055 -0.0267896 -0.591187)
(0 0 0)
(0 0 0)
(0 0 0)
(0 0 0)
(0 0 0)
(0 0 0)
(0 0 0)
(0 0 0)
(0 0 0)
(0 0 0)
(0 0 0)
(0 0 0)
(0 0 0)
(0 0 0)
(0 0 0)
(0 0 0)
(0 0 0)
(0 0 0)
(0 0 0)
(0 0 0)
(0 0 0)
(0 0 0)
(0 0 0)
(0 0 0)
(0 0 0)
(0 0 0)
(0 0 0)
(0 0 0)
(0 0 0)
(0 0 0)
(0 0 0)
(0 0 0)
(0 0 0)
(0 0 0)
(0 0 0)
(0 0 0)
(0 0 0)
(0 0 0)
(0 0 0)
(0 0 0)
(0 0 0)
(0 0 0)
(0 0 0)
(0 0 0)
(0 0 0)
(0 0 0)
(0 0 0)
(0 0 0)
(0 0 0)
(0 0 0)
(0 0 0)
(0 0 0)
(0 0 0)
(0 0 0)
(0 0 0)
(0 0 0)
(0 0 0)
(0 0 0)
(0 0 0)
(0 0 0)
(0 0 0)
(0 0 0)
(0 0 0)
(0 0 0)
(0 0 0)
(0 0 0)
(0 0 0)
(0 0 0)
(0 0 0)
(0 0 0)
(0 0 0)
(0 0 0)
(0 0 0)
(0 0 0)
(0 0 0)
(0 0 0)
(0 0 0)
(0 0 0)
(0 0 0)
(0 0 0)
(0 0 0)
(0 0 0)
(0 0 0)
(0 0 0)
(0 0 0)
(0 0 0)
(0 0 0)
(0 0 0)
(0 0 0)
(0 0 0)
(0 0 0)
(0 0 0)
(0 0 0)
(0 0 0)
(0 0 0)
(0 0 0)
(0 0 0)
(0 0 0)
(0 0 0)
(0 0 0)
(0 0 0)
(0 0 0)
(0 0 0)
(0 0 0)
(0 0 0)
(0 0 0)
(0 0 0)
(0 0 0)
(0 0 0)
(0 0 0)
(0 0 0)
(0 0 0)
(0 0 0)
(0 0 0)
(0 0 0)
(0 0 0)
(0 0 0)
(0 0 0)
(0 0 0)
(0 0 0)
(0 0 0)
(0 0 0)
(0 0 0)
(0 0 0)
(0 0 0)
(0 0 0)
(0 0 0)
(0 0 0)
(0 0 0)
(0 0 0)
(0 0 0)
(0 0 0)
(0 0 0)
(0 0 0)
(0 0 0)
(0 0 0)
(0 0 0)
(0 0 0)
(0 0 0)
(0 0 0)
(0 0 0)
(0 0 0)
(0 0 0)
(0 0 0)
(0 0 0)
(0 0 0)
(0 0 0)
(0 0 0)
(0 0 0)
(0 0 0)
(0 0 0)
(0 0 0)
(0 0 0)
(0 0 0)
(0 0 0)
(0 0 0)
(0 0 0)
(0 0 0)
(0 0 0)
(0 0 0)
(0 0 0)
(0 0 0)
(0 0 0)
(0 0 0)
(0 0 0)
(0 0 0)
(0 0 0)
(0 0 0)
(0 0 0)
(0 0 0)
(0 0 0)
(0 0 0)
(0 0 0)
(0 0 0)
(0 0 0)
(0 0 0)
(0 0 0)
(0 0 0)
(0 0 0)
(0 0 0)
(0 0 0)
(0 0 0)
(0 0 0)
(0 0 0)
(0 0 0)
(0 0 0)
(0 0 0)
(0 0 0)
(0 0 0)
(0 0 0)
(0 0 0)
(0 0 0)
(0 0 0)
(0 0 0)
(0 0 0)
(0 0 0)
(0 0 0)
(0 0 0)
(0 0 0)
(0 0 0)
(0 0 0)
(0 0 0)
(0 0 0)
(0 0 0)
(0 0 0)
(0 0 0)
(0 0 0)
(0 0 0)
(0 0 0)
(0 0 0)
(0 0 0)
(0 0 0)
(0 0 0)
(0 0 0)
(0 0 0)
(0 0 0)
(0 0 0)
(0 0 0)
(0 0 0)
(0 0 0)
(0 0 0)
(0 0 0)
(0 0 0)
(0 0 0)
(0 0 0)
(0 0 0)
(0 0 0)
(0 0 0)
(0 0 0)
(0 0 0)
(0 0 0)
(0 0 0)
(0 0 0)
(0 0 0)
(0 0 0)
(0 0 0)
(0 0 0)
(0 0 0)
(0 0 0)
(0 0 0)
(0 0 0)
(0 0 0)
(0 0 0)
(0 0 0)
(0 0 0)
(0 0 0)
(0 0 0)
(0 0 0)
(0 0 0)
(0 0 0)
(0 0 0)
(0 0 0)
(0 0 0)
(0 0 0)
(0 0 0)
(0 0 0)
(0 0 0)
(0 0 0)
(0 0 0)
(0 0 0)
(0 0 0)
(0 0 0)
(0 0 0)
(0 0 0)
(0 0 0)
(0 0 0)
(0 0 0)
(0 0 0)
(0 0 0)
(0 0 0)
(0 0 0)
(0 0 0)
(0 0 0)
(0 0 0)
(0 0 0)
(0 0 0)
(0 0 0)
(0 0 0)
(0 0 0)
(0 0 0)
(0 0 0)
(0 0 0)
(0 0 0)
(0 0 0)
(0 0 0)
(0 0 0)
(0 0 0)
(0 0 0)
(0 0 0)
(0 0 0)
(0 0 0)
(0 0 0)
(0 0 0)
(0 0 0)
(0 0 0)
(0 0 0)
(0 0 0)
(0 0 0)
(0 0 0)
(0 0 0)
(0 0 0)
(0 0 0)
(0 0 0)
(0 0 0)
(0 0 0)
(0 0 0)
(0 0 0)
(0 0 0)
(0 0 0)
(0 0 0)
(0 0 0)
(0 0 0)
(0 0 0)
(0 0 0)
(0 0 0)
(0 0 0)
(0 0 0)
(0 0 0)
(0 0 0)
(0 0 0)
(0 0 0)
(0 0 0)
(0 0 0)
(0 0 0)
(0 0 0)
(0 0 0)
(0 0 0)
(0 0 0)
(0 0 0)
(0 0 0)
(0 0 0)
(0 0 0)
(0 0 0)
(0 0 0)
(0 0 0)
(0 0 0)
(0 0 0)
(0 0 0)
(0 0 0)
(0 0 0)
(0 0 0)
(0 0 0)
(0 0 0)
(0 0 0)
(0 0 0)
(0 0 0)
(0 0 0)
(0 0 0)
(0 0 0)
(0 0 0)
(0 0 0)
(0 0 0)
(0 0 0)
(0 0 0)
(0 0 0)
(0 0 0)
(0 0 0)
(0 0 0)
(0 0 0)
(0 0 0)
(0 0 0)
(0 0 0)
(0 0 0)
(0 0 0)
(0 0 0)
(0 0 0)
(0 0 0)
(0 0 0)
(0 0 0)
(0 0 0)
(0 0 0)
(0 0 0)
(0 0 0)
(0 0 0)
(0 0 0)
(0 0 0)
(0 0 0)
(0 0 0)
(0 0 0)
(0 0 0)
(0 0 0)
(0 0 0)
(0 0 0)
(0 0 0)
(0 0 0)
(0 0 0)
(0 0 0)
(0 0 0)
(0 0 0)
(0 0 0)
(0 0 0)
(0 0 0)
(0 0 0)
(0 0 0)
(0 0 0)
(0 0 0)
(0 0 0)
(0 0 0)
(0 0 0)
(0 0 0)
(0 0 0)
(0 0 0)
(0 0 0)
(0 0 0)
(0 0 0)
(0 0 0)
(0 0 0)
(0 0 0)
(0 0 0)
(0 0 0)
(0 0 0)
(0 0 0)
(0 0 0)
(0 0 0)
(0 0 0)
(0 0 0)
(0 0 0)
(0 0 0)
(0 0 0)
(0 0 0)
(0 0 0)
(0 0 0)
(0 0 0)
(0 0 0)
(0 0 0)
(0 0 0)
(0 0 0)
(0 0 0)
(0 0 0)
(0 0 0)
(0 0 0)
(0 0 0)
(0 0 0)
(0 0 0)
(0 0 0)
(0 0 0)
(0 0 0)
(0 0 0)
(0 0 0)
(0 0 0)
(0 0 0)
(0 0 0)
(0 0 0)
(0 0 0)
(0 0 0)
(0 0 0)
(0 0 0)
(0 0 0)
(0 0 0)
(0 0 0)
(0 0 0)
(0 0 0)
(0 0 0)
(0 0 0)
(0 0 0)
(0 0 0)
(0 0 0)
(0 0 0)
(0 0 0)
(0 0 0)
(0 0 0)
(0 0 0)
(0 0 0)
(0 0 0)
(0 0 0)
(0 0 0)
(0 0 0)
(0 0 0)
(0 0 0)
(0 0 0)
(0 0 0)
(0 0 0)
(0 0 0)
(0 0 0)
(0 0 0)
(0 0 0)
(0 0 0)
(0 0 0)
(0 0 0)
(0 0 0)
(0 0 0)
(0 0 0)
(0 0 0)
(0 0 0)
(0 0 0)
(0 0 0)
(0 0 0)
(0 0 0)
(0 0 0)
(0 0 0)
(0 0 0)
(0 0 0)
(0 0 0)
(0 0 0)
(0 0 0)
(0 0 0)
(0 0 0)
(0 0 0)
(0 0 0)
(0 0 0)
(0 0 0)
(0 0 0)
(0 0 0)
(0 0 0)
(0 0 0)
(0 0 0)
(0 0 0)
(0 0 0)
(0 0 0)
(0 0 0)
(0 0 0)
(0 0 0)
(0 0 0)
(0 0 0)
(0 0 0)
(0 0 0)
(0 0 0)
(0 0 0)
(0 0 0)
(0 0 0)
(0 0 0)
(0 0 0)
(0 0 0)
(0 0 0)
(0 0 0)
(0 0 0)
(0 0 0)
(0 0 0)
(0 0 0)
(0 0 0)
(0 0 0)
(0 0 0)
(0 0 0)
(0 0 0)
(0 0 0)
(0 0 0)
(0 0 0)
(0 0 0)
(0 0 0)
(0 0 0)
(0 0 0)
(0 0 0)
(0 0 0)
(0 0 0)
(0 0 0)
(0 0 0)
(0 0 0)
(0 0 0)
(0 0 0)
(0 0 0)
(0 0 0)
(0 0 0)
(0 0 0)
(0 0 0)
(0 0 0)
(0 0 0)
(0 0 0)
(0 0 0)
(0 0 0)
(0 0 0)
(0 0 0)
(0 0 0)
(0 0 0)
(0 0 0)
(0 0 0)
(0 0 0)
(0 0 0)
(0 0 0)
(0 0 0)
(0 0 0)
(0 0 0)
(0 0 0)
(0 0 0)
(0 0 0)
(0 0 0)
(0 0 0)
(0 0 0)
(0 0 0)
(0 0 0)
(0 0 0)
(0 0 0)
(0 0 0)
(0 0 0)
(0 0 0)
(0 0 0)
(0 0 0)
(0 0 0)
(0 0 0)
(0 0 0)
(0 0 0)
(0 0 0)
(0 0 0)
(0 0 0)
(0 0 0)
(0 0 0)
(0 0 0)
(0 0 0)
(0 0 0)
(0 0 0)
(0 0 0)
(0 0 0)
(0 0 0)
(0 0 0)
(0 0 0)
(0 0 0)
(0 0 0)
(0 0 0)
(0 0 0)
(0 0 0)
(0 0 0)
(0 0 0)
(0 0 0)
(0 0 0)
(0 0 0)
(0 0 0)
(0 0 0)
(0 0 0)
(0 0 0)
(0 0 0)
(0 0 0)
(0 0 0)
(0 0 0)
(0 0 0)
(0 0 0)
(0 0 0)
(0 0 0)
(0 0 0)
(0 0 0)
(0 0 0)
(0 0 0)
(0 0 0)
(0 0 0)
(0 0 0)
(0 0 0)
(0 0 0)
(0 0 0)
(0 0 0)
(0 0 0)
(0 0 0)
(0 0 0)
(0 0 0)
(0 0 0)
(0 0 0)
(0 0 0)
(0 0 0)
(0 0 0)
(0 0 0)
(0 0 0)
(0 0 0)
(0 0 0)
(0 0 0)
(0 0 0)
(0 0 0)
(0 0 0)
(0 0 0)
(0 0 0)
(0 0 0)
(0 0 0)
(0 0 0)
(0 0 0)
(0 0 0)
(0 0 0)
(0 0 0)
(0 0 0)
(0 0 0)
(0 0 0)
(0 0 0)
(0 0 0)
(0 0 0)
(0 0 0)
(0 0 0)
(0 0 0)
(0 0 0)
(0 0 0)
(0 0 0)
(0 0 0)
(0 0 0)
(0 0 0)
(0 0 0)
(0 0 0)
(0 0 0)
(0 0 0)
(0 0 0)
(0 0 0)
(0 0 0)
(0 0 0)
(0 0 0)
(0 0 0)
(0 0 0)
(0 0 0)
(0 0 0)
(0 0 0)
(0 0 0)
(0 0 0)
(0 0 0)
(0 0 0)
(0 0 0)
(0 0 0)
(0 0 0)
(0 0 0)
(0 0 0)
(0 0 0)
(0 0 0)
(0 0 0)
(0 0 0)
(0 0 0)
(0 0 0)
(0 0 0)
(0 0 0)
(0 0 0)
(0 0 0)
(0 0 0)
(0 0 0)
(0 0 0)
(0 0 0)
(0 0 0)
(0 0 0)
(0 0 0)
(0 0 0)
(0 0 0)
(0 0 0)
(0 0 0)
(0 0 0)
(0 0 0)
(0 0 0)
(0 0 0)
(0 0 0)
(0 0 0)
(0 0 0)
(0 0 0)
(0 0 0)
(0 0 0)
(0 0 0)
(0 0 0)
(0 0 0)
(0 0 0)
(0 0 0)
(0 0 0)
(0 0 0)
(0 0 0)
(0 0 0)
(0 0 0)
(0 0 0)
(0 0 0)
(0 0 0)
(0 0 0)
(0 0 0)
(0 0 0)
(0 0 0)
(0 0 0)
(0 0 0)
(0 0 0)
(0 0 0)
(0 0 0)
(0 0 0)
(0 0 0)
(0 0 0)
(0 0 0)
(0 0 0)
(0 0 0)
(0 0 0)
(0 0 0)
(0 0 0)
(0 0 0)
(0 0 0)
(0 0 0)
(0 0 0)
(0 0 0)
(0 0 0)
(0 0 0)
(0 0 0)
(0 0 0)
(0 0 0)
(0 0 0)
(0 0 0)
(0 0 0)
(0 0 0)
(0 0 0)
(0 0 0)
(0 0 0)
(0 0 0)
(0 0 0)
(0 0 0)
(0 0 0)
(0 0 0)
(0 0 0)
(0 0 0)
(0 0 0)
(0 0 0)
(0 0 0)
(0 0 0)
(0 0 0)
(0 0 0)
(0 0 0)
(0 0 0)
(0 0 0)
(0 0 0)
(0 0 0)
(0 0 0)
(0 0 0)
(0 0 0)
(0 0 0)
(0 0 0)
(0 0 0)
(0 0 0)
(0 0 0)
(0 0 0)
(0 0 0)
(0 0 0)
(0 0 0)
(0 0 0)
(0 0 0)
(0 0 0)
(0 0 0)
(0 0 0)
(0 0 0)
(0 0 0)
(0 0 0)
(0 0 0)
(0 0 0)
(0 0 0)
(0 0 0)
(0 0 0)
(0 0 0)
(0 0 0)
(0 0 0)
(0 0 0)
(0 0 0)
(0 0 0)
(0 0 0)
(0 0 0)
(0 0 0)
(0 0 0)
(0 0 0)
(0 0 0)
(0 0 0)
(0 0 0)
(0 0 0)
(0 0 0)
(0 0 0)
(0 0 0)
(0 0 0)
(0 0 0)
(0 0 0)
(0 0 0)
(0 0 0)
(0 0 0)
(0 0 0)
(0 0 0)
(0 0 0)
(0 0 0)
(0 0 0)
(0 0 0)
(0 0 0)
(0 0 0)
(0 0 0)
(0 0 0)
(0 0 0)
(0 0 0)
(0 0 0)
(0 0 0)
(0 0 0)
(0 0 0)
(0 0 0)
(0 0 0)
(0 0 0)
(0 0 0)
(0 0 0)
(0 0 0)
(0 0 0)
(0 0 0)
(0 0 0)
(0 0 0)
(0 0 0)
(0 0 0)
(0 0 0)
(0 0 0)
(0 0 0)
(0 0 0)
(0 0 0)
(0 0 0)
(0 0 0)
(0 0 0)
(0 0 0)
(0 0 0)
(0 0 0)
(0 0 0)
(0 0 0)
(0 0 0)
(0 0 0)
(0 0 0)
(0 0 0)
(0 0 0)
(0 0 0)
(0 0 0)
(0 0 0)
(0 0 0)
(0 0 0)
(0 0 0)
(0 0 0)
(0 0 0)
(0 0 0)
(0 0 0)
(0 0 0)
(0 0 0)
(0 0 0)
(0 0 0)
(0 0 0)
(0 0 0)
(0 0 0)
(0 0 0)
(0 0 0)
(0 0 0)
(0 0 0)
(0 0 0)
(0 0 0)
(0 0 0)
(0 0 0)
(0 0 0)
(0 0 0)
(0 0 0)
(0 0 0)
(0 0 0)
(0 0 0)
(0 0 0)
(0 0 0)
(0 0 0)
(0 0 0)
(0 0 0)
(0 0 0)
(0 0 0)
(0 0 0)
(0 0 0)
(0 0 0)
(0 0 0)
(0 0 0)
(0 0 0)
(0 0 0)
(0 0 0)
(0 0 0)
(0 0 0)
(0 0 0)
(0 0 0)
(0 0 0)
(0 0 0)
(0 0 0)
(0 0 0)
(0 0 0)
(0 0 0)
(0 0 0)
(0 0 0)
(0 0 0)
(0 0 0)
(0 0 0)
(0 0 0)
(0 0 0)
(0 0 0)
(0 0 0)
(0 0 0)
(0 0 0)
(0 0 0)
(0 0 0)
(0 0 0)
(0 0 0)
(0 0 0)
(0 0 0)
(0 0 0)
(0 0 0)
(0 0 0)
(0 0 0)
(0 0 0)
(0 0 0)
(0 0 0)
(0 0 0)
(0 0 0)
(0 0 0)
(0 0 0)
(0 0 0)
(0 0 0)
(0 0 0)
(0 0 0)
(0 0 0)
(0 0 0)
(0 0 0)
(0 0 0)
(0 0 0)
(0 0 0)
(0 0 0)
(0 0 0)
(0 0 0)
(0 0 0)
(0 0 0)
(0 0 0)
(0 0 0)
(0 0 0)
(0 0 0)
(0 0 0)
(0 0 0)
(0 0 0)
(0 0 0)
(0 0 0)
(0 0 0)
(0 0 0)
(0 0 0)
(0 0 0)
(0.0772524 -0.0827931 0.00686396)
(-0.054608 -0.0293108 0.0208155)
(0.0308718 -0.0541398 0.0159694)
(-0.150228 -0.0436444 0.0286601)
(-0.185196 -0.0616131 0.0195378)
(-0.301747 -0.073567 0.00977877)
(-0.270598 -0.072433 -0.00907404)
(-0.1688 -0.0468325 -0.0341257)
(-0.00952771 0.0225439 -0.00639313)
(0.0828538 -0.0435151 -0.0196715)
(0.13485 -0.0942171 0.00345816)
(0.0242401 -0.0127688 -0.0219891)
(0.156227 -0.0671832 -0.0216837)
(0.0688072 -0.100908 0.0304028)
(-0.230086 -0.0725549 0.0446595)
(0.0937298 -0.0813144 0.0340697)
(-0.158294 -0.0672711 0.0655175)
(-0.411042 -0.0736408 0.0250645)
(-0.350185 -0.0731989 0.02484)
(-0.526793 0.0174962 0.0761144)
(-0.450972 0.0699252 0.0378486)
(-0.207188 -0.0526105 -0.0221591)
(-0.0851392 -0.0107125 -0.0253807)
(-0.276028 0.0470282 -0.0112548)
(-0.144097 -0.00289109 -0.0270228)
(-0.0411588 -0.00724317 -0.0264785)
(-0.0200162 -0.00415388 0.00629235)
(-0.0118673 -0.0587762 0.0075714)
(-0.0244861 -0.0552877 0.0099843)
(-0.0295621 0.0241947 0.0217641)
(0.100829 0.0489484 0.0208059)
(-0.000656493 -0.0273129 0.0120796)
(0.050426 0.00500561 0.000815179)
(0.1358 -0.00305001 0.0394574)
(-0.0408004 -0.0527444 0.0518276)
(0.0715179 0.0357172 0.002051)
(0.0324974 0.00232106 0.0263665)
(-0.353182 -0.0158813 0.0709586)
(-0.45846 0.105881 0.0346251)
(-0.0941463 -0.0244153 0.0235506)
(-0.329856 0.0531813 0.0387356)
(-0.314519 0.100487 -0.00624316)
(-0.186955 0.0311152 -0.0103333)
(-0.341 0.12011 0.022885)
(-0.19216 0.0789737 0.0120861)
(-0.088647 -0.00263918 -0.0251157)
(-0.0582191 0.058777 -0.000247474)
(-0.0246644 0.032522 -0.0217488)
(-0.0081339 -0.0751326 -0.00152132)
(-0.00665245 -0.105317 -0.00699542)
(0.00256983 -0.0963043 -0.0277187)
(0.049528 -0.080484 -0.00139441)
(0.0413169 -0.0364641 0.00282182)
(0.0329593 -0.0788726 -0.00583911)
(0.00746582 -0.135879 0.00255696)
(0.0139522 -0.00237208 -0.00113994)
(-0.00615349 0.00523908 -0.00508357)
(-0.0381877 -0.0941161 -0.00549255)
(-0.101311 -0.0291542 -0.0117957)
(-0.0545921 0.0227048 0.00902521)
(-0.0966158 0.0110047 0.00894547)
(-0.0949687 0.00776058 -0.00690413)
(-0.116946 0.0504249 0.00268453)
(-0.157343 0.0229267 0.019624)
(-0.114214 0.12704 0.0293828)
(-0.178845 0.0807754 0.0246098)
(-0.13012 0.186849 0.012639)
(-0.0567144 0.114699 -0.00190985)
(-0.0212854 0.0643196 -0.023396)
(-0.0772923 0.125021 -0.00649745)
(-0.0113457 -0.0194049 -0.00384487)
(-0.0234581 -0.072609 -0.0121348)
(-0.0245248 -0.128489 -0.0126116)
(-0.0106982 -0.0490457 -0.0475321)
(-0.0237073 -0.0754277 -0.0106101)
(-0.0391815 -0.162683 0.00526981)
(-0.169225 -0.034067 -0.0192416)
(-0.0506462 -0.119741 -0.00415785)
(-0.0684329 -0.139128 -0.0198973)
(-0.162362 -0.00591098 -0.00394115)
(-0.171652 0.0524095 0.00669369)
(-0.108209 -0.055211 -0.000511771)
(-0.10682 -0.00277832 -0.00104146)
(-0.202952 0.0818969 0.00797293)
(-0.137329 0.0627169 -0.0128806)
(-0.124485 -0.0113416 -0.0176159)
(-0.0643758 -0.00723249 -0.023413)
(-0.0731532 0.0703964 -0.0189826)
(-0.0175943 -0.0349972 -0.017488)
(-0.0474971 -0.0659175 -0.0172456)
(-0.0706165 -0.0865819 -0.0205564)
(-0.0371078 -0.0426505 -0.111696)
(-0.0217616 -0.0813734 -0.0592987)
(-0.0409927 -0.0369639 -0.0184093)
(-0.018153 -0.0308474 -0.115258)
(-0.0694886 -0.000375184 -0.0393641)
(0.113774 -0.112499 -0.012572)
(0.0738351 -0.0568204 -0.257626)
(0 0 0)
(-0.143445 -0.0160753 -0.0712842)
(1.30561e-16 -3.74223e-17 1.32826e-17)
(0 0 0)
(-0.111566 0.0101135 -0.0487181)
(-0.0926361 0.0398254 -0.0137964)
(-0.25035 -0.0547934 -0.00268881)
(-0.19401 -0.0450087 -0.0499746)
(-0.0743929 0.0191952 -0.0271082)
(-0.0688331 0.0624709 -0.0545946)
(0.0491879 0.0774188 -0.207031)
(-0.0868277 -0.0317601 -0.100962)
(0.0374652 0.052024 -0.194669)
(0.0218928 -0.019247 -0.0523901)
(0.1235 -0.180887 -0.219469)
(0.150102 -0.0995357 -0.0610868)
(0.0598417 -0.0441748 -0.0586803)
(0.130901 -0.0450155 -0.0943514)
(0.091209 -0.0812353 -0.167521)
(0.0971465 -0.0419267 -0.192582)
(0.116183 -0.101537 -0.118875)
(0.118675 -0.0262114 -0.15802)
(-0.0592944 -0.00230201 -0.0548071)
(-0.210022 0.0602052 0.00133124)
(-0.106647 0.0189851 -0.0171137)
(-0.00643393 0.0870279 -0.124932)
(0.00938434 0.0427525 -0.0872918)
(-0.0999341 0.0974413 -0.0206101)
(-0.0655233 0.0362391 -0.0441253)
(-0.0319934 -0.00929373 -0.0160168)
(-0.0312633 -0.0227094 -0.0644013)
(-0.00733086 -0.0710586 -0.00152629)
(-0.071332 -0.196226 0.0539734)
(-0.0653181 -0.17945 0.0352392)
(0.0966841 -0.110227 -0.149681)
(0 0 0)
(0.0638924 -0.116808 -0.131034)
(-0.0323157 0.100858 0.0241834)
(0.00516485 0.0904496 0.0618754)
(-0.0469522 -0.0188925 -0.0756081)
(-0.0262399 0.0373766 -0.020939)
(-0.0037595 0.0177154 0.0650511)
(-0.0547867 -0.192494 -0.028136)
(-0.0347695 -0.167948 -0.0881541)
(0 0 0)
(0.077448 -0.0579754 -0.155227)
(-0.0174171 -0.0910674 -0.106965)
(-0.0155085 0.0944723 0.0732228)
(-0.0672272 0.103526 0.0399876)
(-0.0315567 0.0378459 0.0895435)
(-0.00802278 0.012932 0.0806128)
(-0.0353529 0.00718867 0.0578989)
(-0.025382 -0.0998656 -0.13995)
(0.0262981 0.0275639 -0.202009)
(-0.036829 -0.202714 -0.0423448)
(0.00298419 -0.0347131 -0.150149)
(-0.00347703 -0.074822 -0.0867519)
(0.0569679 0.0118513 -0.161609)
(0.0618436 -0.0994316 -0.0275514)
(0.0703627 0.0473551 -0.16099)
(0.0955842 0.0155926 -0.0952835)
(-0.113409 0.0334414 -0.0128575)
(-0.0899102 -0.00291864 -0.0510862)
(-0.0459034 0.0109884 -0.084727)
(-0.152182 -0.00719812 0.0867336)
(-0.0421024 0.0109587 -0.0136323)
(-0.0543439 0.0543102 -0.0575706)
(-0.019314 0.0294503 -0.104842)
(-0.00763765 -0.00478781 -0.0232772)
(0.0250451 -0.00492151 -0.127294)
(0.0997085 0.0403879 -0.11236)
(-0.00340378 -0.0834425 -0.0627115)
(-0.00589634 -0.0262534 -0.138594)
(0.108131 0.00638975 -0.0728367)
(0.0684721 -0.0462674 -0.0480951)
(-0.00544574 -0.00851193 -0.120892)
(-0.0754072 -0.0374493 -0.118163)
(-0.0223261 -0.0109162 -0.186803)
(-0.0505558 -0.0480263 -0.105239)
(-0.109181 0.00138138 -0.121588)
(-0.0654746 -0.00122069 -0.172447)
(-0.0950181 0.0618309 -0.136267)
(0.0343925 -0.0170506 -0.0889747)
(0.00201552 0.0185509 0.0304886)
(0 0 0)
(-0.100268 -0.00680178 0.0671592)
(-0.108623 -0.0178006 0.0769548)
(-0.0308874 0.0255253 0.045557)
(-0.0667111 0.00817948 0.144894)
(-0.0660435 0.0148131 0.142553)
(0.0630233 0.0977236 -0.0747676)
(0.189963 0.119614 -0.267436)
(0.116359 0.0367654 -0.10238)
(0.12669 0.106705 -0.0896228)
(0.254601 0.111698 -0.33248)
(0.131468 0.101662 -0.244418)
(0.198564 0.120523 -0.292896)
(0.101228 -0.143046 -0.195649)
(0.052061 -0.0790176 -0.156487)
(0.0986805 -0.0447789 -0.182511)
(0.179599 -0.188285 -0.1654)
(0.141274 -0.037918 -0.169546)