/*--------------------------------*- C++ -*----------------------------------*\
| =========                 |                                                 |
| \\      /  F ield         | OpenFOAM: The Open Source CFD Toolbox           |
|  \\    /   O peration     | Version:  5.x                                   |
|   \\  /    A nd           | Web:      www.OpenFOAM.org                      |
|    \\/     M anipulation  |                                                 |
\*---------------------------------------------------------------------------*/
FoamFile
{
    version     2.0;
    format      ascii;
    class       volScalarField;
    location    "2.3";
    object      voidfraction;
}
// * * * * * * * * * * * * * * * * * * * * * * * * * * * * * * * * * * * * * //

dimensions      [0 0 0 0 0 0 0];

internalField   nonuniform List<scalar> 
10571
(
1
0.614273
0.86359
0.820923
0.740166
0.593741
0.937839
0.845444
0.658624
0.479719
0.452988
0.489961
0.71036
0.764226
0.582587
0.553779
0.492022
0.610605
0.722379
0.57841
0.541408
0.518352
0.479114
0.43339
0.726222
0.992696
0.849381
0.675716
0.993759
0.984237
0.675802
0.755796
0.875508
0.567908
0.652048
0.993327
0.656752
0.712168
0.652738
0.710476
0.433652
0.602476
0.643846
0.598901
0.707432
0.443826
0.429421
0.432636
0.570163
0.995788
0.994315
0.78594
0.993427
0.985138
0.973714
0.967996
0.969568
0.601658
0.79443
0.99967
0.98356
0.984085
0.757828
0.485038
0.588029
0.902716
0.837758
0.576497
0.875706
0.425734
0.606077
0.475955
0.707051
0.998378
0.999026
0.819031
0.993972
0.989033
0.995156
0.992294
0.97296
0.583423
0.859001
0.995963
0.990384
0.996701
0.883826
0.46631
0.714027
0.897761
0.881758
0.694922
0.801517
0.434392
0.549758
0.583477
0.926786
0.996752
0.999022
0.946671
0.996357
0.994869
0.997725
0.990872
0.986384
0.601519
0.951181
0.991926
0.990776
0.997424
0.960624
0.658243
0.731259
0.86861
0.872768
0.717945
0.551636
0.481629
0.506929
0.688959
0.987466
0.901592
0.96582
0.958556
0.967744
0.998176
0.996379
0.969666
0.979628
0.757926
0.397979
0.955575
0.978898
0.992357
0.984401
0.97966
0.798096
0.392519
0.743461
0.842351
0.744291
0.746746
0.505224
0.512208
0.482251
0.700149
0.987138
0.878059
0.972593
0.970197
0.975243
0.990064
0.996483
0.981554
0.95235
0.977914
0.964483
0.949525
0.987686
0.997656
0.988045
0.96866
0.93152
0.824858
0.850047
0.896145
0.926686
0.885588
0.587642
0.602387
0.491131
0.461133
0.519119
0.996812
0.956589
0.984035
0.974879
0.996515
0.981209
0.991054
0.9671
0.97267
0.990431
1
0.935779
0.983016
0.982552
0.971029
0.973803
0.972936
1
0.901592
0.969287
0.969766
0.980922
0.802432
1
0.555258
0.542757
0.488426
0.996372
0.988181
0.978502
0.996479
0.998523
0.974654
0.94162
0.978424
0.992625
0.994598
1
0.9029
0.98119
0.962103
0.981226
0.989164
0.98589
1
0.941203
0.985843
0.994847
0.995651
0.882434
0.677765
0.648413
0.486192
0.996812
0.984486
0.995209
0.995128
1
0.998919
0.967126
0.994652
0.993828
0.993901
0.971739
0.960055
0.971015
0.994544
0.996107
0.998372
0.977656
0.994855
0.998617
0.998958
0.992108
0.770781
0.837015
0.817711
0.997691
0.99888
0.999764
0.995065
0.999129
0.986792
0.990786
0.994242
0.993377
0.994589
0.975369
0.998343
0.998046
0.998913
0.999289
1
0.983131
0.99741
0.999883
1
1
0.974176
0.998249
1
0.994833
0.997984
0.999056
0.997061
0.994714
0.997771
0.996725
0.994375
0.997562
1
0.995602
1
0.999504
0.999512
0.999652
1
0.988815
0.999475
0.999689
1
1
0.995509
0.999124
1
0.995162
0.99664
0.995145
0.996216
0.989516
0.993651
0.99802
0.99716
0.9991
1
0.992963
1
0.999665
0.999431
0.999558
1
0.999128
0.999742
1
1
0.99797
1
1
1
0.988235
0.994792
0.997741
0.997061
0.995974
0.999966
0.999756
0.999643
1
1
0.996811
1
0.999554
1
0.999765
1
0.998827
1
0.999883
1
1
0.998877
1
1
0.99989
0.993448
0.996426
0.994696
0.997657
0.998987
0.999462
0.999658
0.999883
1
0.99967
1
0.999888
1
0.999765
1
0.999128
0.999883
1
0.999032
1
1
1
1
1
0.999944
0.997101
0.998378
1
0.999021
0.999866
1
0.999883
1
1
0.999054
1
0.999888
1
0.999667
1
0.99977
0.999883
1
0.99958
1
1
1
0.997471
0.998152
1
1
1
0.998784
0.999943
0.999889
1
1
1
1
1
0.999779
0.999878
1
1
1
1
1
0.997969
1
1
1
1
0.995296
0.998989
0.99902
1
1
0.999825
1
1
1
0.996812
1
1
0.999772
0.999882
1
0.999098
1
0.999883
1
1
1
1
1
1
0.994456
1
1
1
0.999021
0.999912
1
0.999883
1
1
1
1
1
0.999769
1
1
1
1
1
1
1
1
1
1
1
1
1
1
1
0.999866
1
1
1
1
1
1
0.999888
0.999761
1
0.999128
1
0.999883
0.999032
1
1
1
1
0.997032
1
1
1
1
1
1
1
0.999883
1
1
1
0.999881
1
1
1
1
0.999891
1
0.999967
1
1
1
1
1
1
1
1
0.999429
1
0.999779
0.999889
0.999883
1
1
1
1
1
1
1
1
0.999883
0.999883
1
1
0.998877
1
0.99727
0.998901
1
1
1
1
1
1
1
0.999899
1
1
1
1
0.999775
1
1
1
1
1
1
0.99804
1
1
1
1
1
1
1
1
1
1
1
0.99979
1
1
1
0.999888
0.999888
0.999992
1
0.998317
1
0.999883
1
0.99979
1
1
0.99797
1
1
1
1
1
0.999966
1
1
0.999907
1
0.996812
1
0.999888
1
1
1
1
1
0.999883
1
0.9993
1
1
1
1
1
1
1
1
0.999358
0.999996
0.999889
0.999972
1
1
1
0.999888
1
1
0.999123
1
1
0.999766
1
1
1
1
1
1
1
0.999022
1
1
0.999021
0.999672
0.999881
0.999778
1
1
1
1
0.999775
0.999757
0.999123
1
1
1
1
0.99741
1
1
1
1
1
0.998382
1
1
0.999021
1
1
1
1
1
1
0.999888
0.999888
0.999651
0.999819
1
1
0.999608
1
0.99797
1
0.999698
1
1
1
0.99936
1
1
1
1
1
1
1
1
1
1
0.999888
0.999882
0.998247
0.999128
1
0.999766
1
0.99797
1
1
1
1
1
0.999663
1
1
1
0.999889
1
1
1
1
0.999797
1
1
0.999765
1
1
0.999883
0.999766
1
1
1
1
0.99797
1
1
1
1
1
1
0.999889
1
1
1
0.996702
1
1
1
0.999882
1
1
1
0.999883
0.999032
0.99804
1
1
0.99797
1
1
1
1
1
1
1
1
1
1
1
1
0.999665
0.999775
0.999882
1
1
1
0.999883
0.999032
1
1
1
1
1
1
1
1
1
1
1
1
1
1
1
1
0.999777
1
1
1
1
1
1
1
1
1
1
1
1
1
1
1
1
1
1
1
1
1
1
1
0.999888
1
1
1
0.99982
0.999766
1
1
1
1
1
1
1
1
1
1
1
1
1
1
1
1
1
1
0.999888
0.999888
0.999996
1
1
0.999883
1
1
1
0.998877
0.999124
1
1
1
1
1
1
0.999021
1
1
1
1
1
1
0.999888
0.999888
1
1
1
1
1
1
1
0.99969
1
1
1
1
1
1
1
0.999325
1
1
1
1
1
1
1
1
1
1
0.998286
0.999806
1
1
1
1
0.999819
1
1
1
1
1
1
1
1
1
1
1
1
1
1
1
1
1
1
0.99996
1
1
1
1
1
1
1
1
0.999663
1
1
1
0.999916
1
1
1
0.996921
1
0.999888
1
1
1
1
0.999689
1
1
1
0.999613
1
1
1
1
1
1
1
1
1
1
1
1
0.993622
1
0.999827
1
1
1
0.999128
1
1
1
1
1
1
1
1
1
1
1
1
1
1
1
1
1
1
1
0.999912
1
1
1
1
1
1
1
1
1
1
1
1
1
1
1
1
1
1
1
1
1
1
1
0.999888
1
1
1
1
0.999766
1
1
1
1
1
1
1
0.998376
1
1
1
1
0.999889
1
1
1
1
1
1
1
1
1
1
1
1
1
1
1
1
1
1
1
1
1
1
1
1
1
1
1
0.996812
1
1
1
1
1
1
1
1
1
1
1
1
1
1
1
1
1
1
1
1
1
1
1
1
1
1
1
1
1
1
1
1
1
1
0.999768
1
1
1
1
1
1
1
1
1
1
1
1
1
0.99902
1
1
1
1
1
1
1
1
1
1
1
1
1
1
1
1
1
1
1
1
1
1
1
1
1
1
1
1
1
1
1
1
1
1
1
1
1
1
1
1
1
1
1
1
1
1
1
1
1
1
1
1
1
0.999883
1
1
1
1
1
1
1
1
1
1
1
1
0.999893
1
1
1
1
1
1
1
1
1
1
0.999883
1
1
1
1
1
1
1
1
1
1
1
1
1
1
1
1
1
1
1
1
1
1
1
1
1
1
1
1
1
1
1
1
1
1
1
1
1
1
1
1
1
1
1
1
1
1
1
1
1
1
1
1
1
1
1
1
1
1
1
1
1
1
1
1
1
1
1
1
1
1
1
1
1
1
1
1
1
1
1
1
1
1
1
1
1
1
1
1
1
1
1
1
1
1
1
1
1
1
1
1
1
1
1
1
1
1
1
1
1
1
1
1
1
1
1
1
1
1
1
1
1
1
1
1
1
1
1
1
1
1
1
1
0.999889
1
1
1
1
1
1
1
1
1
1
1
1
1
1
1
1
1
1
1
1
1
1
1
1
1
1
1
1
1
1
1
1
1
1
1
1
1
1
1
1
1
1
1
1
1
1
1
1
1
1
1
1
1
1
1
1
1
1
1
1
1
1
1
1
1
1
1
1
1
1
1
1
1
1
1
1
1
1
1
1
1
1
1
1
1
1
1
1
1
1
1
1
1
1
1
1
1
1
1
1
1
1
1
1
1
1
1
1
1
1
1
1
1
1
1
1
1
1
1
1
1
1
1
1
1
1
1
1
1
1
1
1
1
1
1
1
1
1
1
1
1
1
1
1
1
1
1
1
1
1
1
1
1
1
1
1
1
1
1
1
1
1
1
1
1
1
1
1
1
1
1
1
1
1
1
1
1
1
1
1
1
1
1
1
1
1
1
1
1
1
1
1
1
1
1
1
1
1
1
1
1
1
1
1
1
1
1
1
1
1
1
1
1
1
1
1
1
1
1
1
1
1
1
1
1
1
1
1
1
1
1
1
1
1
1
1
1
1
1
1
1
1
1
1
1
1
1
1
1
1
1
1
1
1
1
1
1
1
1
1
1
1
1
1
1
1
1
1
1
1
1
1
1
1
1
1
1
1
1
1
1
1
1
1
1
1
1
1
1
1
1
1
1
1
1
1
1
1
1
1
1
1
1
1
1
1
1
1
1
1
1
1
1
1
1
1
1
1
1
1
1
1
1
1
1
1
1
1
1
1
1
1
1
1
1
1
1
1
1
1
1
1
1
1
1
1
1
1
1
1
1
1
1
1
1
1
1
1
1
1
1
1
1
1
1
1
1
1
1
1
1
1
1
1
1
1
1
1
1
1
1
1
1
1
1
1
1
1
1
1
1
1
1
1
1
1
1
1
1
1
1
1
1
1
1
1
1
1
1
1
1
1
1
1
1
1
1
1
1
1
1
1
1
1
1
1
1
1
1
1
1
1
0.999126
1
1
1
1
1
1
1
1
1
1
1
1
1
1
1
1
1
1
1
1
1
1
1
1
1
1
1
1
1
1
1
1
1
1
1
1
1
1
1
1
1
1
1
1
1
1
1
1
1
1
1
1
1
1
1
1
1
1
1
1
1
1
1
1
1
1
1
1
1
1
1
1
1
0.508039
0.822733
0.672886
0.73948
0.863813
0.772181
0.638754
0.502504
0.609539
0.443284
0.484012
0.610638
0.755407
0.514471
0.564345
0.696165
0.551483
0.636155
0.56501
0.505378
0.587203
0.495293
0.47098
0.541429
0.482886
0.523644
0.674693
0.55861
0.558794
0.776085
0.935404
0.725867
0.83633
0.885905
0.616351
0.866747
0.837894
0.485204
0.545179
0.517329
0.465404
0.565427
0.528015
0.513301
0.537553
0.499031
0.488275
0.459609
0.531508
0.555699
0.585081
0.694505
0.763133
0.651811
0.779292
0.893471
0.906088
0.856517
0.892296
0.649514
0.50323
0.886731
0.69622
0.561656
0.658698
0.865936
0.772145
0.496362
0.45339
0.521184
0.575031
0.621371
0.773264
0.644264
0.730561
0.810069
0.854148
0.773275
0.808952
0.949258
0.915092
0.771744
0.766168
0.950183
0.702305
0.624825
0.591362
0.534253
0.68264
0.773377
0.663906
0.713379
0.593735
0.535685
0.668796
0.515054
0.681749
0.967947
0.996912
0.823201
0.951411
0.893933
0.820591
0.709228
0.957136
0.963749
0.961498
0.834528
0.969036
0.948091
0.994469
0.645375
0.837384
0.762598
0.536566
0.742994
0.81701
0.774317
0.771246
0.554455
0.742615
0.567488
0.526907
0.893785
0.979431
0.576121
0.915351
0.48059
0.67703
0.723348
0.501591
0.502835
0.931589
0.577429
0.785004
0.5178
0.653467
0.516911
0.564916
0.846031
0.461832
0.485127
0.440922
0.475397
0.451428
0.587647
0.629272
0.662287
0.845438
0.517271
0.464702
0.432606
0.549769
0.501115
0.52326
0.450057
0.463992
0.435712
0.457967
0.527016
0.466502
0.428157
0.508519
0.490289
0.452494
0.457877
0.479219
0.526591
0.435735
0.493936
0.521037
0.455468
0.449779
0.440985
0.461059
0.497453
0.444175
0.45041
0.449789
0.425042
0.992324
0.998026
0.700497
0.966604
0.77582
0.618131
0.996863
0.890399
0.679053
0.933747
0.616828
0.686775
0.927965
0.99305
0.988491
0.961317
0.975512
0.959849
0.977465
0.846276
0.993124
0.974682
0.977648
0.967306
0.990775
0.967516
0.994335
0.994335
0.996714
0.999969
0.995644
0.870383
0.91761
0.948783
0.796861
0.956969
0.956525
0.817971
0.969413
0.526035
0.752232
0.598542
0.485123
0.674832
0.848339
0.537094
0.790931
0.934789
0.776131
0.889563
0.761549
0.557122
0.739104
0.818085
0.424552
0.424999
0.47058
0.423569
0.439213
0.46799
0.728077
0.423911
0.428484
0.649343
0.483381
0.571218
0.5738
0.615182
0.49611
0.562148
0.73638
0.414519
0.40614
0.435384
0.424953
0.432066
0.433798
0.430298
0.4456
0.440048
0.507427
0.523897
0.45211
0.435747
1
1
0.591697
1
0.944836
0.60628
0.998844
0.930103
0.727063
0.938026
0.61201
0.83637
0.954839
0.983076
0.98582
0.984405
0.991945
0.993949
0.998327
0.987821
0.998382
1
0.998253
0.997424
0.987426
0.998165
0.997285
0.993069
0.995126
0.999086
0.999278
0.905797
0.897632
0.972795
0.797821
0.970289
0.990669
0.796826
0.966147
0.480238
0.606994
0.615571
0.482808
0.621864
0.945112
0.864484
0.824157
0.954676
0.894263
0.66919
0.69423
0.465118
0.650391
0.594398
0.52887
0.598079
0.864096
0.410532
0.421067
0.670069
0.906665
0.423089
0.444826
0.776702
0.608725
0.687837
0.658223
0.793475
0.762066
0.87093
0.866377
0.406307
0.417638
0.432949
0.446852
0.426738
0.444175
0.480394
0.616714
0.506523
0.608069
0.602478
0.53456
0.513279
1
0.997979
0.570533
0.994783
0.904367
0.640509
0.945112
0.884616
0.900977
0.96215
0.841163
0.918838
0.979681
0.98314
0.974687
0.995824
0.991086
1
0.996611
0.99689
0.995185
0.997396
0.996219
0.996264
0.998315
0.995175
0.996283
0.995732
0.996681
0.993635
0.997423
0.878774
0.834715
0.986433
0.815261
0.982256
0.981083
0.826185
0.966104
0.484368
0.605359
0.57635
0.557854
0.62114
0.955276
0.884023
0.920074
0.96367
0.893208
0.624605
0.51101
0.544177
0.657495
0.493803
0.611597
0.629334
0.900604
0.455231
0.462091
0.706755
0.873479
0.47627
0.491849
0.776543
0.869216
0.904337
0.702996
0.750111
0.890867
0.895502
0.689231
0.417577
0.451192
0.452779
0.465089
0.446727
0.452393
0.473006
0.573672
0.503968
0.521678
0.588647
0.485248
0.638848
0.951771
0.887223
0.796375
0.877105
0.909171
0.925561
0.853397
0.94034
0.935751
0.983735
0.957233
0.950666
0.975203
0.973345
0.982616
0.996587
0.994497
0.997394
0.999404
0.996194
0.968861
0.984211
0.996246
0.998145
0.993412
0.995531
0.996529
0.993727
0.98762
0.997736
0.978928
0.781006
0.64082
0.973104
0.874213
0.959911
0.975617
0.927866
0.95863
0.685085
0.702921
0.696106
0.766544
0.814274
0.960654
0.883689
0.956016
0.958161
0.850719
0.722838
0.53338
0.735936
0.825051
0.620589
0.593689
0.543007
0.874824
0.498344
0.555427
0.715391
0.916894
0.502962
0.623972
0.722883
0.920071
0.873224
0.718493
0.665812
0.915799
0.798489
0.511706
0.502491
0.506381
0.452039
0.493397
0.50268
0.467252
0.519157
0.597371
0.496313
0.506673
0.656244
0.496388
0.726661
0.815838
0.872154
0.983616
0.900176
0.959383
0.988785
0.967523
0.972467
0.96678
0.943764
0.966688
0.984723
0.965508
0.974797
0.980397
0.990526
0.973388
0.943098
0.996931
1
0.897105
0.911716
0.989211
0.997166
0.978541
0.915653
0.847137
0.963183
0.976497
0.955917
0.93474
0.734376
0.932871
0.975305
0.964921
0.969014
0.967059
0.991313
0.973646
0.591461
0.80079
0.477174
0.895352
0.545993
0.889077
0.513819
0.382639
0.41392
0.378508
0.460817
0.422063
0.444321
0.441336
0.941218
0.814811
0.956454
0.958758
0.895897
0.481997
0.682424
0.606472
0.936048
0.525508
0.76434
0.450128
0.401796
0.401441
0.391801
0.427157
0.421845
0.426598
0.411707
0.53804
0.616852
0.950975
0.510162
0.654902
0.79726
0.978017
0.567911
0.701798
0.699146
0.816298
0.637319
0.804979
0.71518
0.585242
0.53792
0.54432
0.544723
0.510006
0.458296
0.522584
0.495723
0.454498
0.502157
0.608237
0.531946
0.456252
0.507283
0.515144
0.576357
0.964657
0.990659
0.984058
0.982929
0.972771
0.987246
0.992374
0.971863
0.980058
0.989076
0.990437
0.986939
0.989352
0.974716
0.992835
0.954788
0.899471
0.929213
0.957379
0.995896
0.91049
0.958581
0.948704
0.977261
0.989722
0.965187
0.984295
0.991072
0.996552
0.9783
0.996963
0.988298
1
0.99739
0.999067
1
0.999646
1
1
0.965084
0.986364
0.983824
0.964425
0.982845
0.993033
0.970144
0.917458
0.921928
0.989702
0.997724
0.958541
0.981891
0.967145
0.914557
0.973134
1
1
0.995881
1
0.970697
0.92227
0.945566
0.96406
0.909953
0.903332
0.87312
0.664467
0.934444
0.966516
0.955975
0.94289
0.91994
0.610848
0.743233
0.997735
1
0.999774
1
0.696871
0.75582
0.979409
0.674796
0.748251
0.882069
0.984817
0.722041
0.823298
0.747599
0.652832
0.506014
0.948079
0.804691
0.701362
0.497593
0.638221
0.72213
0.976261
0.772222
1
1
0.495663
0.526378
0.457109
0.482095
0.496045
0.480274
0.502408
0.494617
0.499367
0.492648
0.491376
0.47712
0.480537
0.996166
0.991844
0.990435
0.9904
0.971137
1
0.996632
0.992338
0.990667
0.995432
0.997252
0.994152
0.993921
0.989916
0.997912
0.951373
0.978264
0.984416
0.953802
0.977456
0.95855
0.987053
0.964114
0.9828
0.998761
0.993836
0.993813
0.999128
1
0.997947
0.999115
0.996886
0.998571
0.989874
1
1
1
1
1
0.977935
0.979106
0.991094
0.989161
0.977676
0.985308
0.995581
0.983165
0.984222
0.997605
0.998293
0.984129
0.989993
1
0.998664
1
1
1
0.999215
1
0.96312
0.921883
0.901799
0.959818
0.932107
0.987535
0.982993
0.970676
0.97932
0.992471
0.974922
0.982693
0.999029
0.999172
1
0.999216
1
1
0.999256
0.805147
0.843446
0.97891
0.733126
0.858546
0.914945
0.960793
0.73476
0.883101
0.902682
0.710147
0.542509
0.994769
0.948073
0.763496
0.628122
0.989099
0.850354
0.99948
1
1
1
0.569064
0.565569
0.546854
0.555751
0.60687
0.646012
0.555863
0.495056
0.525856
0.602559
0.499913
0.547572
0.496656
0.99993
0.998606
0.996811
0.995084
0.992883
0.99989
0.999071
0.999122
0.997394
0.993299
0.996812
0.998242
0.995894
0.998049
0.997977
0.977707
0.976315
0.988942
0.973593
0.985081
0.985885
0.989812
0.980062
0.98339
0.993142
0.999361
0.999006
1
0.996769
0.999333
0.997983
0.994494
0.996058
0.979445
0.970309
0.990579
0.987459
0.992302
0.977463
1
0.981089
0.998781
0.999026
0.998114
0.984439
0.997057
1
1
1
1
1
1
1
0.966454
0.944501
0.94161
0.967213
0.965416
0.99602
0.977999
0.990023
0.998931
0.999933
0.994083
0.997854
1
1
1
1
1
1
1
0.900447
0.925075
0.942537
0.76137
0.900992
0.971941
0.93176
0.792709
0.917133
0.9636
0.818061
0.696398
0.999021
0.979516
0.896507
0.807173
0.945862
0.578442
0.584325
0.712573
0.549813
0.708286
0.764091
0.535103
0.54769
0.537347
0.732556
0.649019
0.52725
0.552372
0.999303
0.996654
0.996921
0.997755
0.999122
0.9989
1
1
0.995273
0.997754
0.993734
0.995395
0.989585
0.997977
1
0.961338
0.978545
0.995356
0.986828
0.992739
0.991823
0.996944
0.977383
0.987759
0.999944
0.998472
0.998817
0.999128
0.996798
0.998776
0.997451
0.994973
0.993103
0.984981
0.971409
0.992639
0.97217
0.993622
0.982432
0.989724
0.997084
0.991238
0.996438
0.997021
0.972365
0.983425
0.978997
0.995607
0.982573
1
0.999721
1
1
1
0.94161
0.929124
0.971026
0.835015
0.951044
0.98713
0.994788
0.868489
0.959161
0.994099
0.984968
0.96245
0.999029
1
0.99723
1
1
0.639961
0.744145
0.811902
0.547716
0.839438
0.90325
0.7884
0.801937
0.559411
0.968656
0.97039
0.838801
0.976189
0.995958
0.998536
0.994722
0.993924
0.999485
0.993623
0.997446
0.999122
0.991852
0.987497
0.996372
0.994457
0.994891
0.995957
0.993935
0.990318
0.994288
0.997573
0.99121
0.994759
0.995856
0.995956
0.99568
0.996192
1
0.997625
0.997519
0.997687
1
0.998089
0.997854
0.992544
1
0.979757
0.990653
0.993367
0.998452
0.994282
0.999122
0.997694
0.996839
0.99752
0.99882
1
0.995001
0.984045
0.986585
0.998273
0.99241
0.993683
0.998872
0.999124
1
1
0.943357
0.965192
0.998351
0.87856
0.967184
0.983793
0.995778
0.936554
0.987014
0.999115
1
0.998362
1
1
1
1
1
0.851117
0.98167
0.993204
0.99989
0.996593
1
1
1
1
0.999124
1
1
1
1
0.993031
0.989334
0.995511
0.993914
0.991094
0.997678
0.994731
0.998031
1
0.992633
0.999091
0.997755
0.991914
0.997909
0.989064
0.98593
0.998263
0.997319
0.995932
0.997256
0.996046
0.997646
0.997006
0.99809
0.997991
0.995284
0.992941
0.993258
0.987713
0.99498
0.997974
1
0.992724
0.993183
0.999182
0.99493
0.995602
0.997668
1
1
0.998876
0.999123
1
0.997273
0.992139
0.995602
0.999697
0.996321
1
1
0.999124
1
1
0.970284
0.995815
1
0.984533
0.994551
0.995791
0.99967
0.98892
0.999122
1
1
1
1
1
1
0.998361
1
0.984328
1
0.999124
1
1
1
1
1
1
1
1
1
0.99797
0.997979
0.992612
0.986256
0.995357
0.996578
0.980538
0.992726
0.994005
0.99794
0.996865
0.989335
0.998425
0.99582
0.996375
0.997978
0.996587
0.987602
0.999101
0.992462
0.99769
0.994288
0.99377
0.997289
0.996226
0.996628
0.993312
0.998245
0.996515
0.995111
0.996936
0.998245
0.997972
1
0.994117
0.997911
0.999152
0.995472
1
0.998486
1
1
1
1
1
0.999
0.997754
1
0.998243
0.997367
1
0.998839
0.999002
1
1
0.99149
0.99435
0.999373
0.998369
1
0.996783
0.999373
0.9973
0.997367
1
1
1
1
1
1
0.998361
1
0.997971
1
1
1
1
1
1
1
1
1
1
1
1
0.991288
0.990731
0.991753
0.989901
0.991189
0.993623
0.995473
0.997245
0.996214
0.998065
0.994503
0.993912
0.996052
0.995887
1
0.989064
0.99394
0.995687
0.999881
0.997527
0.996808
0.991463
0.994518
0.995087
0.99837
0.997759
0.999123
0.997026
1
0.99944
0.998245
0.997971
1
0.997097
0.996811
0.998244
0.994001
1
0.997062
1
1
1
0.99997
1
1
1
0.996701
0.998667
0.997754
1
1
0.999123
1
1
0.996652
0.995954
1
1
1
0.999128
1
1
0.999122
1
1
0.998361
1
0.99881
0.999818
0.998361
0.99797
1
1
1
1
1
1
1
1
1
1
0.998877
1
1
0.995609
1
1
0.999187
0.998335
1
0.996711
0.997941
0.994275
0.993613
1
1
0.992181
0.997978
0.997978
0.996517
0.994288
0.998562
0.996216
0.999056
0.996416
0.995537
0.999345
0.997169
0.996741
0.999176
1
0.998558
0.99837
0.999242
1
1
1
0.997871
1
0.998001
0.994001
0.993623
0.998819
0.999153
1
1
1
1
0.998818
0.998877
1
1
0.998877
1
1
0.998942
1
0.9976
0.997977
0.998675
1
1
1
1
1
1
1
0.99942
0.999301
1
1
0.999115
1
1
1
0.997971
1
1
1
1
1
1
1
1
1
1
1
1
0.997979
1
1
0.999613
0.999425
0.993623
1
0.999122
0.998274
0.996632
1
0.999091
1
1
1
0.99199
0.99798
0.996525
0.998004
0.998113
1
0.997394
0.996842
0.998113
1
1
1
1
1
1
1
1
1
0.998878
1
1
1
1
0.997941
1
1
1
1
1
1
1
1
0.999121
1
1
0.998567
1
1
1
0.999302
1
1
0.996794
1
1
0.999802
0.999944
1
0.999115
1
1
1
1
1
1
0.99839
1
1
1
1
1
0.99997
1
1
1
1
1
1
1
0.997282
0.997282
1
0.998878
1
1
1
0.999122
0.999122
1
0.99934
1
1
1
1
0.99798
0.999234
0.998563
0.998898
1
0.998376
0.997693
1
1
1
1
1
0.999129
1
1
1
1
1
1
1
0.998546
0.99969
1
1
1
1
1
1
1
1
1
1
1
1
1
1
1
1
1
1
1
1
1
1
0.999128
1
1
1
0.999115
0.999118
1
1
0.999146
1
1
1
1
1
1
1
1
1
1
1
1
0.999124
1
1
1
0.997979
0.997979
1
0.996673
0.998244
1
1
0.995609
0.997668
1
1
0.999697
1
1
1
0.995542
1
0.996556
0.998272
0.999024
0.989528
0.9997
1
0.999056
1
1
1
1
1
1
1
1
1
0.999845
1
1
0.998916
0.993622
0.999122
1
1
1
1
1
0.999122
0.998141
1
1
0.999613
1
1
1
1
1
1
1
1
0.998988
1
1
1
0.997806
1
1
1
1
1
1
1
1
1
1
1
1
1
1
1
1
1
1
1
1
1
1
0.993171
0.992054
1
1
1
0.99934
1
0.999122
1
1
1
1
1
1
1
1
1
0.998832
0.998272
0.999089
0.99944
0.998322
1
0.999642
1
1
1
1
1
1
1
1
1
0.999961
1
0.998062
1
1
0.999303
1
1
1
1
1
1
1
1
1
0.999613
1
1
1
1
0.999264
0.997977
0.997977
1
1
1
1
1
1
1
1
1
1
1
0.99942
1
1
1
1
1
1
1
1
1
1
1
1
1
1
1
1
1
1
0.997471
1
0.999122
1
1
1
1
1
1
1
1
1
1
1
1
1
1
0.999382
1
1
1
1
1
1
1
1
1
1
1
1
1
1
1
1
1
1
1
1
1
1
1
1
1
0.999264
1
1
1
1
0.999613
1
1
1
1
1
1
1
1
1
1
1
1
0.999695
1
1
1
1
1
1
1
1
1
1
1
1
1
1
1
1
1
1
0.996817
0.997969
1
1
0.99978
1
1
1
1
0.998001
1
1
1
1
1
1
1
1
1
1
1
0.998861
1
1
1
0.999252
1
1
1
1
1
1
1
1
1
1
1
1
1
0.996811
1
1
1
1
1
1
1
1
1
1
1
1
1
1
1
1
1
1
1
1
1
1
1
1
1
1
1
1
0.999065
1
1
0.998361
1
1
1
1
1
1
1
1
1
1
0.999124
0.999535
0.996817
0.995448
1
1
1
1
0.998123
0.99989
1
0.998244
1
1
0.998021
0.99997
1
1
1
1
1
1
1
1
1
0.999131
0.99857
1
1
0.999671
1
1
1
1
1
1
1
1
1
1
1
1
1
1
1
1
1
1
1
1
1
1
1
1
1
1
1
1
1
1
1
1
1
1
1
1
1
1
1
1
1
1
0.999118
1
1
1
1
1
1
1
1
1
1
1
1
1
1
1
1
1
0.996922
1
1
1
1
0.999122
1
1
1
1
1
1
1
1
1
1
0.999702
1
1
1
0.999106
0.998145
1
0.999045
1
1
1
1
1
1
1
0.998878
1
1
0.998878
1
1
0.999697
1
0.998876
1
1
0.999122
1
1
0.999121
1
1
1
1
1
1
1
1
1
1
1
1
1
1
1
0.999969
1
1
1
0.999725
0.999878
0.998587
0.99993
1
1
1
1
1
1
1
1
1
1
1
1
1
1
1
1
1
0.999122
0.996811
1
0.998244
1
1
1
1
1
1
1
1
1
1
1
1
1
1
1
1
1
1
1
1
1
1
1
1
1
0.997794
0.996811
0.999092
1
1
1
0.999123
1
1
1
1
1
1
1
1
0.999613
1
0.998877
1
1
1
0.999861
1
1
1
1
1
1
1
1
0.999207
1
0.998361
1
0.998597
1
1
1
1
1
1
1
1
1
1
1
1
1
1
1
1
1
1
1
1
1
1
0.999033
0.999879
1
1
1
1
1
1
1
0.99798
1
1
0.998272
1
0.999776
0.999251
0.999136
1
1
1
1
1
1
1
1
1
1
0.999768
1
1
0.99911
1
0.999122
1
1
1
1
1
0.998485
0.997832
1
0.999121
1
0.996813
0.99911
1
1
0.999768
1
1
1
1
1
1
1
1
0.999152
0.999115
1
0.999435
1
1
1
0.998926
0.99867
1
1
1
1
1
1
1
1
1
1
1
1
1
1
1
0.996811
0.997795
0.998214
1
1
0.99997
1
1
1
1
1
1
1
1
1
1
0.998838
1
1
1
0.999434
1
1
1
1
1
1
1
1
1
1
0.999613
1
0.999425
1
0.99934
0.999697
1
1
1
1
1
1
1
1
0.999818
0.998877
1
1
0.999123
1
0.998877
1
1
1
1
0.99997
1
1
0.998369
1
0.999115
0.999118
1
1
0.999176
0.998236
0.999887
0.997969
1
1
1
1
1
1
1
1
1
1
1
1
1
1
1
1
0.998878
0.999152
1
1
1
1
1
1
1
1
1
1
1
1
1
1
1
1
1
1
1
1
1
1
1
1
1
1
1
1
0.998878
0.997471
1
1
0.997911
1
1
1
1
1
1
0.999303
1
0.996811
1
0.998877
1
0.999845
0.999123
0.996812
0.997754
0.997977
1
1
1
0.999425
1
1
1
0.999697
0.999359
1
1
1
0.997529
0.999118
1
0.995939
1
1
1
1
1
1
1
1
1
1
1
1
1
1
1
1
1
1
1
0.998878
1
1
1
1
1
1
1
1
1
0.99798
1
1
0.999382
1
1
0.999315
0.999675
1
1
1
1
1
1
1
1
1
1
0.998901
1
0.998878
1
1
1
1
1
1
1
1
1
1
1
1
0.99989
0.998839
0.998942
0.994944
0.993378
1
1
1
0.998369
0.999122
0.999759
1
0.998819
1
0.998231
1
1
0.999032
0.999817
1
0.998361
0.996219
1
1
1
1
1
1
1
0.999264
1
1
0.999264
1
1
1
1
1
1
1
1
0.998878
1
1
1
1
1
1
1
1
0.997911
1
1
0.999821
1
1
1
1
1
1
1
1
1
1
1
1
1
1
0.99853
1
0.999818
0.998142
0.996811
0.999303
0.999425
1
1
0.999697
1
1
1
1
1
1
0.99044
0.997755
0.999123
1
0.997754
1
1
1
1
1
1
0.999044
1
1
0.999115
0.999574
0.996158
0.999098
0.999146
0.998936
0.999887
0.997969
0.997971
1
1
1
1
1
1
0.999264
1
1
0.999613
1
0.998039
1
0.997979
1
0.998878
1
1
1
1
1
1
1
1
1
1
1
1
1
1
1
1
1
1
1
1
1
1
1
1
1
1
1
1
1
1
1
1
1
1
1
1
1
1
1
1
1
1
0.996921
0.999121
0.998877
0.996813
0.998877
1
1
1
1
1
1
1
0.999697
1
1
1
0.999425
0.999085
1
1
1
1
0.997476
0.998474
0.997969
1
1
1
1
1
0.999124
1
1
1
1
0.998877
1
1
1
1
1
1
0.999122
1
0.997446
1
1
1
1
1
1
1
1
1
1
1
1
1
1
1
1
1
1
1
1
1
1
1
1
1
1
1
1
0.999122
1
1
1
1
1
1
1
1
1
0.998877
1
0.998243
1
1
0.999961
0.999123
1
0.998877
1
1
1
1
1
1
1
1
1
0.999115
1
0.999661
1
0.999115
1
1
1
1
1
1
1
1
1
1
1
1
1
1
1
1
1
1
1
0.999265
1
1
1
1
1
1
1
1
1
1
1
1
1
1
1
1
1
1
1
0.999056
1
1
1
1
1
1
1
1
1
1
0.996811
1
1
1
1
1
1
1
1
1
1
1
1
1
1
1
0.998877
1
1
1
1
1
1
1
1
0.99988
0.999802
0.999775
0.999546
0.999115
0.999118
1
1
1
1
0.998361
1
1
1
1
1
1
0.999426
1
0.998877
1
1
1
1
1
0.99993
1
1
0.998878
0.999122
1
1
1
1
1
1
1
1
1
1
1
1
0.999191
1
1
1
0.99997
0.999136
1
1
1
1
1
1
1
1
1
1
1
1
1
1
1
1
1
1
1
1
1
1
1
1
1
1
1
1
1
1
1
1
1
1
0.998369
1
1
1
1
1
1
1
0.998361
1
1
1
1
0.997969
1
1
0.999698
1
1
1
1
1
1
0.999124
0.998877
1
1
1
1
1
1
1
1
1
1
1
1
1
1
1
1
1
1
1
1
1
0.998146
0.998376
1
1
0.999967
1
1
1
1
1
1
1
1
1
1
1
1
1
1
1
1
1
1
1
1
1
1
1
0.999122
1
1
1
1
1
0.998877
1
1
1
1
1
0.999309
1
1
1
1
1
1
1
1
1
1
1
1
1
1
1
1
1
1
1
0.996817
0.999124
0.998877
0.996818
1
1
1
1
0.998878
1
1
1
1
1
1
1
1
1
1
1
1
1
1
1
1
1
1
1
1
1
1
1
1
1
1
1
1
1
1
1
1
1
1
1
1
1
1
1
1
1
1
1
1
1
1
1
1
1
1
1
1
1
1
1
1
1
1
0.999122
1
1
1
0.999065
1
1
1
1
1
1
1
1
1
1
1
0.998877
0.996817
1
1
1
1
1
1
1
1
1
1
1
1
1
1
1
1
1
1
1
1
1
0.999131
1
0.999057
0.999776
0.999251
1
1
1
1
1
1
1
1
1
1
1
1
1
1
0.998878
1
0.999122
1
1
1
1
1
0.999122
1
1
0.999121
0.999768
1
1
1
1
1
1
1
1
1
1
1
1
1
1
1
1
1
1
1
0.999878
1
1
1
1
0.999366
1
1
1
1
1
1
1
1
1
0.998249
1
1
1
1
1
1
1
1
1
1
1
1
1
1
1
1
1
1
1
1
1
0.999431
0.999136
0.999056
1
1
1
1
1
1
1
1
1
1
1
1
1
1
1
1
1
1
1
1
1
0.999109
1
0.998818
1
1
1
1
1
1
1
1
1
0.999944
0.999122
1
0.999242
1
1
1
1
1
1
1
1
1
1
1
1
1
1
0.998877
1
1
1
0.997475
1
1
1
1
1
0.997979
1
1
1
1
1
1
1
1
1
1
1
1
1
1
1
0.9997
1
1
1
0.99997
1
1
1
1
1
1
1
1
1
1
1
1
1
0.999425
1
1
0.999697
1
1
1
1
1
0.999424
1
0.99989
1
1
1
1
1
1
1
1
1
1
1
1
0.999128
1
1
1
1
1
1
1
1
1
1
1
1
1
1
1
1
1
1
1
1
1
1
1
1
1
1
1
1
1
1
1
1
1
1
1
1
1
1
1
1
1
0.999161
1
1
0.998376
0.999131
0.999136
0.998113
1
1
1
1
1
1
1
1
1
1
1
1
1
1
1
1
1
1
1
1
0.999121
0.998877
1
0.999122
1
1
1
1
1
1
1
1
1
1
1
1
0.999044
1
1
1
1
1
1
1
1
1
1
1
1
1
1
1
1
1
1
1
1
1
1
1
1
1
1
1
1
1
1
1
1
1
1
1
1
1
1
1
1
1
1
1
1
1
0.999136
1
1
1
1
1
1
1
1
1
1
1
1
1
1
1
1
1
1
1
1
1
1
0.998877
0.996812
1
1
1
1
1
1
1
1
1
1
1
1
1
1
1
1
1
1
1
1
1
1
1
1
1
1
1
1
1
1
1
1
1
1
1
1
1
1
1
1
1
1
1
1
1
1
1
1
1
1
1
1
1
1
1
1
1
1
1
1
1
1
1
1
1
1
1
1
1
1
1
1
1
1
1
1
1
1
1
1
1
1
1
1
1
0.998877
1
1
1
1
1
1
1
1
1
1
0.999128
1
1
1
1
1
1
1
1
1
1
1
1
1
1
1
1
1
1
1
1
1
1
1
1
1
1
1
1
1
1
1
1
1
1
1
1
1
1
1
1
1
1
1
1
1
1
1
0.999935
1
1
1
1
1
1
1
1
1
1
1
1
1
1
1
1
1
1
1
1
0.999424
1
1
0.999697
0.998877
1
1
1
1
1
1
1
1
1
1
1
1
1
0.997367
1
1
1
1
1
1
1
1
1
1
1
1
1
1
1
1
1
1
1
1
1
1
1
1
1
1
1
1
1
1
1
1
1
1
1
1
1
1
1
0.999136
1
1
1
1
1
1
1
1
1
1
1
1
1
1
1
1
1
1
1
0.999122
1
1
1
1
1
1
1
0.998131
0.999636
1
1
1
1
1
1
1
1
1
1
1
1
1
1
1
1
1
1
1
1
1
1
1
1
1
1
1
0.998877
1
1
1
1
1
1
1
1
1
1
1
1
1
1
1
1
1
1
1
1
1
1
1
1
1
0.999131
1
0.999675
1
0.99994
1
0.998503
1
1
1
1
1
1
1
1
1
1
1
1
1
1
1
1
1
1
1
1
1
1
1
1
0.998877
1
1
1
1
1
1
1
1
1
1
1
1
1
0.999122
1
1
1
1
1
1
1
1
1
1
1
1
0.99911
1
1
1
1
1
1
1
1
1
1
1
1
1
1
1
1
1
1
1
1
1
1
1
1
1
1
0.999136
1
1
1
1
1
1
1
1
1
1
1
1
1
1
1
1
1
1
1
1
1
1
1
1
1
0.999121
1
1
1
1
1
1
1
1
1
1
1
1
1
1
1
0.999802
1
0.999152
1
1
1
1
1
1
1
1
1
1
1
1
1
1
1
1
1
1
1
1
1
1
1
1
1
1
1
1
1
1
1
1
1
1
1
1
1
1
0.999132
0.999136
1
1
1
1
1
1
1
1
1
1
1
1
1
1
1
1
1
1
1
1
1
1
1
1
1
1
1
0.99912
0.999364
1
1
1
1
1
1
1
0.997977
0.998286
1
0.99997
1
0.999044
1
0.999122
1
1
1
1
1
1
1
1
1
1
1
1
1
1
1
1
1
1
1
1
1
1
1
1
1
1
1
1
1
1
1
1
1
1
1
1
1
1
1
1
1
1
1
0.999136
0.999056
1
1
1
1
1
1
1
1
1
1
1
1
1
1
1
1
1
1
1
1
1
1
1
1
1
1
1
1
1
1
1
1
1
1
1
1
1
1
1
1
1
1
1
1
1
1
1
1
1
1
1
0.998877
1
1
1
1
1
1
1
1
1
1
1
1
1
1
1
1
1
1
1
1
1
1
1
0.99798
1
1
0.999136
1
1
1
0.999136
1
1
1
1
1
1
1
1
1
1
1
1
1
0.998878
1
1
1
1
1
1
1
1
1
1
1
0.998877
1
1
1
1
1
1
1
1
1
0.999122
1
1
1
0.999122
1
1
1
1
1
1
1
1
1
1
1
1
1
1
1
1
1
1
1
1
1
1
1
1
1
1
1
1
1
1
1
1
1
1
1
1
1
1
1
1
1
1
1
1
1
1
1
1
1
1
1
1
1
1
1
1
1
1
1
0.999122
1
1
1
1
1
1
1
1
1
1
1
1
1
1
1
1
1
1
1
1
1
1
1
1
1
1
1
1
1
1
1
1
1
1
1
1
1
1
1
1
1
1
1
1
1
1
1
1
1
1
1
1
1
1
1
1
1
1
1
1
1
1
1
1
1
1
1
1
1
1
1
1
1
1
1
1
1
1
1
1
1
0.999032
1
0.999879
1
1
1
1
1
0.999697
1
1
0.999424
1
1
1
1
1
1
1
1
1
1
1
1
1
1
1
1
1
1
1
1
1
1
1
1
1
1
1
1
1
1
1
1
1
1
1
1
1
1
1
1
1
1
1
1
1
1
1
1
1
1
1
1
1
1
1
1
1
1
1
1
1
1
1
1
1
1
1
1
1
0.998878
1
1
1
1
1
1
1
1
1
1
1
1
1
1
1
1
1
1
1
1
1
1
1
1
1
1
1
1
1
1
1
1
1
1
1
1
1
1
1
1
1
1
1
1
1
1
1
1
1
1
1
1
1
1
1
1
1
1
1
1
1
1
1
1
1
1
1
1
1
1
1
1
1
1
1
1
1
1
1
1
1
1
1
1
1
1
1
0.997031
1
1
1
1
1
1
1
1
0.99978
1
1
1
1
1
1
1
1
1
1
1
1
1
1
1
1
1
1
1
1
1
1
1
1
1
1
1
1
1
1
1
1
1
1
1
1
1
1
1
1
1
1
1
1
1
1
1
1
1
1
1
1
1
1
1
1
1
1
1
1
0.999056
1
1
1
1
1
1
1
1
1
1
1
1
1
0.99978
1
1
1
1
1
1
1
1
0.997031
1
1
1
1
1
1
1
1
1
1
1
1
1
1
1
1
1
1
1
1
1
1
1
1
1
1
1
1
1
1
1
1
1
1
1
1
1
1
1
1
1
1
1
1
1
1
1
1
1
1
1
1
0.998398
1
1
0.999821
1
1
1
1
1
1
1
1
1
1
1
1
1
1
1
1
1
1
1
1
1
1
1
1
1
1
1
1
1
1
1
1
1
1
1
1
1
1
1
1
1
1
1
1
1
1
1
1
1
1
1
1
1
1
1
1
1
1
1
1
1
1
1
1
1
1
1
1
1
1
1
1
1
1
1
1
1
1
1
1
1
1
1
1
1
1
1
1
1
1
1
1
1
1
1
1
1
1
1
1
1
1
1
1
1
1
1
1
1
1
1
1
1
1
1
1
1
1
1
1
1
1
1
1
1
1
1
1
1
1
1
1
1
1
1
1
1
1
1
1
1
1
1
1
1
1
1
1
1
1
1
1
1
1
1
1
1
1
1
1
1
1
1
1
1
1
1
1
1
1
1
0.999136
1
1
1
1
1
1
1
1
1
1
1
1
1
0.998877
0.996811
1
1
1
1
1
1
1
1
1
1
1
1
1
1
1
1
1
1
1
1
1
1
1
1
1
1
1
1
1
1
1
1
1
1
1
1
1
1
1
1
1
1
1
1
1
1
1
1
1
1
1
1
1
1
1
1
1
1
1
1
1
1
1
1
1
1
0.998376
1
1
1
1
1
1
1
1
1
1
1
1
1
1
1
1
1
1
1
1
1
1
1
1
1
0.996812
1
1
1
1
1
1
1
1
1
1
1
1
1
1
1
1
1
1
1
1
1
1
1
1
1
1
1
1
1
1
1
1
1
1
1
1
1
1
1
1
1
1
1
1
1
1
1
1
1
1
1
1
1
1
1
1
1
1
1
1
1
1
1
1
1
1
1
1
1
1
1
1
1
1
1
1
1
1
1
1
1
1
1
1
1
1
1
1
1
1
1
1
1
1
1
1
1
1
1
1
1
1
1
1
1
1
1
1
1
1
1
1
1
1
1
1
1
1
1
1
1
1
1
1
1
1
1
1
1
1
1
1
1
1
1
1
1
1
1
1
1
1
1
1
1
1
1
1
1
1
1
1
1
1
1
1
1
1
1
1
1
1
1
1
1
1
1
1
1
1
1
1
1
1
1
1
1
1
1
1
1
1
1
1
1
1
1
1
1
1
1
1
1
1
1
1
1
1
1
1
1
1
1
1
1
1
1
1
1
1
1
1
1
1
1
1
1
1
1
1
1
1
1
1
1
1
1
1
1
1
1
1
1
1
1
1
1
1
1
0.996811
0.999152
1
1
0.99997
1
1
1
1
1
1
1
1
1
1
1
1
1
1
1
1
1
1
1
1
1
1
1
1
1
1
1
1
1
1
1
1
1
1
1
1
1
1
1
1
1
1
1
1
1
1
1
1
1
1
1
1
1
1
1
1
1
1
1
1
1
1
1
1
1
1
1
1
1
1
1
1
1
1
1
1
1
1
1
1
1
1
1
1
1
1
1
1
1
1
1
1
1
1
1
1
1
1
1
1
1
1
1
1
1
1
1
1
1
1
1
1
1
1
1
1
1
1
1
1
1
1
1
1
1
1
1
1
1
1
1
1
1
1
1
1
1
1
1
1
1
1
1
1
1
1
1
1
1
1
1
1
1
1
1