/*--------------------------------*- C++ -*----------------------------------*\
| =========                 |                                                 |
| \\      /  F ield         | OpenFOAM: The Open Source CFD Toolbox           |
|  \\    /   O peration     | Version:  5.x                                   |
|   \\  /    A nd           | Web:      www.OpenFOAM.org                      |
|    \\/     M anipulation  |                                                 |
\*---------------------------------------------------------------------------*/
FoamFile
{
    version     2.0;
    format      ascii;
    class       volScalarField;
    location    "1.25";
    object      Ksl;
}
// * * * * * * * * * * * * * * * * * * * * * * * * * * * * * * * * * * * * * //

dimensions      [1 -3 -1 0 0 0 0];

internalField   nonuniform List<scalar> 
10571
(
7566.51
11447.2
7870.63
4614.05
8981.91
1729.8
4282.49
967.905
6357.55
11040.3
16.4589
497.012
1992.72
3512.05
6358.88
10958.6
3254.82
5087.03
3874.33
4610.99
11665.1
9794.32
7442.75
943.138
574.204
3476.32
3332.01
128.707
1282.48
1968.71
5228.08
3849.79
1386.29
1331.91
93.6078
749.394
1310.62
4843.29
3119.63
6571.52
3347.53
941.054
3937.77
5375.92
10145.6
4663.8
1573.05
11215.4
6242.42
5968.09
386.174
61.1901
521.112
3229.73
4134.03
1467.76
806.109
549.066
4625.88
1755.83
1536.64
5481.97
2219.24
396.719
1300.85
742.842
1385.42
3858.08
113.956
5960.92
3047.82
2942.47
6204.7
6294.34
92.7377
65.7601
369.337
511.596
1260.89
128.993
582.662
515.563
10622.4
1571.31
2307.35
2871.81
1715.75
540.079
3329.41
2625.94
2621.56
1796.14
37.8066
572.255
364.86
367.092
2303.83
1167.81
144.554
16.585
843.909
246.816
156.113
75.7945
572.476
596.149
5580.79
310.781
2566.07
1140.88
799.167
1622.79
3290.05
2652.53
2887.91
1700.07
17.5754
116.739
182.938
205.588
592.979
765.565
87.3884
119.669
238.595
98.3772
4.91029
259.824
173.531
631.634
10873.6
6245.53
7.79182
1232.11
337.585
18.2927
1007.22
10521.4
1980.09
258.8
380.289
18.8174
66.7899
24.1138
1547.28
259.741
253.037
610.693
144.552
1096.49
112.878
81.7418
223.198
356.915
25.1336
98.3701
4610.24
1464.21
518.95
444.714
106.845
6.62682
0.291318
7686.17
69.4482
6.08068
2.9232
14.2415
11.8181
1300.42
0
1.04603
0
174.443
506.724
257.804
141.695
88.3992
73.7756
370.858
214.639
108.216
176.06
0
75.0981
597.019
62.8191
6.78495
7.09096
13.9175
0
0
1.099
1.69131
10.6719
5.61091
0
0
0
10.848
104.602
313.022
111.803
171.685
223.944
702.367
149.726
54.8954
65.4366
11.368
0
3.45651e-14
29.0688
4.26424
3.54213
6.94642
4.27275
0
0
1.18775
1.91402
0
9.89072
4.9729
1.88867e-14
0
30.8181
8.39598
134.194
17.5606
36.6333
4.02845
30.2744
8.17917
10.2005
6.33385
0
0
0.993778
0
5.22135
0
0
1.86924
2.93563
0
10.3957
0
3.23568
0
90.1537
5.54865
23.228
33.2431
23.2603
4.46208
1.29515
2.92039
5.96588
12.9865
0
0
0.103293
3.23301e-15
4.65699
17.4469
3.93328
1.33707
1.21624
7.22573e-13
2.26369e-13
0
0
4.41846e-14
0
0
22.3591
10.8341
0
0
1.32282
2.84845
6.3436
8.12687
0
0
1.1119
0.633021
4.948
22.9222
8.32761
0.68315
0
0
0
0
0
0
29.5982
0
4.06301
14.419
5.5252
2.50504
6.05969
2.27573
4.86962
1.19112e-13
0
0
0.564905
1.23764
6.7813
9.34872
0
1.87944
0.69583
0
0
0
0
0
9.34948
0
13.8273
0
3.34957
2.86311
2.08873
5.33306
6.65909
18.7965
0
0
0.559598
0
1.42771
9.60888
1.81943
0.943332
2.67332e-14
0
0
8.22993
0
12.3598
0
0
4.89561
13.2663
17.128
0
0.153288
0.588415
1.41358
26.1215
1.82676e-12
0
0
1.2909
3.24886
14.946
0
0
0.679261
6.18758
7.98533e-14
5.72438
5.38458
0
11.664
0
0
4.92695
10.1275
0
0.590241
1.94566
5.72929
6.0589
0
0
0
1.93434
2.42723
4.85576
1.20099
0
0
0
0
0
0
0
12.2463
3.9925
3.88078
4.47135
6.73353
0
1.95686
1.2317
4.11194
23.0264
0
0
0
0.665402
3.18334
10.146
0
1.15124
1.33868
0
8.85919
0
8.53017
0
0
0
3.77368
1.15005
4.18426
0
2.08718
2.15234
4.79999
6.00135
0
5.71455
0
0
0.776143
5.1578
4.30081
0.240381
0.672964
0
0
0
0
0
14.1885
0
0
4.88562
4.41963
0
1.69722
1.57365
2.04023
1.92227
0
0
0
0.648089
0
3.1595
0
0
1.39019
5.47851
11.3718
0
0
0
0
0
0.165822
0
7.23417
0
1.11185
2.28414
1.63147
13.0226
0
0
0
0
0
9.44034
0
0
0
0
3.45616e-13
0
0
0
0
0
0
0
9.79911
0
0
0
7.95291e-14
5.59924
0
0
0
0
2.19069
0
0
0
0
0
0
0
0
0
0
0
0
0
4.57559
0
0
0
3.43887
0
0
0
0
0
2.97723e-15
0
0
0
0.623498
0
0
0
0
0
0
0
0
0
0
8.88912
0
0
0.685415
5.39816
0
0
0
0
0.0432347
0
0
0
0
0
3.61961
0
0
0
0
0
0
0
4.54288
0
0.556053
0
1.89754
0
0
0
0
0
0
0
0
0
0
0
0
0
0
0
9.00507
0
1.51126
0
0
0
0
0
0.587288
0
0
0
0
0
0
0
0
0
0.715704
0
0
0
0
0
0
0
0
0
0
0
0
0.603086
0
0.34095
0
0
0
0
1.27391
0
0
0
2.70084e-15
0
1.39542e-12
0
0
0
0
0
0
0
0
0
0
0
0
0
0
0
0
0
0
0
0
0
0
0
0
0
0
0
0
0
4.75696
0
3.66641
0
0
0.608051
0
0
0
0
0.596166
0
0
0
0
0
0
0
0
0
0
0
0
0
0
0
0
0
0
0
0
0
0
0
0
0
0
0
0
0
0
0
0
0
0
0
0
0
0
0
0
0
0
0
0
0
0
0
0
0
0
0
0
0.788411
0
0
0
0
0
0
0.883844
0
4.04808
0
0
0
0
0
0
0
0
0
0
0
0
0.114888
0
0
0
0
0
0
0
0
0
0
2.60209
0
0
6.4049
0
0
0
0
0
0
0
0
0
0
0
0
0
0
0
0
0
0
0
0
0
0
0
0
0
0
0
0
0
0
0
0
0
0
0
0
0
0
19.2992
0
0
0
0
0
0
0
0
0
0
0
0
0
0
0
0
0
0
0
0
0
0
0
0
0
0
0
0
0
0
0
0
0
0
0
0
0
0
0
0
0
0
0
0
0
0
0
0
0
0
0
0
0
0
0
0
0
0
0
0
0
0
0
0
0
0
0
0
0
0
0
0
0
0
0
0
0
0
0
0
0
0
0
0
0
0
0
0
0
0
0
0
0
0
0
0
0
0
0
0
0
0
0
0
0
0
0
0
0
0
0
0
0
0
0
0
0
0
0
0
0
0
0
0
0
0
0
0
0
0
0
0
0
0
0
0
0
0
0
0
0
0
0
0
8.18733
0
0
0
0
0
0
0
0
0
0
0
0
0
0
0
0
0
0
0
0
0
0
0
0
0
0
0
0
0
0
0
0
0
0
0
0
0
0
0
0
0
0
0
0
0
0
0
0
0
0
0
0
0
0
0
0
0
0
0
0
0
0
0
0
0
0
0
0
0
0
0
0
0
0
0
0
0
0
0
0
0
0
0
0
0
0
0
0
0
0
0
0
0
0
0
0
0
0
0
0
0
0
0
0
0
0
0
0
0
0
0
0
0
0
0
0
0
0
0
0
0
0
0
0
0
0
0
0
0
0
0
0
0
0
0
0
0
0
0
0
0
0
0
0
0
0
0
0
0
0
0
0
0
0
0
0
0
0
0
0
0
0
0
0
0
0
0
0
0
0
0
0
0
0
0
0
0
0
0
0
0
0
0
0
0
0
0
0
0
0
0
0
0
0
0
0
0
0
0
0
0
0
0
0
0
0
0
0
0
0
0
0
0
0
0
0
0
0
0
0
0
0
0
0
0
0
0
0
0
0
0
0
0
0
0
0
0
0
0
0
0
0
0
0
0
0
0
0
0
0
0
0
0
0
0
0
0
0
0
0
0
0
0
0
0
0
0
0
0
0
0
0
0
0
0
0
0
0
0
0
0
0
0
0
0
0
0
0
0
0
0
0
0
0
0
0
0
0
0
0
0
0
0
0
0
0
0
0
0
0
0
0
0
0
0
0
0
0
0
0
0
0
0
0
0
0
0
0
0
0
0
0
0
0
0
0
0
0
0
0
0
0
0
0
0
0
0
0
0
0
0
0
0
0
0
0
0
0
0
0
0
0
0
0
0
0
0
0
0
0
0
0
0
0
0
0
0
0
0
0
0
0
0
0
0
0
0
0
0
0
0
0
0
0
0
0
0
0
0
0
0
0
0
0
0
0
0
0
0
0
0
0
0
0
0
0
0
0
0
0
0
0
0
0
0
0
0
0
0
0
0
0
0
0
0
0
0
0
0
0
0
0
0
0
0
0
0
0
0
0
0
0
0
0
0
0
0
0
0
0
0
0
0
0
0
0
0
0
0
0
0
0
0
0
0
0
0
0
0
0
0
0
0
0
0
0
0
0
0
0
0
0
0
0
0
0
0
0
0
0
0
0
0
0
0
0
0
0
0
0
0
0
0
0
0
0
0
0
0
0
0
0
0
0
0
0
0
0
0
0
0
0
0
0
0
0
0
0
0
0
0
0
0
0
0
0
0
0
0
0
0
0
0
0
0
0
0
0
0
0
0
0
0
0
0
0
0
0
0
0
0
0
0
0
0
0
0
0
0
0
0
0
0
0
0
0
0
0
0
0
0
0
0
0
0
0
0
0
0
0
0
0
0
0
0
0
0
0
0
0
0
0
0
0
0
0
0
0
0
0
0
0
0
0
0
0
0
0
0
0
0
0
0
0
0
0
0
0
0
0
0
0
0
0
0
0
0
0
0
0
0
0
0
0
0
0
0
0
0
0
0
0
0
0
0
0
0
0
0
0
0
0
0
0
0
0
0
0
0
0
0
0
0
0
0
0
0
0
0
0
0
0
0
0
0
0
0
0
0
0
0
0
0
0
0
0
0
0
0
0
0
0
0
0
0
0
0
0
0
0
0
0
0
0
0
0
0
0
0
0
0
0
0
0
0
0
0
0
0
0
0
0
0
0
0
0
0
0
0
0
0
0
0
0
0
0
0
0
0
0
0
0
0
0
0
0
0
0
0
0
0
0
0
0
0
0
0
0
0
0
0
0
0
0
0
0
0
0
0
0
0
0
0
0
0
0
0
0
0
0
0
0
0
0
0
0
0
0
0
0
0
0
0
0
0
0
0
0
0
0
0
0
0
0
0
0
0
0
0
0
0
0
0
0
0
0
0
0
0
0
0
0
0
0
0
0
0
0
0
0
0
0
0
0
0
0
0
0
0
0
0
0
0
0
0
0
0
0
0
0
0
0
0
0
0
9296.81
5367.83
8570.11
2902.49
1646.2
1229.97
3567.53
4906.86
6656.7
6809.36
6838.21
6638.4
2993.78
6822.1
467.892
5495.28
1642.44
550.599
1586.13
303.702
652.377
4979.03
8043.2
3114.07
5485.75
7192.32
4215.51
2243.78
4676.54
3131.68
3243.66
7442.86
6655.11
6857.73
3033.14
8860.7
4442.54
183.611
336.608
782.658
125.43
1105.97
4147.34
610.867
4162.08
4333.64
4857.62
3824.43
2141.93
4460.21
5117.62
2818.39
1385.51
1591.95
881.229
4740.58
4171.65
625.582
664.447
1540.29
437.47
457.852
1241.35
431.712
4468.47
1190.95
5035.5
6590.8
5060.95
6799.35
4867.43
4206.65
3015.69
7206.82
5676.6
1386.75
499.987
4412.51
3322.6
301.775
1764.91
1934.88
1473.39
3929.34
4261.34
5464.21
4398
7105.8
6704.76
6053.52
5556.68
4272.2
3387.15
988.048
3717.67
1287.46
8812.03
9754.73
6838.69
8234.28
6861.39
1030.01
1821.33
1194.14
6827.57
5015.53
3342.21
1220.67
446.587
7625.69
3011.72
5303.25
7285.54
7098.39
9518.64
8507.3
6135.45
2104.03
6675.9
5718.58
11164.6
8275.57
10761
6312.45
11913.7
8187.67
8159.54
11777.2
9951.47
88.8837
6.97395
566.172
422.003
68.0466
315.337
11168.3
10811.3
10076.3
11189.2
10160.7
804.828
1198.23
0
265.623
124.494
10292.9
10605.4
11687.4
9582.13
10847.8
2434.55
1075.4
4135.07
10423.1
9445.49
2984.06
1271.36
11469.9
8408.73
8303.81
4028.18
8143.85
8499.03
11291.8
9386.32
11726.4
11643.4
10675.4
10735.1
9670.31
8554.58
7165.67
4097.37
5698.73
2874.4
7222.34
6236.34
7952.16
6030.86
9060.03
4788.1
2428.12
688.571
1113.13
109.364
967.985
3196.59
130.867
66.7891
0
2950.25
330.63
69.2329
909.254
1944.23
11538.2
11126.7
3323.95
3683.81
3395.52
4390.04
1607.09
2825.6
633.751
3772.33
2545.56
1589.1
717.891
1280.08
645.459
724.463
928.332
493.428
5141.74
121.837
799.27
10088.7
1482.95
5322.97
3299.21
1152.97
536.091
779.533
101.744
266.289
557.479
694.926
1485.92
4018.88
1471.85
8847.63
1243.79
21.2384
2141.2
5037.26
5557.74
1201.42
7823.12
3681.95
2385.5
2342.36
1909.07
1561.36
8100.22
9696.33
11203.7
3029.6
2546.13
4191.86
7329.86
1120.16
6131.91
5207.51
1169.86
2302.53
5003.95
1235.7
3306.74
7508.02
670.933
661.111
3893.44
1593.83
8705.81
2857.09
5330.13
2670.42
3338.31
1293.44
6288.3
2369.58
2890.57
604.014
1054.21
5187.59
864.474
1377.6
2320.52
1048.7
12134.1
10206
1122.53
2833.26
157.807
7418.74
1619.75
3165.2
194.623
695.73
367.535
525.926
301.307
438.843
270.859
518.863
542.999
411.609
9526.74
6034.76
9345.5
3384.8
8946.49
6882.13
503.85
68.0009
530.352
612.543
51.6141
4263.57
2674.15
8387.61
7848.9
2724.24
31.7765
336.32
438.924
32.0662
288.293
1550.99
1874.15
1699.05
2309.58
1631.13
2082.17
852.477
3909.39
2726.82
834.728
597.032
507.45
2464.39
369.255
431.038
202.97
21.4969
5162.09
3501.59
3223.19
6899.49
3196.73
3162.92
4844.99
3808.7
5384.3
2233.57
1263.97
6927.71
365.582
7110.56
5410.37
8092.37
2071.33
2184.28
6752.38
1561.81
1246.87
925.669
1116.85
4959.9
1175.67
956.709
745.8
370.746
4367.84
2024.47
2142.95
1701.19
167.165
2949.97
1803.92
522.384
258.312
438.34
260.601
555.087
448.197
559.745
475.47
677.228
361.827
417.366
648.438
8376.06
2935.12
773.1
6243.08
1155.2
648.59
72.2169
506.618
752.09
93.5093
8116.7
4380.77
7619.68
5066.74
4056.53
24.3315
203.247
790.108
16.8751
374.016
2734.8
4503.34
1551.31
4828.49
2540.44
5367.31
3998.56
2331.34
496.536
261.99
283.041
147.255
1366.89
189.83
433.899
267.348
43.3437
1171.02
482.869
682.532
309.157
214.996
230.104
211.834
227.245
226.027
219.757
210.97
125.64
279.533
2710.77
1911.06
3748.03
1315.09
988.937
3469.97
1287.62
897.275
1764.49
1013.59
1307.82
877.113
371.834
308.305
190.509
1998.64
2232.74
971.963
346.227
179.115
974.199
825.044
298.762
142.904
385.975
1595.19
446.031
868.011
130.95
1513.67
255.158
390.845
344.149
956.644
5467.72
873.784
902.751
5939.98
780.561
1157.69
260.879
543.828
1137.46
671.009
2953.45
4002.06
5561.61
1909.16
2857.75
183.235
444.981
1732.5
722.731
526.084
5598.55
4574.01
2509.15
980.208
500.466
1609.38
2295.95
974.007
2056.77
152.871
790.333
156.838
466.084
19.4103
371.783
21.2898
53.1227
346.627
357.213
221.216
89.2684
63.3366
143.85
64.112
302.077
238.196
540.31
857.105
239.732
182.418
1300.32
1009.62
2265.92
694.233
694.641
766.856
607.011
585.321
642.532
410.104
523.346
589.775
311.078
243.004
282.306
1645.87
1198.97
687.412
308.326
128.868
602.979
478.648
293.418
76.0051
179.202
253.941
127.274
154.4
180.287
170.307
112.039
279.868
312.448
1082.33
4987.16
611.083
594.864
3482.37
482.811
3382.91
745.145
6956.83
298.537
7210.3
23.0225
3116.38
11789
10120.9
11520
11366.5
10386.3
11153.1
10926.8
988.055
1226.2
5111.77
982.843
2167.07
7203.14
805.477
3424.3
22.5234
3137.81
247.859
6869.05
12488.4
10603
10110.9
11070.3
10967.2
10520.5
10649
2506.66
999.015
1747.44
4502.98
1795.12
1044.03
226.701
766.731
112.366
19.4487
128.3
0.195126
11.4835
0
7.64165
0
19.4058
309.022
56.8546
73.4193
136.995
9.2802
6.42265
27.264
2534.92
347.736
545.992
257.164
77.587
0.455233
844.823
705.75
512.059
690.61
316.03
323.34
579.47
155.575
295.096
163.556
135.354
128.066
136.627
163.622
113.957
1587.8
984.62
255.564
337.265
44.6186
653.077
210.818
363.77
33.959
141.994
120.16
146.939
86.1206
200.053
77.8007
136.83
381.805
340.356
291.771
48.9728
923.87
5642.45
0
4.00487
614.765
2779.94
560.129
521.286
922.759
759.723
662.004
18.1666
147.153
142.572
80.9334
40.1829
27.7269
10211.1
4670.2
12683
1.88282
10.0486
8.68772
34.3388
1194.8
626.899
259.029
650.178
29.0321
96.2932
10.5696
248.501
16.8196
0
15.6221
3.29452e-13
12100.5
3959.2
11226.1
2.25593
117.475
1.93624
212.185
80.8635
0
10.367
7.63611
5.9597
0.450912
3.45738
0
3.68985
6.78226
17.3513
0
4.05036
6.29678
0
12.5394
143.455
9.12821
3.51918
9001.47
0
116.421
0
0
0
30.0728
0
0
0
18.6019
16.7674
5.45373
7.86423e-13
0
3.07487
420.117
181.254
162.84
301.054
145.038
105.015
189.327
123.423
106.483
51.8399
144.071
95.4534
73.503
146.942
126.974
714.823
477.84
216.867
422.018
7.27081
668.511
271.426
539.786
66.7238
154.317
32.4823
87.4977
89.3704
161.467
148.683
203.843
213.292
7.15173
137.119
0
0
0
0
0
703.455
154.63
779.327
688.408
47.8853
631.487
24.2875
102.741
22.4141
77.1357
3.41109
71.2418
0
0
1.05313e-13
0
0
0
0
0
147.188
0.385091
34.6189
49.9265
3.89777
3.4933
0.348719
0
8.78525
3.4316
7.95233
0
0
0
0
0
0
0
0
0
8.53494
0
0
0
0
0
0
4.35763
6.41768
11.0018
0
0
6.21567
0
0
12.4475
0
0
0
0
0
0
0
0
0
0
0
0
0
0
5.8861
0
0
0
71.2984
111.627
84.544
92.1221
61.7663
72.507
100.613
85.8779
104.531
103.771
92.6586
81.6456
86.4748
155.996
120.73
103.152
14.1237
203.115
709.68
285.772
49.3406
164.667
104.855
410.621
147.605
385.846
205.625
122.933
98.2562
33.8851
43.9108
59.157
34.4816
113.567
51.4339
127.497
35.2195
5.31427e-14
23.547
5.14873
11.0881
0
7.51713
0
4.69248
0
0
0
0
0
0
0
0
12.2119
6.73443
0
11.1391
0.708756
0.641722
7.63376
3.7609
5.64382
0
5.93817
6.80493
0
0
0
0
0
0
0
0
0
0
0
0
3.95787
0
0
4.38605
5.37871
0
30.8584
0
6.17254
0
12.4789
7.17756
0
0
2.63824
0
1.30913e-13
4.89083e-14
0
0
0
0
0
0
0
44.3069
66.6263
50.5999
58.1794
37.7893
45.052
48.049
30.1843
43.7311
49.6323
56.6175
39.8704
42.3627
36.5739
24.7606
5.43744
0
62.3434
21.9404
57.3037
6.96808
6.39286
4.45164
38.4888
20.2755
6.70224
6.69338
12.9011
22.3927
3.13647e-14
4.45482
4.43102
30.2544
0.818123
11.2534
6.3649
7.9911
0
8.144e-14
5.73462
0
6.33892
5.67993
0
1.15144
0.140986
0
0
0
0
0
4.29414
0
0
0
0
0
3.55532
3.09625
0
0
0
0
17.0836
0
0
7.94084
5.47798
0.405317
0
7.37001
16.5852
0
0
0
0
6.75468
0
0
0
4.69038
14.7411
0
12.7377
25.0696
8.0274
51.6257
21.3009
22.772
43.4454
19.8228
22.0954
31.0558
16.1932
29.4763
22.6595
8.26145
15.1359
46.5589
7.9482
0
25.012
3.6941e-13
2.84055e-14
6.65349
7.17781
11.9496
12.2199
0.317171
0
6.98069
8.05152
21.406
8.69061
19.3884
24.4634
40.9213
0
0
3.65942
0
0
0
10.5469
18.4557
5.94339e-13
4.90655
33.9194
0
0
0
0
0
22.638
0
15.8322
0
3.36414
0
0
0
0
0
0
0
0
0
0
3.56932e-14
0
6.18568
0
0
0.573641
0
0
0
1.29637e-13
0
0
0
0
7.66902e-13
0
0
0
0
0
3.06042
15.4099
9.31577
0
12.3882
13.3491
9.77843
14.0008
18.5313
5.21912
36.8105
14.5753
11.5906
14.0589
48.101
3.20594e-14
0
16.3051
4.66695
0
0
2.42807
3.5916
0
26.6961
5.456
8.11438
14.717
13.7638
14.7422
15.632
37.5671
10.1986
4.43929
0
0
14.4849
11.8902
0
4.93069
17.3161
10.2945
5.04499
6.31773e-14
0
0
0
3.66452
4.67524
30.6325
6.18523
0.112675
29.5295
0
0
0
0
0
0
5.00359e-13
0
2.93612e-14
5.15134
0.277954
0
12.1167
0
0
0
3.91654
0
0
0
0
28.2522
0
6.37935
0
0
0
0
0
0
0
7.16219
2.89644e-13
5.4694e-13
7.84605
15.2698
8.25122e-14
8.85009
1.72258
10.0587
7.85954
16.7792
3.60454
9.28719
22.7353
27.7199
0
6.93682
1.59283
2.38672e-13
10.7905
0
5.86544
3.53576
2.31002
13.3776
4.77136
8.95629
7.28748
0
0
20.851
10.0161
0
1.56715e-13
0
3.34861
15.1847
0
0
10.3535
0
12.1906
20.9843
37.375
0
0
0
3.74439
0
15.6355
5.03509
4.52617
0
4.49272
0
0
0
0
0
0
0.268272
0
5.35512
0
0
17.3131
0
5.14741
6.51441
0
5.67766
16.5898
6.42215e-13
7.68795
0
0
0
0
0
0
0
6.37731
0
0
0
7.39974
21.1419
16.0189
10.8223
12.455
7.82143
3.46817
6.00397
4.74775
26.3719
6.43436
5.3233
0.595549
26.6736
0
0
0.151357
3.49452
0
0
0
0
0
6.83301
4.7767
8.98107
14.0626
15.494
6.28751
18.4262
47.0614
47.5421
6.01921e-13
0
0
0
0
0
4.98133
0
12.333
10.6285
18.6098
2.72923e-13
0
37.3728
0
0
16.166
0
3.28657
21.5324
0
0
0
1.18187e-13
0
5.47272e-14
2.79607
0
0
3.29683e-14
10.2483
0.252668
12.6545
0
3.37152
0.135762
8.91301
0
0
15.3432
0
0
0
6.04435
0
0
0
0
0
0
3.60651
7.60741
0.504761
23.5714
1.60186
6.62172
4.73254e-13
3.5779
1.26177e-14
10.5202
20.7441
46.395
10.3634
17.5108
7.45375
33.5888
0
0
6.4454
3.76616
7.5152
0
4.93505
5.7869
10.6603
50.7172
10.5397
15.4928
20.9653
19.1392
0.506368
7.05604
5.88461
10.0542
0
0
0
0
0
0
10.5868
38.7407
22.2213
11.1735
18.813
0
0
0
0
0
16.3607
0
0.143988
15.7949
8.28915
0
0
0
0
0.20468
0
0
0
5.5107
4.93294
6.00674
0
2.36506e-14
7.6611e-15
0
0
8.43772
0
0
0
0
2.90746
0
0
11.801
0
3.76443e-13
0
0
0
0
0
11.0107
2.43131
0
11.1154
2.68907
0
13.03
25.23
1.40207
11.2935
11.3615
12.1638
38.1084
0
0
0
0
2.54603e-13
2.06034
3.59186
5.47818
5.21272
10.2223
0
4.91808
18.586
15.6997
4.74373
14.2769
10.1498
19.4475
0
0
0
0
0
0
10.2389
0
6.27611
14.4281
4.57276e-14
0
0
0
0
0
16.7998
1.93838
3.54368
22.1535
0
0
0
0
0
0
3.96262
5.7729
0
0
0
0
0
0
4.89064
0
0
8.62729
15.1099
0
0
0
0
0
0
0
0
0
0
0
0
0.532769
0
0
4.02883
8.68184
0
0
1.95386e-13
8.60472
15.9866
0
10.8607
9.7581
11.2336
34.2875
0
7.68517
3.5074
0.9695
0.220144
0
3.3832
0
0
19.5445
4.99767
4.80716
8.81236
20.5619
4.49561
9.34277
19.9162
5.22319
0
0
0
0
0
0
11.0139
0
16.3562
6.24418
0
0
5.80135
0
0
0
0
0
14.3977
0
0
0
0
0
0
0
8.05656
0
0
0
0
0
0
0
0
0
8.60967
0
0
0
0
0
0
0
0
0
0
5.55152e-13
0
0
0
0
0
0
0
0
1.24831
0
0
0
5.08426
12.428
4.13243
28.8421
21.3481
1.5224
0
0
0
0.923288
0
0
3.25306
2.6253
0
10.8248
0
0
17.0331
8.89467
11.9111
0.288908
2.94287
9.59198
0
0
0
0
0
0
0
0
0.461068
5.54154
17.9617
4.72879
5.36508
0
0
0
0
6.01829
4.82612
16.3663
2.31174e-14
1.52744
0
6.23501e-13
0
0
0
0
0
5.83138
9.841
0
8.13278
1.03424
0
5.8333
0
0
0
0
0
0
0
0
0
0
0
0
5.0441
0
0
0
0
0
0
0
0
0
0
1.52967e-13
8.02723
0
7.68288
5.81072
0
9.33074
0
0
0
3.25648
0
0
3.33154
0
0
39.7909
2.31326e-13
0
4.21673
10.6392
5.24484
5.92216
19.6307
19.5261
0
0
0
0
0
0
0
0
13.4039
5.12492
0
0
0
0
0
0
6.38676e-13
0
6.4636
0
0
0
0
5.85109
0
0
0
0
0
0
6.11655
2.79638e-13
0
0
3.82828
0
0
8.21578
0
0
0
21.2475
0
0
0
0
0
0
0
0
0
0
0
0
0
4.30443e-13
0
0
0
13.5195
0
0
2.58134
0
18.1982
0
0
0
0
0
0
0
0
0
0
12.4725
5.12698
8.50459
0.150767
23.9195
0
9.63733
9.68201
0
0
0
0
0
0
0
2.48049
0
0
3.37756
0
0
0
0
0
0
0
5.33936
0.967454
11.0826
5.39859
0
0
0
0
0
0
0
0
0
4.69727
4.92097
4.68384e-14
0
0
0
0
0
0
0
0
0
0
0
0
0
0
0
0
0
0
0
0
0
0
0
0
0
0
0
0.282901
0
0
0
15.9352
3.2825
0
0
3.40721
0
0
0
2.72773
0
0
4.67083
0.125843
0.19612
2.39071e-14
0.261387
7.63972
4.73421
8.29064
0
0
0
0
4.85202
0
0
4.54942
0
0
4.68096
16.3844
0
0
0
0
0
0
0
13.4738
14.5872
0
0
0
0
0
0
0
0
0
0
0
0
0
0
0
0
0
0
0
0
0
0
0
0
0
0
0
0
0
0
0
7.63558
0
13.6767
0
0
0
0
0
0
5.10672
0
4.00177
2.27212e-14
0
5.65209
0
0
0.684781
0
0
0
0
0
0
7.66667
9.01705
0.453141
1.40299
0
3.46778
0.160161
18.633
0.381236
0
0
0
0
0
0
0
0
5.3541
0
0
0
0
0
0
0
0
0
0
0
0
0
0
0
0
0
0
0
0
0
0
0
0
0
0
0
0
0
0
0
0
0
0
0
0
0
0
0
0
0
9.75674
0
0
0
0
3.83924
0
0
4.04255
0
0
0
5.50669
5.20227
0
0
0
0
3.68208
0
0
0
0
0
0
0
1.84009
4.46186
0
0
0
0
3.22822
6.10068
0
0
0
0
0
0
2.82574
0
0
1.52112
0
0
0
0
0
0
0
4.1374
0
27.4083
0
0
0
0
0
0
0
0
0
0
0.372821
0
0
0
0
0
0
0
0
0
0
0
0
0
22.0216
0
0
0
0
0
0
0
0
0
0
0
0
0
0
2.37296
0.345236
4.64531
2.67063
0
0
0
0
0
0
0
0
0
0
0
0
0
0
0
0
0
0
0
0
9.40936
0
0
0
0
0
4.17821
0
0
0
3.77703
0
0
0
0
0
0
2.02127e-12
0
4.17512
0.57642
0
0
0
0
0
0
0
0
0
0
0
0
17.2975
4.40191
0
0
1.0914e-12
0
0
0
0
2.36223e-12
0
0
29.1948
0
0
0
0
0
0
0
0
0
0
0
0
0
0
1.34547
3.41614
0
4.21014
7.07566
0
7.29152
0
0
0
0
0
0
0
0
0
0
0
0
0
0
0
4.05237
0
0
0
0
0
0
0
0
1.87409e-14
0
0
0
0
0
0
0
0
0
0
0
0
0
0
0
0
0
0
0
0
0
0
0
0
0
0
0
0
0
0
20.7072
0
0
0
0.770925
0
0
0
0
0
0
0
0
0
0
0
0
0
0
0
0
0
0
0
0
0
0.181598
1.86613
0
0
0
0
0
0
0
0
0
0
0
0
0
0
4.96689
0
1.34513
8.58675
0
0
0
0
0
0
0
0
0
0
0
0
0
0
0
0
0
0
0
0
14.2271
0
0
0
0
0
0
0
0
0
0
0
0
0
0
0
0
0
0
0
0
0
0
0
0
0
0
0
0
0
0
0
0
0
0
0
0
0
0
0
0
5.11299
0
0
2.91361e-14
0
6.85737
0
0
0
0
0
0
3.76071
0
0
2.69865
0
2.59208
0.125952
7.24696
0
0
0
0
0
0
0
0
0
0
0
0
0
0
0
0
5.71325
0
0
0.203294
0
0
0
0
0
0
0
0
0
0
0
0
0
0
0
0
0
0
0
0
0
0
0
0
0
0
0
0
0
0
0
0
0
0
0
0
0
0
0
0
0
4.76426
0
0
0
0
0
0
1.74068
0
0
0
0
0
0
0
0
0
5.91087
0
0
0
0
0
0
0
0
0
0
0
4.0221
0
0
0
0
0
0
0
0
0
0
0
0
0
0
0
0
0
0
0
0
0
0
0
0
0
0
6.15381
0
0
0
0
0
0
0
0
0
0
0
0
0
0
0
0
0
0
0
0
0
0
0
0
0
0
0
0
0
0
0
0
0
0
0
0
0
0
0
0
0
0
0
0
0
0
0
0
0
0
0.382022
0
0
0
0
0
0
0
0
0
0
0
0
0
0
0
0
0
0
0
0
0
0
0
0
0
0
0
0
0
0
0
0
0
0
0
0
0
0
0
0
0
0
0
0
0
0
0
0
0
0
0
0
0
0
0
0
0
0
0
0
0
0
0
0
0
0
4.9036
0
0
0
0
3.55983
0
0
0
0
0
0
0
0
0
0
0
0
0
0
0
0
0
0
0
0
0
0
0
0
0
0
0
0
0
0
0
0
0
0
0
0
0
0
0
0
0
0
0
0
0
0
0
0
0
0
0
0
0
0
0
0
0
0
0
0
0
0
0
0
0
0
0
0
0
0
0
0
0
0
3.95778
0
0
0
0
0
0
0
0
0
0
0
0
0
5.30291
0
0
0
0
0
0
0
0
0
7.70059
0
0
0
0
0
0
0
0
0.634589
0
0
0
0
0
0
0
0
4.47467
0
0
0
0
0
0
0
0
0
0
0
0
0
0
0
0
0
0
0
0
0
0
0
0
0
0
0
0
0
0
0
0
0
0
0
0
0
0
0
0
0
0
0
0
0
0
0
0
0
0
1.38158e-14
0
0
0
0
0.673521
4.07159
0
0
0
0
0
0
0
0
0
0
0
0
0
0
0
0
0
0
0
0
0
0
0
0
0
0
0
0
0
0
0
0
0
0
0
0
0
0
0
0
0
0
0
0
0
0
0
0
0
8.21771
0
0
0.213176
0
0
0
0
0
0
0
0
0
0
0
0
0
0
0
0
0
0
0
0
0
0
0
0
0
0
0
0
3.52648
0
0
0
0
0
0
0
0
0
0
0
0
0
0
0
0
0
0
0
0
0
0
0
0
0
0
0
0
0
0
0
0
0
0
0
0
0
0
0
0
0
0
0
0
0
0
0
0
0.390836
0
0
0
0
0
0
0
0
0
0
0
0
0
0
0
0
0
0
0
0
0
0
0
0
0
0
0
0
0
0
0
0
0
0
0
0
0
0
0
0
0
0
0
0
0
0
0
0
0
0
0
0
0
0
0
0
0
0
0
0
0
0
0
0
0
0
0
0
0
0
0
0
0
0
0
0
0
0
0
0
0
0
0
0
0
0
0
0
0
0
0
0
0
0
0
0
0
0
0
0
0
0
0
0
0
0
0
0
0
0
0
0
0
0
0
0
0
0
0
0
0
0
0
0
0
0
0
0
0
0
0
0
0
0
0
0
0
0
0
0
0
0
0
0
0
0
0
0
0
0
0
0
0
0
0
0
0
6.25483
0
0
0
0
0
0
0
0
0
0
0
0
0
0
0
0
0
0
0
0
0
0
0
0
0
0
0
0
0
0
0
0
0
0
0
0
0
0
0
0
0
0
0
0
0
0
0
0
0
0
0
0
0
0
0
0
0
0
0
0
0
0
0
0
0
0
0
0
0
0
0
0
0
0
0
0
0
0
0
0
0
0
0
0
0
0
0
0
0
0
0
0
0
0
0
0
0
0
0
0
0
0
0
0
0
0
0
0
0
0
0
0
0
0
0
0
0
0
0
0
0
0
0
0
0
0
0
0
0
0
0
0
0
0
0
0
0
0
0
0
0
0
0
0
0
0
0
0
0
0
0
0
0
0
0
0
0
0
0
0
0
0
0
0
0
0
0
0
0
0
0
0
0
0
0
0
0
0
0
0
0
0
0
0
0
0
0
0
0
0
0
0
0
0
0
0
0
0
0
0
0
0
0
0
0
0
0
0
0
0
0
0
0
0
0
0
0
0
0
0
0
0
0
0
0
0
0
0
0
0
0
0
0
0
0
0
0
0
0
0
0
0
0
0
0
0
0
0
0
0
0
0
0
0
0
0
0
0
0
0
0
0
0
0
0
0
0
0
0
0
0
0
0
0
0
0
0
0
0
0
0
0
0
0
0
0
0
0
0
0
0
0
0
0
0
0
0
0
0
0
0
0
0
0
0
0
0
0
0
0
0
0
0
0
0
0
0
0
0
0
0
0
0
0
0
0
0
0
0
0
0
0
0
0
0
0
0
0
0
0
0
0
0
0
0
0
0
0
0
0
1.58547
0
0
0
0
0
0
0
0
0
0
0
0
0
0
0
0
0
0
0
0
0
0
0
0
0
0
0
0
0
0
0
0
0
0
0
0
0
0
0
0
0
0
0
0
0
0
0
0
0
0
0
0
0
0
0
0
0
0
0
0
0
0
0
0
0
0
0
0
0
0
0
0
0
0
0
0
0
0
0
0
0
0
0
0
0
0
0
0
0
0
0
0
0
0
0
0
0
0
0
0
0
0
0
0
0
0
0
0
0
0
0
0
0
0
0
0
0
0
0
0
0
0
0
0
0
0
0
0
0
0
0
0
0
0
0
0
0
0
0
0
0
0
0
0
0
0
0
0
0
0
0
0
0
0
0
0
0
0
0
0
0
0
0
0
0
0
0
0
0
0
0
0
0
0
0
0
0
0
0
0
0
0
0
0
0
0
0
0
0
0
0
0
0
0
0
0
0
0
0
0
0
0
0
0
0
0
0
0
0
0
0
0
0
0
0
0
0
0
0
0
0
0
0
0
0
0
0
0
0
0
0
0
0
0
0
0
0
0
0
0
0
0
0
0
0
0
0
0
0
0
0
0
0
0
0
0
0
0
0
0
0
0
0
0
0
0
0
0
0
0
0
0
0
0
0
0
0
0
0
0
0
0
0
0
0
0
0
0
0
0
0
0
0
0
0
0
0
0
0
0
0
0
0
0
0
0
0
0
0
0
0
0
0
0
0
0
0
0
0
0
0
0
0
0
0
0
0
0
0
0
0
0
0
0
0
0
0
0
0
0
0
0
0
0
0
0
0
0
0
0
0
0
0
0
0
0
0
0
0
0
0
0
0
0
0
0
0
0
0
0
0
0
0
0
0
0
0
0
0
0
0
0
0
0
0
0
0
0
0
0
0
0
0
0
0
0
0
0
0
0
0
0
0
0
0
0
0
0
0
0
0
0
0
0
0
0
0
0
0
0
0
0
0
0
0
0
0
0
0
0
0
0
0
0
0
0
0
0
0
0
0
0
0
0
0
0
0
0
0
0
0
0
0
0
0
0
0
0
0
0
0
0
0
0
0
0
0
0
0
0
0
0
0
0
0
0
0
0
0
0
0
0
0
0
0
0
0
0
0
0
0
0
0
0
0
0
0
0
0
0
0
0
0
0
0
0
0
0
0
0
0
0
0
0
0
0
0
0
0
0
0
0
0
0
0
0
0
0
0
0
0
0
0
0
0
0
0
0
0
0
0
0
0
0
0
0
0
0
0
0
0
0
0
0
0
0
0
0
0
0
0
0
0
0
0
0
0
0
0
0
0
0
0
0
0
0
0
0
0
0
0
0
0
0
0
0
0
0
0
0
0
0
0
0
0
0
0
0
0
0
0
0
0
0
0
0
0
0
0
0
0
0
0
0
0
0
0
0
0
0
0
0
0
0
0
0
0
0
0
0
0
0
0
0
0
0
0
0
0
0
0
0
0
0
0
0
0
0
0
0
0
0
0
0
0
0
0
0
0
0
0
0
0
0
0
0
0
0
0
0
0
0
0
0
0
0
0
0
0
0
0
0
0
0
0
0
0
0
0
0
0
0
0
0
0
0
0
0
0
0
0
0
0
0
0
0
0
0
0
0
0
0
0
0
0
0
0
0
0
0
0
0
0
0
0
0
0
0
0
0
0
0
0
0
0
0
0
0
0
0
0
0
0
0
0
0
0
0
0
0
0
0
0
0
0
0
0
0
0
0
0
0
0
0
0
0
0
0
0
0
0
0
0
0
0
0
0
0
0
0
0
0
0
0
0
0
0
0
0
0
0
0
0
0
0
0
0
0
0
0
0
0
0
0
0
0
0
0
0
0
0
0
0
0
0
0
0
0
0
0
0
0
0
0
0
0
0
0
0
0
0
0
0
0
0
0
0
0
0
0
0
0
0
0
0
0
0
0
0
0
0
0
0
0
0
0
0
0
0
0
0
0
0
0
0
0
0
0
0
0
0
0
0
0
0
0
0
0
0
0
0
0
0
0
0
0
0
0
0
0
0
0
0
0
0
0
0
0
0
0
0
0
0
0
0
0
0
0
0
0
0
0
0
0
0
0
0
0
0
0
0
0
0
0
0
0
0
0
0
0
0
0
0
0
0
0
0
0
0
0
0
0
0
0
0
0
0
0
0
0
0
0
0
0
0
0
0
0
0
0
0
0
0
0
0
0
0
0
0
0
0
0
0
0
0
0
0
0
0
0
0
0
0
0
0
0
0
0
0
0
0
0
0
0
0
0
0
0
0
0
0
0
0
0
0
0
0
0
0
0
0
0
0
0
0
0
0
0
0
0
0
0
0
0
0
0
0
0
0
0
0
0
0
0
0
0
0
0
0
0
0
0
0
0
0
0
0
0
0
0
0
0
0
0
0
0
0
0
0
0
0
0
0
0
0
0
0
0
0
0
0
0
0
0
0
0
0
0
0
0
0
0
0
0
0
0
0
0
0
0
0
0
0
0
0
0
0
0
0
0
0
0
0
0
0
0
0
0
0
0
0
0
0
0
0
0
0
0
0
0
0
0
0
0
0
0
0
0
0
0
0
0
0
0
0
0
0
0
0
0
0
0
0
0
0
0
0
0
0
0
0
0
0
0
0
0
0
0
0
0
0
0
0
0
0
0
0
0
0
0
0
0
0
0
0
0
0
0
0
0
0
0
0
0
0
0
0
0
0
0
0
0
0
0
0
0
0
0
0
0
0
0
0
0
0
0
0
0
0
0
0
0
0
0
0
0
0
0
0
0
0
0
0
0
0
0
0
0
0
0
0
0
0
0
0
0
0
0
0
0
0
0
0
0
0
0
0
0
0
0
0
0
0
0
0
0
0
0
0
0
0
0
0
0
0
0
0
0
0
0
0
0
0
0
0
0
0
0
0
0
0
0
0
0
0
0
0
0
0
0
0
0
0
0
0
0
0
0
0
0
0
0
0
0
0
0
0
0
0
0
0
0
0
0
0
0
0
0
0
0
0
0
0
0
0
0
0
0
0
0
0
0
0
0
0
0
0
0
0
0
0
0
0
0
0
0
0
0
0
0
0
0
0
0
0
0
0
0
0
0
0
0
0
0
0
0
0
0
0
0
0
0
0
0
0
0
0
0
0
0
0
0
0
0
0
0
0
0
0
0
0
0
0
0
0
0
0
0
0
0
0
0
0
0
0
0
0
0
0
0
0
0
0
0
0
0
0
0
0
0
0
0
0
0
0
0
0
0
0
0
0
0
0
0
0
0
0
0
0
0
0
0
0
0
0
0
0
0
0
0
0
0
0
0
0
0
0
0
0
0
0
0
0
0
0
0
0
0
0
0
0
0
0
0
0
0
0
0
0
0
0
0
0
0
0
0
0
0
0
0
0
0
0
0
0
0
0
0
0
0
0
0
0
0
0
0
0
0
0
0
0
0
0
0
0
0
0
0
0
0
0
0
0
0
0
0
0
0
0
0
0
0
0
0
0
0
0
0
0
0
0
0
0
0
0
0
0
0
0
0
0
0
0
0
0
0
0
0
0
0
0
0
0
0
0
0
0
0
0
0
0
0
0
0
0
0
0
0
0
0
0
0
0
0
0
0
0
0
0
0
0
0
0
0
0
0
0
0
0
0
0
0
0
0
0
0
0
0
0
0
0
0
0
0
0
0
0
0
0
0
0
0
0
0
0
0
0
0
0
0
0
0
0
0
0
0
0
0
0
0
0
0
0
0
0
0
0
0
0
0
0
0
0
0
0
0
0
0
0
0
0
0
0
0
0
0
0
0
0
0
0
0
0
0
0
0
0
0
0
0
0
0
0
0
0
0
0
0
0
0
0
0
0
0
0
0
0
0
0
0
0
0
0
0
0
0
0
0
0
0
0
0
0
0
0
0
0
0
0
0
0
0
0
0
0
0
0
0
0
0
0
0
0
0
0
0
0
0
0
0
0
0
0
0
0
0
0
0
0
0
0
0
0
0
0
0
0
0
0
0
0
0
0
0
0
0
0
0
0
0
0
0
0
0
0
0
0
0
0
0
0
0
0
0
0
0
0
0
0
0
0
0
0
0
0
0
0
0
0
0
0
0
0
0
0
0
0
0
0
0
0
0
0
0
0
0
0
0
0
0
0
0
0
0
0
0
0
0
0
0
0
0
0
0
0
0
0
0
0
0
0
0
0
0
0
0
0
0
0
0
0
0
0
0
0
0
0
0
0
0
0
0
0
0
0
0
0
0
0
0
0
0
0
0
0
0
0
0
0
0
0
0
0
0
0
0
0
0
0
0
0
0
0
0
0
0
0
0
0
0
0
0
0
0
0
0
0
0
0
0
0
0
0
0
0
0
0
0
0
0
0
0
0
0
0
0
0
0
0
0
0
0
0
0
0
0
0
0
0
0
0
0
0
0
0
0
0
0
0
0
0
0
0
0
0
0
0
0
0
0
0
0
0
0
0
0
0
0
0
0
0
0
0
0
0
0
0
0
0
0
0
0
0
0
0
0
0
0
0
0
0
0
0
0
0
0
0
0
0
0
0
0
0
0
0
0
0
0
0
0
0
0
0
0
0
0
0
0
0
0
0
0
0
0
0
0
0
0
0
0
0
0
0
0
0
0
0
0
0
0
0
0
0
0
0
0
0
0
0
0
0
0
0
0
0
0
0
0
0
0
0
0
0
0
0
0
0
0
0
0
0
0
0
0
0
0
0
0
0
0
0
0
0
0
0
0
0
0
0
0
0
0
0
0
0
0
0
0
0
0
0
0
0
0
0
0
0
0
0
0
0
0
0
0
0
0
0
0
0
0
0
0
0
0
0
0
0
0
0
0
0
0
0
0
0
0
0
0
0
0
0
0
0
0
0
0
0
0
0
0
0
0
0
0
0
0
0
0
0
0
0
0
0
0
0
0
0
0
0
0
0
0
0
0
0
0
0
0
0
0
0
0
0
0
0
0
0
0
0
0
0
0
0
0
0
0
0
0
0
0
0
0
0
0
0
0
0
0
0
0
0
0
0
0
0
0
0
0
0
0
0
0
0
0
0
0
0
0
0
0
0
0
0
0
0
0
0
0
0
0
0
0
0
0
0
0
0
0
0
0
0
0
0
0
0
0
0
0
0
0
0
0
0
0
0
0
0
0
0
0
0
0
0
0
0
0
0
0
0
0
0
0
0
0
0
0
0
0
0
0
0
0
0
0
0
0
0
0
0
0
0
0
0
0
0
0
0
0
0
0
0
0
0
0
0
0
0
0
0
0
0
0
0
0
0
0
0
0
0
0
0
0
0
0
0
0
0
0
0
0
0
0
0
0
0
0
0
0
0
0
0
0
0
0
0
0
0
0
0
0
0
0
0
0
0
0
0
0
0
0
0
0
0
0
0
0
0
0
0
0
0
0
0
0
0
0
0
0
0
0
0
0
0
0
0
0
0
0
0
0
0
0
0
0
0
0
0
0
0
0
0
0
0
0
0
0
0
0
0
0
0
0
0
0
0
0
0
0
0
0
0
0
0
0
0
0
0
0
0
0
0
0
0
0
0
0
0
0
0
0
0
0
0
0
0
0
0
0
0
0
0
0
0
0
0
0
0
0
0
0
0
0
0
0
0
0
0
0
0
0
0
0
0
0
0
0
0
0
0
0
0
0
0
0
0
0
0
0
0
0
0
0
0
0
0
0
0
0
0
0
0
0
0
0
0
0
0
0
0
0
0
0
0
0
0
0
0
0
0
0
0
0
0
0
0
0
0
0
0
0
0
0
0
0
0
0
0
0
0
0
0
0
0
0
0
0
0
0
0
0
0
0
0
0
0
0
0
0
0
0
0
0
0
0
0
0
0
0
0
0
0
0
0
0
0
0
0
0
0
0
0
0
0
0
0
0
0
0
0
0
0
0
0
0
0
0
0
0
0
0
0
0
0
0
0
0
0
0
0
0
0
0
0
0
0
0
0
0
0
0
0
0
0
0
0
0
0
0
0
0
0
0
0
0
0
0
0
0
0
0
0
0
0
0
0
0
0
0
0
0
0
0
0
0
0
0
0
0
0
0
0
0
0
0
0
0
0
0
0
0
0
0
0
0
0
0
0
0
0
0
0
0
0
0
0
0
0
0
0
0
0
0
0
0
0
0
0
0
0
0
0
0
0
0
0
0
0
0
0
0
0
0
0
0
0
0
0
0
0
0
0
0
0
0
0
0
0
0
0
0
0
0
0
0
0
0
0
0
0
0
0
0
0
0
0
0
0
0
0
0
0
0
0
0
0
0
0
0
0
0
0
0
0
0
0
0
0
0
0
0
0
0
0
0
0
0
0
0
0
0
0
0
0
0
0
0
0
0
0
0
0
0
0
0
0
0
0
0
0
0
0
0
0
0
0
0
0
0
0
0
0
0
0
0
0
0
0
0
0
0
0
0
0
0
0
0
0
0
0
0
0
0
0
0
0
0
0
0
0
0
0
0
0
0
0
0
0
0
0
0
0
0
0
0
0
0
0
0
0
0
0
0
0
0
0
0
0
0
0
0
0
0
0
0
0
0
0
0
0
0
0
0
0
0
0
0
0
0
0
0
0
0
0
0
0
0
0
0
0
0
0
0
0
0
0
0
0
0
0
0
0
0
0
0
0
0
0
0
0
0
0
0
0
0
0
0
0
0
0
0
0
0
0
0
0
0
0
0
0
0
0
0
0
0
0
0
0
0
0
0
0
0
0
0
0
0
0
0
0
0
0
0
0
0
0
0
0
0
0
0
0
0
0
0
0
0
0
0
0
0
0
0
0
0
0
0
0
0
0
0
0
0
0
0
0
0
0
0
0
0
0
0
0
0
0
0
0
0
0
0
0
0
0
0
0
0
0
0
0
0
0
0
0
0
0
0
0
0
0
0
0
0
0
0
0
0
0
0
0
0
0
0
0
0
0
0
0
0
0
0
0
0
0
0
0
0
0
0
0
0
0
0
0
0
0
0
0
0
0
0
0
0
0
0
0
0
0
0
0
0
0
0
0
0
0
0
0
0
0
0
0
0
0
0
0
0
0
0
0
0
4325.66
7986.67
1303.84
6338
2092.77
9967.86
3619.91
5254.42
1949.54
4827.79
1774.14
1979.08
4864.44
6328.03
3700.31
1367.41
1055.2
635.619
1870.89
1389.99
651.62
1067.77
1736.6
3195.7
4668.47
1963.84
2232.29
4255.31
1739.18
686.738
1474.33
4002.91
7118.64
1391.33
4635.44
9981.17
5192.62
8626.99
8356.96
6532.73
4215.74
4521.72
852.792
597.437
1598.93
1168.17
686.785
526.325
372.477
1805.55
3779.81
3771.97
1773.34
4824.96
1204.15
4329.98
1523.19
1861.01
5061.73
6437.6
3840.48
6302.39
7329.62
8969.27
5525.07
8401.76
4029.62
1908.39
5664.25
6586.81
6968.84
8407.57
8012.64
1874.87
3959.31
3949.62
1240.7
3108.58
5935
1637.78
4278.48
7796.4
3975.72
6642.31
645.471
9076.77
1823.02
988.206
96.6129
5006.59
1301.14
20.982
1315.02
841.027
61.2297
7.21028
104.108
19.9518
2901.04
518.501
1165.56
4530.18
3852.91
2129.33
1315.93
710.06
538.246
713.765
753.129
1272.94
1647.13
1030.22
68.2555
1639.11
679.456
179.802
313.614
516.573
339.789
21.9117
89.6142
33.9744
60.2368
129.839
75.6012
21.293
1291.27
3979.33
1728.32
844.348
416.374
1890.3
2003.92
1768.65
2667.64
2933.18
2000.47
3009.28
2912.51
2791.03
282.155
89.7975
52.7571
145.184
136.314
38.9718
17.5541
214.529
42.3106
23.7823
22.0071
177.066
22.8976
61.7037
127.334
1245.75
2920.73
233.165
9.07914
170.055
427.756
3517.93
4493.3
2340.88
1434.24
3059.83
4346.14
3638.38
45.7715
66.8324
21.9024
124.539
17.5903
101.197
31.7836
223.89
2.68339e-14
67.9623