/*--------------------------------*- C++ -*----------------------------------*\
| =========                 |                                                 |
| \\      /  F ield         | OpenFOAM: The Open Source CFD Toolbox           |
|  \\    /   O peration     | Version:  5.x                                   |
|   \\  /    A nd           | Web:      www.OpenFOAM.org                      |
|    \\/     M anipulation  |                                                 |
\*---------------------------------------------------------------------------*/
FoamFile
{
    version     2.0;
    format      ascii;
    class       volVectorField;
    location    "8.3";
    object      Us;
}
// * * * * * * * * * * * * * * * * * * * * * * * * * * * * * * * * * * * * * //

dimensions      [0 1 -1 0 0 0 0];

internalField   nonuniform List<vector> 
10571
(
(0.0327346 0.0199436 0.0188917)
(-0.0367144 0.0414458 0.00132565)
(-0.0734438 0.141424 0.0505368)
(0.00344271 0.101828 0.05601)
(-0.112587 -0.0301847 0.0382461)
(0.0206414 -0.0201527 0.0290464)
(-0.074106 0.131776 0.108134)
(-0.270298 0.0495332 0.142661)
(-0.180809 -0.0566204 -0.0668622)
(-0.0258842 -0.043392 -0.0599543)
(0.0171931 -0.0314762 -0.0993039)
(0.0892096 -0.0705269 0.0293259)
(-0.102887 -0.0704263 -0.0457997)
(-0.140492 -0.0130529 0.021956)
(-0.125067 0.035857 -0.127039)
(-0.0460913 0.047991 -0.0802793)
(0.0375128 -0.0236643 -0.0287346)
(0.0515674 -0.0597721 -0.112239)
(-0.154974 0.128861 0.0116278)
(-0.22664 0.11538 -0.00749589)
(-0.04764 0.0596659 -0.0928769)
(0.00905243 0.0150849 -0.0321573)
(-0.000608317 -0.00461988 -0.0425285)
(-0.0753062 0.0518229 0.0334145)
(0.00594643 0.000716962 0.0127427)
(0.112011 -0.116397 -0.329431)
(0.0353552 0.0510077 -0.0633415)
(0.00394749 0.00273873 0.0292463)
(-0.0204702 -0.0251225 0.0489466)
(0.0746048 -0.113665 -0.253674)
(-0.0518435 -0.0669409 0.0413614)
(-0.0572298 -0.0780068 0.0014462)
(-0.0366451 -0.085433 -0.164155)
(-0.0242196 -0.0636272 -0.110131)
(-0.00791041 -0.0816662 -0.384348)
(-0.00172783 -0.170492 -0.291807)
(0.00947799 -0.179738 -0.207782)
(0.0917949 -0.199178 -0.149571)
(-0.0131079 -0.0666781 -0.18945)
(-0.0143887 -0.0312634 -0.146975)
(-0.00587189 -0.0810365 -0.382876)
(0.0356633 -0.0959601 -0.254754)
(0.105748 -0.0493606 -0.239019)
(0.101854 -0.0181134 -0.214675)
(-0.00584737 -0.0139515 -0.170329)
(0.0151957 -0.0322596 -0.347808)
(0.101018 -0.0161994 -0.315728)
(0.108548 -0.0390266 -0.237744)
(-0.0212392 -0.00230613 0.0422801)
(0.106165 -0.116121 -0.299314)
(0.145641 -0.138921 -0.130008)
(0.0757959 -0.0660398 -0.0535541)
(0.0373441 -0.052993 -0.0694681)
(0.0577 -0.154723 -0.168494)
(0.0191489 -0.195993 0.00614805)
(0.0869117 -0.207955 -0.129005)
(0.017594 -0.121465 -0.161233)
(-0.0151958 -0.0603755 -0.108589)
(-0.00514105 -0.0605026 -0.327408)
(0.0179944 -0.152668 -0.207683)
(0.0456636 -0.161513 -0.141104)
(0.131803 -0.158781 -0.184876)
(0.0846387 -0.120881 -0.196631)
(0.0177453 -0.0766915 -0.160948)
(0.0242886 -0.0122574 -0.314127)
(0.0853851 -0.0659652 -0.264718)
(0.126948 -0.0886103 -0.2023)
(0.163225 -0.0945385 -0.107695)
(0.0398997 -0.0655963 -0.199708)
(0.0475994 -0.00726342 -0.270853)
(0.121387 -0.0112191 -0.25797)
(0.135929 -0.0370446 -0.115749)
(0.115195 -0.00690732 -0.159351)
(0.0796312 -0.119467 -0.228733)
(0.126581 -0.175254 -0.0385911)
(0.143825 -0.145753 -0.0907064)
(0.0560015 -0.0342926 -0.0203343)
(0.0131186 -0.191667 -0.099543)
(0.0249858 -0.204029 0.104657)
(0.212857 -0.191874 -0.0682)
(0.0903998 -0.129254 -0.0949109)
(-0.00142845 -0.0654678 -0.038767)
(-0.00258296 -0.0193663 -0.308715)
(0.0195077 -0.0997661 -0.131306)
(0.0911034 -0.0893108 -0.0923403)
(0.163466 -0.11515 -0.157919)
(0.111423 -0.154848 -0.152852)
(0.0368818 -0.125649 -0.118619)
(-0.00139713 0.0691621 -0.299962)
(0.0889528 0.00229913 -0.222467)
(0.0926137 -0.0898001 -0.173801)
(0.138784 -0.170554 -0.117755)
(0.0708573 -0.126303 -0.139616)
(0.0279519 0.002146 -0.244588)
(0.0639431 -0.0402453 -0.146781)
(0.136123 -0.068283 0.0179065)
(0.0898549 -0.0129369 -0.0628318)
(0.0765219 -0.0998982 -0.148193)
(0.122762 -0.226459 0.0384117)
(0.169026 -0.1562 -0.0303546)
(0.134051 -0.0156069 0.0590076)
(-0.0496683 -0.189681 -0.0337841)
(0.0801751 -0.186674 0.208602)
(0.270901 -0.113993 -0.0282157)
(0.161452 -0.0868232 -0.0183754)
(0.000445051 -0.0598651 0.0920934)
(-0.0339589 0.00247972 -0.236539)
(-0.0362808 -0.0277884 -0.082369)
(0.140417 0.0017506 -0.0352031)
(0.213206 -0.0311436 -0.105848)
(0.119821 -0.178943 -0.103091)
(0.0437435 -0.174583 -0.0533957)
(-0.013935 0.0879897 -0.265867)
(0.0983325 0.0684367 -0.144658)
(0.0482049 -0.0955332 -0.0716363)
(0.0970894 -0.18721 -0.0459968)
(0.094959 -0.161608 -0.0786269)
(0 0 0)
(0.00359769 -0.0121054 -0.111042)
(0.0873603 -0.117338 0.173806)
(0.195981 -0.0196714 0.109775)
(0.0625797 -0.101711 -0.0743457)
(0.111443 -0.24693 0.13701)
(0.231095 -0.207398 -0.00106983)
(0.11712 -0.0754655 0.0455059)
(-0.111026 -0.13243 0.0249268)
(0.16392 -0.133805 0.198978)
(0.254782 -0.096293 0.0453334)
(0.133326 0.0504214 0.0373658)
(0.209595 0.0835488 0.057819)
(-0.0106472 0.00791605 -0.00520518)
(0 0 0)
(-0.0762136 -0.00356415 -0.123985)
(0.164278 0.0150312 -0.0234306)
(0.213971 0.00940071 -0.0721728)
(0 0 0)
(0 0 0)
(-0.00147585 -4.74288e-05 -0.000408324)
(0 0 0)
(0.0987909 0.120723 -0.0980854)
(0.0201935 -0.0834499 0.0315785)
(0.104138 -0.19342 0.101975)
(0.17156 -0.122059 -0.00530243)
(0 0 0)
(0 0 0)
(0.0316611 -0.0626034 0.186285)
(0.339106 -0.0093384 0.159455)
(-0.00417872 -0.154581 0.067396)
(0.100737 -0.290958 0.106931)
(0.246972 -0.207333 0.031834)
(0 0 0)
(-0.105441 -0.0946231 0.00980441)
(0.183422 -0.0994647 0.159647)
(0.238488 -0.0881483 0.11045)
(0.107964 0.0211752 0.0894411)
(0 0 0)
(0 0 0)
(0 0 0)
(-0.0418051 0.0641931 0.126141)
(0.102895 0.0308533 0.0936959)
(0.195169 0.0125899 -0.0315094)
(0 0 0)
(0 0 0)
(0 0 0)
(0 0 0)
(0 0 0)
(0 0 0)
(0 0 0)
(0 0 0)
(0 0 0)
(0 0 0)
(0 0 0)
(0 0 0)
(0 0 0)
(0 0 0)
(0.0499737 -0.237231 0.188243)
(0 0 0)
(0 0 0)
(-0.0626473 -0.107586 0.286417)
(0.0904416 -0.101201 0.269378)
(0 0 0)
(0 0 0)
(0 0 0)
(0 0 0)
(0 0 0)
(0 0 0)
(0.0399615 0.038441 0.183693)
(0 0 0)
(0 0 0)
(0 0 0)
(0 0 0)
(0 0 0)
(0 0 0)
(0 0 0)
(0 0 0)
(0 0 0)
(0 0 0)
(0 0 0)
(0 0 0)
(0 0 0)
(0 0 0)
(0 0 0)
(0 0 0)
(0 0 0)
(0 0 0)
(0 0 0)
(0 0 0)
(0 0 0)
(0 0 0)
(0 0 0)
(0 0 0)
(0 0 0)
(0 0 0)
(0 0 0)
(0 0 0)
(0 0 0)
(0 0 0)
(0 0 0)
(0 0 0)
(0 0 0)
(0 0 0)
(0 0 0)
(0 0 0)
(0 0 0)
(0 0 0)
(0 0 0)
(0 0 0)
(0 0 0)
(0 0 0)
(0 0 0)
(0 0 0)
(0 0 0)
(0 0 0)
(0 0 0)
(0 0 0)
(0 0 0)
(0 0 0)
(0 0 0)
(0 0 0)
(0 0 0)
(0 0 0)
(0 0 0)
(0 0 0)
(0 0 0)
(0 0 0)
(0 0 0)
(0 0 0)
(0 0 0)
(0 0 0)
(0 0 0)
(0 0 0)
(0 0 0)
(0 0 0)
(0 0 0)
(0 0 0)
(0 0 0)
(0 0 0)
(0 0 0)
(0 0 0)
(0 0 0)
(0 0 0)
(0 0 0)
(0 0 0)
(0 0 0)
(0 0 0)
(0 0 0)
(0 0 0)
(0 0 0)
(0 0 0)
(0 0 0)
(0 0 0)
(0 0 0)
(0 0 0)
(0 0 0)
(0 0 0)
(0 0 0)
(0 0 0)
(0 0 0)
(0 0 0)
(0 0 0)
(0 0 0)
(0 0 0)
(0 0 0)
(0 0 0)
(0 0 0)
(0 0 0)
(0 0 0)
(0 0 0)
(0 0 0)
(0 0 0)
(0 0 0)
(0 0 0)
(0 0 0)
(0 0 0)
(0 0 0)
(0 0 0)
(0 0 0)
(0 0 0)
(0 0 0)
(0 0 0)
(0 0 0)
(0 0 0)
(0 0 0)
(0 0 0)
(0 0 0)
(0 0 0)
(0 0 0)
(0 0 0)
(0 0 0)
(0 0 0)
(0 0 0)
(0 0 0)
(0 0 0)
(0 0 0)
(0 0 0)
(0 0 0)
(0 0 0)
(0 0 0)
(0 0 0)
(0 0 0)
(0 0 0)
(0 0 0)
(0 0 0)
(0 0 0)
(0 0 0)
(0 0 0)
(0 0 0)
(0 0 0)
(0 0 0)
(0 0 0)
(0 0 0)
(0 0 0)
(0 0 0)
(0 0 0)
(0 0 0)
(0 0 0)
(0 0 0)
(0 0 0)
(0 0 0)
(0 0 0)
(0 0 0)
(0 0 0)
(0 0 0)
(0 0 0)
(0 0 0)
(0 0 0)
(0 0 0)
(0 0 0)
(0 0 0)
(0 0 0)
(0 0 0)
(0 0 0)
(0 0 0)
(0 0 0)
(0 0 0)
(0 0 0)
(0 0 0)
(0 0 0)
(0 0 0)
(0 0 0)
(0 0 0)
(0 0 0)
(0 0 0)
(0 0 0)
(0 0 0)
(0 0 0)
(0 0 0)
(0 0 0)
(0 0 0)
(0 0 0)
(0 0 0)
(0 0 0)
(0 0 0)
(0 0 0)
(0 0 0)
(0 0 0)
(0 0 0)
(0 0 0)
(0 0 0)
(0 0 0)
(0 0 0)
(0 0 0)
(0 0 0)
(0 0 0)
(0 0 0)
(0 0 0)
(0 0 0)
(0 0 0)
(0 0 0)
(0 0 0)
(0 0 0)
(0 0 0)
(0 0 0)
(0 0 0)
(0 0 0)
(0 0 0)
(0 0 0)
(0 0 0)
(0 0 0)
(0 0 0)
(0 0 0)
(0 0 0)
(0 0 0)
(0 0 0)
(0 0 0)
(0 0 0)
(0 0 0)
(0 0 0)
(0 0 0)
(0 0 0)
(0 0 0)
(0 0 0)
(0 0 0)
(0 0 0)
(0 0 0)
(0 0 0)
(0 0 0)
(0 0 0)
(0 0 0)
(0 0 0)
(0 0 0)
(0 0 0)
(0 0 0)
(0 0 0)
(0 0 0)
(0 0 0)
(0 0 0)
(0 0 0)
(0 0 0)
(0 0 0)
(0 0 0)
(0 0 0)
(0 0 0)
(0 0 0)
(0 0 0)
(0 0 0)
(0 0 0)
(0 0 0)
(0 0 0)
(0 0 0)
(0 0 0)
(0 0 0)
(0 0 0)
(0 0 0)
(0 0 0)
(0 0 0)
(0 0 0)
(0 0 0)
(0 0 0)
(0 0 0)
(0 0 0)
(0 0 0)
(0 0 0)
(0 0 0)
(0 0 0)
(0 0 0)
(0 0 0)
(0 0 0)
(0 0 0)
(0 0 0)
(0 0 0)
(0 0 0)
(0 0 0)
(0 0 0)
(0 0 0)
(0 0 0)
(0 0 0)
(0 0 0)
(0 0 0)
(0 0 0)
(0 0 0)
(0 0 0)
(0 0 0)
(0 0 0)
(0 0 0)
(0 0 0)
(0 0 0)
(0 0 0)
(0 0 0)
(0 0 0)
(0 0 0)
(0 0 0)
(0 0 0)
(0 0 0)
(0 0 0)
(0 0 0)
(0 0 0)
(0 0 0)
(0 0 0)
(0 0 0)
(0 0 0)
(0 0 0)
(0 0 0)
(0 0 0)
(0 0 0)
(0 0 0)
(0 0 0)
(0 0 0)
(0 0 0)
(0 0 0)
(0 0 0)
(0 0 0)
(0 0 0)
(0 0 0)
(0 0 0)
(0 0 0)
(0 0 0)
(0 0 0)
(0 0 0)
(0 0 0)
(0 0 0)
(0 0 0)
(0 0 0)
(0 0 0)
(0 0 0)
(0 0 0)
(0 0 0)
(0 0 0)
(0 0 0)
(0 0 0)
(0 0 0)
(0 0 0)
(0 0 0)
(0 0 0)
(0 0 0)
(0 0 0)
(0 0 0)
(0 0 0)
(0 0 0)
(0 0 0)
(0 0 0)
(0 0 0)
(0 0 0)
(0 0 0)
(0 0 0)
(0 0 0)
(0 0 0)
(0 0 0)
(0 0 0)
(0 0 0)
(0 0 0)
(0 0 0)
(0 0 0)
(0 0 0)
(0 0 0)
(0 0 0)
(0 0 0)
(0 0 0)
(0 0 0)
(0 0 0)
(0 0 0)
(0 0 0)
(0 0 0)
(0 0 0)
(0 0 0)
(0 0 0)
(0 0 0)
(0 0 0)
(0 0 0)
(0 0 0)
(0 0 0)
(0 0 0)
(0 0 0)
(0 0 0)
(0 0 0)
(0 0 0)
(0 0 0)
(0 0 0)
(0 0 0)
(0 0 0)
(0 0 0)
(0 0 0)
(0 0 0)
(0 0 0)
(0 0 0)
(0 0 0)
(0 0 0)
(0 0 0)
(0 0 0)
(0 0 0)
(0 0 0)
(0 0 0)
(0 0 0)
(0 0 0)
(0 0 0)
(0 0 0)
(0 0 0)
(0 0 0)
(0 0 0)
(0 0 0)
(0 0 0)
(0 0 0)
(0 0 0)
(0 0 0)
(0 0 0)
(0 0 0)
(0 0 0)
(0 0 0)
(0 0 0)
(0 0 0)
(0 0 0)
(0 0 0)
(0 0 0)
(0 0 0)
(0 0 0)
(0 0 0)
(0 0 0)
(0 0 0)
(0 0 0)
(0 0 0)
(0 0 0)
(0 0 0)
(0 0 0)
(0 0 0)
(0 0 0)
(0 0 0)
(0 0 0)
(0 0 0)
(0 0 0)
(0 0 0)
(0 0 0)
(0 0 0)
(0 0 0)
(0 0 0)
(0 0 0)
(0 0 0)
(0 0 0)
(0 0 0)
(0 0 0)
(0 0 0)
(0 0 0)
(0 0 0)
(0 0 0)
(0 0 0)
(0 0 0)
(0 0 0)
(0 0 0)
(0 0 0)
(0 0 0)
(0 0 0)
(0 0 0)
(0 0 0)
(0 0 0)
(0 0 0)
(0 0 0)
(0 0 0)
(0 0 0)
(0 0 0)
(0 0 0)
(0 0 0)
(0 0 0)
(0 0 0)
(0 0 0)
(0 0 0)
(0 0 0)
(0 0 0)
(0 0 0)
(0 0 0)
(0 0 0)
(0 0 0)
(0 0 0)
(0 0 0)
(0 0 0)
(0 0 0)
(0 0 0)
(0 0 0)
(0 0 0)
(0 0 0)
(0 0 0)
(0 0 0)
(0 0 0)
(0 0 0)
(0 0 0)
(0 0 0)
(0 0 0)
(0 0 0)
(0 0 0)
(0 0 0)
(0 0 0)
(0 0 0)
(0 0 0)
(0 0 0)
(0 0 0)
(0 0 0)
(0 0 0)
(0 0 0)
(0 0 0)
(0 0 0)
(0 0 0)
(0 0 0)
(0 0 0)
(0 0 0)
(0 0 0)
(0 0 0)
(0 0 0)
(0 0 0)
(0 0 0)
(0 0 0)
(0 0 0)
(0 0 0)
(0 0 0)
(0 0 0)
(0 0 0)
(0 0 0)
(0 0 0)
(0 0 0)
(0 0 0)
(0 0 0)
(0 0 0)
(0 0 0)
(0 0 0)
(0 0 0)
(0 0 0)
(0 0 0)
(0 0 0)
(0 0 0)
(0 0 0)
(0 0 0)
(0 0 0)
(0 0 0)
(0 0 0)
(0 0 0)
(0 0 0)
(0 0 0)
(0 0 0)
(0 0 0)
(0 0 0)
(0 0 0)
(0 0 0)
(0 0 0)
(0 0 0)
(0 0 0)
(0 0 0)
(0 0 0)
(0 0 0)
(0 0 0)
(0 0 0)
(0 0 0)
(0 0 0)
(0 0 0)
(0 0 0)
(0 0 0)
(0 0 0)
(0 0 0)
(0 0 0)
(0 0 0)
(0 0 0)
(0 0 0)
(0 0 0)
(0 0 0)
(0 0 0)
(0 0 0)
(0 0 0)
(0 0 0)
(0 0 0)
(0 0 0)
(0 0 0)
(0 0 0)
(0 0 0)
(0 0 0)
(0 0 0)
(0 0 0)
(0 0 0)
(0 0 0)
(0 0 0)
(0 0 0)
(0 0 0)
(0 0 0)
(0 0 0)
(0 0 0)
(0 0 0)
(0 0 0)
(0 0 0)
(0 0 0)
(0 0 0)
(0 0 0)
(0 0 0)
(0 0 0)
(0 0 0)
(0 0 0)
(0 0 0)
(0 0 0)
(0 0 0)
(0 0 0)
(0 0 0)
(0 0 0)
(0 0 0)
(0 0 0)
(0 0 0)
(0 0 0)
(0 0 0)
(0 0 0)
(0 0 0)
(0 0 0)
(0 0 0)
(0 0 0)
(0 0 0)
(0 0 0)
(0 0 0)
(0 0 0)
(0 0 0)
(0 0 0)
(0 0 0)
(0 0 0)
(0 0 0)
(0 0 0)
(0 0 0)
(0 0 0)
(0 0 0)
(0 0 0)
(0 0 0)
(0 0 0)
(0 0 0)
(0 0 0)
(0 0 0)
(0 0 0)
(0 0 0)
(0 0 0)
(0 0 0)
(0 0 0)
(0 0 0)
(0 0 0)
(0 0 0)
(0 0 0)
(0 0 0)
(0 0 0)
(0 0 0)
(0 0 0)
(0 0 0)
(0 0 0)
(0 0 0)
(0 0 0)
(0 0 0)
(0 0 0)
(0 0 0)
(0 0 0)
(0 0 0)
(0 0 0)
(0 0 0)
(0 0 0)
(0 0 0)
(0 0 0)
(0 0 0)
(0 0 0)
(0 0 0)
(0 0 0)
(0 0 0)
(0 0 0)
(0 0 0)
(0 0 0)
(0 0 0)
(0 0 0)
(0 0 0)
(0 0 0)
(0 0 0)
(0 0 0)
(0 0 0)
(0 0 0)
(0 0 0)
(0 0 0)
(0 0 0)
(0 0 0)
(0 0 0)
(0 0 0)
(0 0 0)
(0 0 0)
(0 0 0)
(0 0 0)
(0 0 0)
(0 0 0)
(0 0 0)
(0 0 0)
(0 0 0)
(0 0 0)
(0 0 0)
(0 0 0)
(0 0 0)
(0 0 0)
(0 0 0)
(0 0 0)
(0 0 0)
(0 0 0)
(0 0 0)
(0 0 0)
(0 0 0)
(0 0 0)
(0 0 0)
(0 0 0)
(0 0 0)
(0 0 0)
(0 0 0)
(0 0 0)
(0 0 0)
(0 0 0)
(0 0 0)
(0 0 0)
(0 0 0)
(0 0 0)
(0 0 0)
(0 0 0)
(0 0 0)
(0 0 0)
(0 0 0)
(0 0 0)
(0 0 0)
(0 0 0)
(0 0 0)
(0 0 0)
(0 0 0)
(0 0 0)
(0 0 0)
(0 0 0)
(0 0 0)
(0 0 0)
(0 0 0)
(0 0 0)
(0 0 0)
(0 0 0)
(0 0 0)
(0 0 0)
(0 0 0)
(0 0 0)
(0 0 0)
(0 0 0)
(0 0 0)
(0 0 0)
(0 0 0)
(0 0 0)
(0 0 0)
(0 0 0)
(0 0 0)
(0 0 0)
(0 0 0)
(0 0 0)
(0 0 0)
(0 0 0)
(0 0 0)
(0 0 0)
(0 0 0)
(0 0 0)
(0 0 0)
(0 0 0)
(0 0 0)
(0 0 0)
(0 0 0)
(0 0 0)
(0 0 0)
(0 0 0)
(0 0 0)
(0 0 0)
(0 0 0)
(0 0 0)
(0 0 0)
(0 0 0)
(0 0 0)
(0 0 0)
(0 0 0)
(0 0 0)
(0 0 0)
(0 0 0)
(0 0 0)
(0 0 0)
(0 0 0)
(0 0 0)
(0 0 0)
(0 0 0)
(0 0 0)
(0 0 0)
(0 0 0)
(0 0 0)
(0 0 0)
(0 0 0)
(0 0 0)
(0 0 0)
(0 0 0)
(0 0 0)
(0 0 0)
(0 0 0)
(0 0 0)
(0 0 0)
(0 0 0)
(0 0 0)
(0 0 0)
(0 0 0)
(0 0 0)
(0 0 0)
(0 0 0)
(0 0 0)
(0 0 0)
(0 0 0)
(0 0 0)
(0 0 0)
(0 0 0)
(0 0 0)
(0 0 0)
(0 0 0)
(0 0 0)
(0 0 0)
(0 0 0)
(0 0 0)
(0 0 0)
(0 0 0)
(0 0 0)
(0 0 0)
(0 0 0)
(0 0 0)
(0 0 0)
(0 0 0)
(0 0 0)
(0 0 0)
(0 0 0)
(0 0 0)
(0 0 0)
(0 0 0)
(0 0 0)
(0 0 0)
(0 0 0)
(0 0 0)
(0 0 0)
(0 0 0)
(0 0 0)
(0 0 0)
(0 0 0)
(0 0 0)
(0 0 0)
(0 0 0)
(0 0 0)
(0 0 0)
(0 0 0)
(0 0 0)
(0 0 0)
(0 0 0)
(0 0 0)
(0 0 0)
(0 0 0)
(0 0 0)
(0 0 0)
(0 0 0)
(0 0 0)
(0 0 0)
(0 0 0)
(0 0 0)
(0 0 0)
(0 0 0)
(0 0 0)
(0 0 0)
(0 0 0)
(0 0 0)
(0 0 0)
(0 0 0)
(0 0 0)
(0 0 0)
(0 0 0)
(0 0 0)
(0 0 0)
(0 0 0)
(0 0 0)
(0 0 0)
(0 0 0)
(0 0 0)
(0 0 0)
(0 0 0)
(0 0 0)
(0 0 0)
(0 0 0)
(0 0 0)
(0 0 0)
(0 0 0)
(0 0 0)
(0 0 0)
(0 0 0)
(0 0 0)
(0 0 0)
(0 0 0)
(0 0 0)
(0 0 0)
(0 0 0)
(0 0 0)
(0 0 0)
(0 0 0)
(0 0 0)
(0 0 0)
(0 0 0)
(0 0 0)
(0 0 0)
(0 0 0)
(0 0 0)
(0 0 0)
(0 0 0)
(0 0 0)
(0 0 0)
(0 0 0)
(0 0 0)
(0 0 0)
(0 0 0)
(0 0 0)
(0 0 0)
(0 0 0)
(0 0 0)
(0 0 0)
(0 0 0)
(0 0 0)
(0 0 0)
(0 0 0)
(0 0 0)
(0 0 0)
(0 0 0)
(0 0 0)
(0 0 0)
(0 0 0)
(0 0 0)
(0 0 0)
(0 0 0)
(0 0 0)
(0 0 0)
(0 0 0)
(0 0 0)
(0 0 0)
(0 0 0)
(0 0 0)
(0 0 0)
(0 0 0)
(0 0 0)
(0 0 0)
(0 0 0)
(0 0 0)
(0 0 0)
(0 0 0)
(0 0 0)
(0 0 0)
(0 0 0)
(0 0 0)
(0 0 0)
(0 0 0)
(0 0 0)
(0 0 0)
(0 0 0)
(0 0 0)
(0 0 0)
(0 0 0)
(0 0 0)
(0 0 0)
(0 0 0)
(0 0 0)
(0 0 0)
(0 0 0)
(0 0 0)
(0 0 0)
(0 0 0)
(0 0 0)
(0 0 0)
(0 0 0)
(0 0 0)
(0 0 0)
(0 0 0)
(0 0 0)
(0 0 0)
(0 0 0)
(0 0 0)
(0 0 0)
(0 0 0)
(0 0 0)
(0 0 0)
(0 0 0)
(0 0 0)
(0 0 0)
(0 0 0)
(0 0 0)
(0 0 0)
(0 0 0)
(0 0 0)
(0 0 0)
(0 0 0)
(0 0 0)
(0 0 0)
(0 0 0)
(0 0 0)
(0 0 0)
(0 0 0)
(0 0 0)
(0 0 0)
(0 0 0)
(0 0 0)
(0 0 0)
(0 0 0)
(0 0 0)
(0 0 0)
(0 0 0)
(0 0 0)
(0 0 0)
(0 0 0)
(0 0 0)
(0 0 0)
(0 0 0)
(0 0 0)
(0 0 0)
(0 0 0)
(0 0 0)
(0 0 0)
(0 0 0)
(0 0 0)
(0 0 0)
(0 0 0)
(0 0 0)
(0 0 0)
(0 0 0)
(0 0 0)
(0 0 0)
(0 0 0)
(0 0 0)
(0 0 0)
(0 0 0)
(0 0 0)
(0 0 0)
(0 0 0)
(0 0 0)
(0 0 0)
(0 0 0)
(0 0 0)
(0 0 0)
(0 0 0)
(0 0 0)
(0 0 0)
(0 0 0)
(0 0 0)
(0 0 0)
(0 0 0)
(0 0 0)
(0 0 0)
(0 0 0)
(0 0 0)
(0 0 0)
(0 0 0)
(0 0 0)
(0 0 0)
(0 0 0)
(0 0 0)
(0 0 0)
(0 0 0)
(0 0 0)
(0 0 0)
(0 0 0)
(0 0 0)
(0 0 0)
(0 0 0)
(0 0 0)
(0 0 0)
(0 0 0)
(0 0 0)
(0 0 0)
(0 0 0)
(0 0 0)
(0 0 0)
(0 0 0)
(0 0 0)
(0 0 0)
(0 0 0)
(0 0 0)
(0 0 0)
(0 0 0)
(0 0 0)
(0 0 0)
(0 0 0)
(0 0 0)
(0 0 0)
(0 0 0)
(0 0 0)
(0 0 0)
(0 0 0)
(0 0 0)
(0 0 0)
(0 0 0)
(0 0 0)
(0 0 0)
(0 0 0)
(0 0 0)
(0 0 0)
(0 0 0)
(0 0 0)
(0 0 0)
(0 0 0)
(0 0 0)
(0 0 0)
(0 0 0)
(0 0 0)
(0 0 0)
(0 0 0)
(0 0 0)
(0 0 0)
(0 0 0)
(0 0 0)
(0 0 0)
(0 0 0)
(0 0 0)
(0 0 0)
(0 0 0)
(0 0 0)
(0 0 0)
(0 0 0)
(0 0 0)
(0 0 0)
(0 0 0)
(0 0 0)
(0 0 0)
(0 0 0)
(0 0 0)
(0 0 0)
(0 0 0)
(0 0 0)
(0 0 0)
(0 0 0)
(0 0 0)
(0 0 0)
(0 0 0)
(0 0 0)
(0 0 0)
(0 0 0)
(0 0 0)
(0 0 0)
(0 0 0)
(0 0 0)
(0 0 0)
(0 0 0)
(0 0 0)
(0 0 0)
(0 0 0)
(0 0 0)
(0 0 0)
(0 0 0)
(0 0 0)
(0 0 0)
(0 0 0)
(0 0 0)
(0 0 0)
(0 0 0)
(0 0 0)
(0 0 0)
(0 0 0)
(0 0 0)
(0 0 0)
(0 0 0)
(0 0 0)
(0 0 0)
(0 0 0)
(0 0 0)
(0 0 0)
(0 0 0)
(0 0 0)
(0 0 0)
(0 0 0)
(0 0 0)
(0 0 0)
(0 0 0)
(0 0 0)
(0 0 0)
(0 0 0)
(0 0 0)
(0 0 0)
(0 0 0)
(0 0 0)
(0 0 0)
(0 0 0)
(0 0 0)
(0 0 0)
(0 0 0)
(0 0 0)
(0 0 0)
(0 0 0)
(0 0 0)
(0 0 0)
(0 0 0)
(0 0 0)
(0 0 0)
(0 0 0)
(0 0 0)
(0 0 0)
(0 0 0)
(0 0 0)
(0 0 0)
(0 0 0)
(0 0 0)
(0 0 0)
(0 0 0)
(0 0 0)
(0 0 0)
(0 0 0)
(0 0 0)
(0 0 0)
(0 0 0)
(0 0 0)
(0 0 0)
(0 0 0)
(0 0 0)
(0 0 0)
(0 0 0)
(0 0 0)
(0 0 0)
(0 0 0)
(0 0 0)
(0 0 0)
(0 0 0)
(0 0 0)
(0 0 0)
(0 0 0)
(0 0 0)
(0 0 0)
(0 0 0)
(0 0 0)
(0 0 0)
(0 0 0)
(0 0 0)
(0 0 0)
(0 0 0)
(0 0 0)
(0 0 0)
(0 0 0)
(0 0 0)
(0 0 0)
(0 0 0)
(0 0 0)
(0 0 0)
(0 0 0)
(0 0 0)
(0 0 0)
(0 0 0)
(0 0 0)
(0 0 0)
(0 0 0)
(0 0 0)
(0 0 0)
(0 0 0)
(0 0 0)
(0 0 0)
(0 0 0)
(0 0 0)
(0 0 0)
(0 0 0)
(0 0 0)
(0 0 0)
(0 0 0)
(0 0 0)
(0 0 0)
(0 0 0)
(0 0 0)
(0 0 0)
(0 0 0)
(0 0 0)
(0 0 0)
(0 0 0)
(0 0 0)
(0 0 0)
(0 0 0)
(0 0 0)
(0 0 0)
(0 0 0)
(0 0 0)
(0 0 0)
(0 0 0)
(0 0 0)
(0 0 0)
(0 0 0)
(0 0 0)
(0 0 0)
(0 0 0)
(0 0 0)
(0 0 0)
(0 0 0)
(0 0 0)
(0 0 0)
(0 0 0)
(0 0 0)
(0 0 0)
(0 0 0)
(0 0 0)
(0 0 0)
(0 0 0)
(0 0 0)
(0 0 0)
(0 0 0)
(0 0 0)
(0 0 0)
(0 0 0)
(0 0 0)
(0 0 0)
(0 0 0)
(0 0 0)
(0 0 0)
(0 0 0)
(0 0 0)
(0 0 0)
(0 0 0)
(0 0 0)
(0 0 0)
(0 0 0)
(0 0 0)
(0 0 0)
(0 0 0)
(0 0 0)
(0 0 0)
(0 0 0)
(0 0 0)
(0 0 0)
(0 0 0)
(0 0 0)
(0 0 0)
(0 0 0)
(0 0 0)
(0 0 0)
(0 0 0)
(0 0 0)
(0 0 0)
(0 0 0)
(0 0 0)
(0 0 0)
(0 0 0)
(0 0 0)
(0 0 0)
(0 0 0)
(0 0 0)
(0 0 0)
(0 0 0)
(0 0 0)
(0 0 0)
(0 0 0)
(0 0 0)
(0 0 0)
(0 0 0)
(0 0 0)
(0 0 0)
(0 0 0)
(0 0 0)
(0 0 0)
(0 0 0)
(0 0 0)
(0 0 0)
(0 0 0)
(0 0 0)
(0 0 0)
(0 0 0)
(0 0 0)
(0 0 0)
(0 0 0)
(0 0 0)
(0 0 0)
(0 0 0)
(0 0 0)
(0 0 0)
(0 0 0)
(0 0 0)
(0 0 0)
(0 0 0)
(0 0 0)
(0 0 0)
(0 0 0)
(0 0 0)
(0 0 0)
(0 0 0)
(0 0 0)
(0 0 0)
(0 0 0)
(0 0 0)
(0 0 0)
(0 0 0)
(0 0 0)
(0 0 0)
(0 0 0)
(0 0 0)
(0 0 0)
(0 0 0)
(0 0 0)
(0 0 0)
(0 0 0)
(0 0 0)
(0 0 0)
(0 0 0)
(0 0 0)
(0 0 0)
(0 0 0)
(0 0 0)
(0 0 0)
(0 0 0)
(0 0 0)
(0 0 0)
(0 0 0)
(0 0 0)
(0 0 0)
(0 0 0)
(0 0 0)
(0 0 0)
(0 0 0)
(0 0 0)
(0 0 0)
(0 0 0)
(0 0 0)
(0 0 0)
(0 0 0)
(0 0 0)
(0 0 0)
(0 0 0)
(0 0 0)
(0 0 0)
(0 0 0)
(0 0 0)
(0 0 0)
(0 0 0)
(0 0 0)
(0 0 0)
(0 0 0)
(0 0 0)
(0 0 0)
(0 0 0)
(0 0 0)
(0 0 0)
(0 0 0)
(0 0 0)
(0 0 0)
(0 0 0)
(0 0 0)
(0 0 0)
(0 0 0)
(0 0 0)
(0 0 0)
(0 0 0)
(0 0 0)
(0 0 0)
(0 0 0)
(0 0 0)
(0 0 0)
(0 0 0)
(0 0 0)
(0 0 0)
(0 0 0)
(0 0 0)
(0 0 0)
(0 0 0)
(0 0 0)
(0 0 0)
(0 0 0)
(0 0 0)
(0 0 0)
(0 0 0)
(0 0 0)
(0 0 0)
(0 0 0)
(0 0 0)
(0 0 0)
(0 0 0)
(0 0 0)
(0 0 0)
(0 0 0)
(0 0 0)
(0 0 0)
(0 0 0)
(0 0 0)
(0 0 0)
(0 0 0)
(0 0 0)
(0 0 0)
(0 0 0)
(0 0 0)
(0 0 0)
(0 0 0)
(0 0 0)
(0 0 0)
(0 0 0)
(0 0 0)
(0 0 0)
(0 0 0)
(0 0 0)
(0 0 0)
(0 0 0)
(0 0 0)
(0 0 0)
(0 0 0)
(0 0 0)
(0 0 0)
(0 0 0)
(0 0 0)
(0 0 0)
(0 0 0)
(0 0 0)
(0 0 0)
(0 0 0)
(0 0 0)
(0 0 0)
(0 0 0)
(0 0 0)
(0 0 0)
(0 0 0)
(0 0 0)
(0 0 0)
(0 0 0)
(0 0 0)
(0 0 0)
(0 0 0)
(0 0 0)
(0 0 0)
(0 0 0)
(0 0 0)
(0 0 0)
(0 0 0)
(0 0 0)
(0 0 0)
(0 0 0)
(0 0 0)
(0 0 0)
(0 0 0)
(0 0 0)
(0 0 0)
(0 0 0)
(0 0 0)
(0 0 0)
(0 0 0)
(0 0 0)
(0 0 0)
(0 0 0)
(0 0 0)
(0 0 0)
(0 0 0)
(0 0 0)
(0 0 0)
(0 0 0)
(0 0 0)
(0 0 0)
(0 0 0)
(0 0 0)
(0 0 0)
(0 0 0)
(0 0 0)
(0 0 0)
(0 0 0)
(0 0 0)
(0 0 0)
(0 0 0)
(0 0 0)
(0 0 0)
(0 0 0)
(0 0 0)
(0 0 0)
(0 0 0)
(0 0 0)
(0 0 0)
(0 0 0)
(0 0 0)
(0 0 0)
(0 0 0)
(0 0 0)
(0 0 0)
(0 0 0)
(0 0 0)
(0 0 0)
(0 0 0)
(0 0 0)
(0 0 0)
(0 0 0)
(0 0 0)
(0 0 0)
(0 0 0)
(0 0 0)
(0 0 0)
(0 0 0)
(0 0 0)
(0 0 0)
(0 0 0)
(0 0 0)
(0 0 0)
(0 0 0)
(0 0 0)
(0 0 0)
(0 0 0)
(0 0 0)
(0 0 0)
(0 0 0)
(0 0 0)
(0 0 0)
(0 0 0)
(0 0 0)
(0 0 0)
(0 0 0)
(0 0 0)
(0 0 0)
(0 0 0)
(0 0 0)
(0 0 0)
(0 0 0)
(0 0 0)
(0 0 0)
(0 0 0)
(0 0 0)
(0 0 0)
(0 0 0)
(0 0 0)
(0 0 0)
(0 0 0)
(0 0 0)
(0 0 0)
(0 0 0)
(0 0 0)
(0 0 0)
(0 0 0)
(0 0 0)
(0 0 0)
(0 0 0)
(0 0 0)
(0 0 0)
(0 0 0)
(0 0 0)
(0 0 0)
(0 0 0)
(0 0 0)
(0 0 0)
(0 0 0)
(0 0 0)
(0 0 0)
(0 0 0)
(0 0 0)
(0 0 0)
(0 0 0)
(0 0 0)
(-0.0527702 0.0676521 -0.0141704)
(0.00498924 0.0274452 -0.0211461)
(-0.0570561 0.0771046 -0.0212231)
(-0.01826 0.048071 -0.0105603)
(0.00512904 0.0190969 -0.0200918)
(0.0178666 0.0474195 -0.00563542)
(0.0207914 0.038123 -0.00239112)
(0.000356369 0.0110738 -0.00188042)
(-0.0148694 0.00747974 0.0132325)
(-0.0247608 0.0384769 0.00861563)
(-0.071259 0.0978818 0.0352037)
(-0.0328154 0.0311266 0.0218958)
(-0.0612155 0.0819121 0.0770415)
(-0.0997303 0.147046 0.0463274)
(-0.0326038 0.145536 0.0362463)
(-0.0522082 0.13327 0.0977822)
(-0.0269442 0.174397 0.0705601)
(-0.0269336 0.0958536 -0.000987688)
(-0.0349356 0.0628898 0.00850246)
(-0.0449103 0.0983319 -0.00175892)
(-0.0819075 0.0577067 0.0125027)
(-0.0547015 0.000566498 0.0105992)
(-0.0366912 -0.0177827 -0.0107723)
(-0.139351 0.0143535 0.00105398)
(-0.0676757 -0.03066 -0.0205573)
(-0.00963265 -0.00807993 -0.00506504)
(-0.00280469 -0.0236658 0.0101413)
(0.0185419 -0.0336107 -0.0155529)
(0.0377132 -0.0432515 -0.00146323)
(-0.00580774 0.00232785 0.0118612)
(-0.0142689 0.0547168 0.0392104)
(0.0395917 -0.00424029 0.0176042)
(0.00380921 0.0176786 0.0127043)
(-0.0242405 0.0914503 0.0583783)
(-0.0629102 0.086676 0.048591)
(-0.0455478 0.0354763 0.0232855)
(-0.0822274 0.0157162 0.0303691)
(-0.106138 0.0655431 0.0119058)
(-0.160698 0.057308 0.0159208)
(-0.123491 0.0359441 0.0358658)
(-0.224424 0.0646821 -0.00496579)
(-0.214318 0.0385206 -0.0199206)
(-0.104693 -0.0119937 -0.0406)
(-0.225616 0.0792902 -0.0530586)
(-0.115988 0.0578425 -0.0369458)
(-0.0221134 -0.010864 -0.00627107)
(-0.0360249 0.0276243 -0.0162736)
(-0.0139055 0.034657 -0.0276646)
(0.027706 -0.0182531 -0.0285694)
(0.0684369 -0.024704 -0.00582)
(0.0595552 0.000943015 -0.0161884)
(0.0641801 -0.0174935 0.0222506)
(0.0155805 -0.00328341 0.0148472)
(0.0621357 -0.0159176 0.0129301)
(0.0263355 -0.0108826 0.00831972)
(-0.0353023 0.00566483 0.00620973)
(-0.0459343 0.0048076 0.005242)
(-0.00908926 0.00145234 0.00247502)
(-0.0254451 0.0236781 -0.00136827)
(-0.0655988 0.0291407 0.024919)
(-0.179432 0.118567 0.0197771)
(-0.0371732 0.0470109 0.0195779)
(-0.0891202 0.0551844 0.0257726)
(-0.233131 0.14394 -0.00467239)
(-0.166226 0.128415 -0.0118589)
(-0.195812 0.0991943 0.026125)
(-0.181554 0.101117 0.00721685)
(-0.0839771 0.0932804 -0.0185902)
(-0.0351373 0.0643335 -0.0231181)
(-0.0913476 0.0824803 -0.0139984)
(0.0191103 0.00467016 -0.00810501)
(0.0291746 0.00217057 -0.000756048)
(0.0201694 -0.00679802 -0.000322388)
(0.00537846 0.00483759 2.62015e-05)
(0.00706207 0.00618612 -0.00215618)
(0.00934249 0.00393354 0.00202546)
(-0.0192113 0.0240461 0.00617935)
(0.00462165 0.00551294 0.000843247)
(-0.00848738 0.007474 -0.000827269)
(-0.0450898 0.0439715 0.0154401)
(-0.0795464 0.0168209 0.0292442)
(-0.0374661 0.0134486 0.00727851)
(-0.0657262 0.0140742 0.0238121)
(-0.169017 0.0194891 0.0391158)
(-0.150824 0.0507022 -0.0114711)
(-0.098859 0.0301125 0.023655)
(-0.0838841 0.0327329 -0.015915)
(-0.0670625 0.0533896 -0.0250292)
(0.00292481 0.0049663 0.00139142)
(0.000547862 0.00621379 -0.00106751)
(-0.0109455 0.00855371 -0.00245087)
(-0.0245234 0.0032441 -0.00852368)
(-0.0155209 0.00535853 0.0011896)
(-0.0125701 0.00114817 -0.000348894)
(-0.00911825 0.00322251 -0.00368703)
(-0.0274662 0.011295 0.00624702)
(-0.039341 0.0556738 -0.0770258)
(0.0254483 0.0123752 -0.160785)
(0.02706 0.0171739 0.00610333)
(-0.0222082 0.0615861 -0.0708124)
(0.0154315 0.0467505 -0.00129561)
(0.0105606 0.00711842 -0.0211752)
(0.0152664 0.040859 -0.122319)
(0.00206293 0.0433878 -0.0358246)
(0.0340262 0.04235 0.0321549)
(0.0174606 0.030623 0.0319456)
(0.00925181 0.00100806 0.0135903)
(0.0126045 0.00341558 0.0234278)
(0.00783655 7.42434e-05 0.0402739)
(-0.0159815 -0.00749636 0.039976)
(0.000422365 -0.000193439 0.0569163)
(-0.0131033 0.00604186 0.0308421)
(0.0724718 -0.116179 -0.318935)
(-0.0676396 0.118994 0.0214647)
(-0.0283309 0.0390319 0.0419796)
(-0.0562276 0.104505 0.099624)
(0.0554353 -0.0472672 -0.240799)
(0.0152632 0.0509536 -0.0811819)
(0.0579416 -0.0483339 -0.166335)
(0.0107972 0.0608092 0.0472903)
(-0.0921296 -0.0649062 -0.0393935)
(-0.201556 -0.0539798 -0.00482327)
(-0.112431 -0.0760202 -0.073087)
(-0.0689639 -0.0224715 0.0444292)
(-0.0627864 -0.0472666 -0.0541284)
(-0.142647 -0.0607825 -0.0364237)
(-0.0837294 -0.0747057 -0.103039)
(-0.0407952 -0.0667362 -0.0637404)
(-0.0402282 -0.0678849 -0.0846576)
(0.000359218 -0.0816811 0.0290119)
(0.015246 -0.0905554 -0.0975404)
(0.050187 -0.0982698 -0.0598835)
(0.0547706 -0.0819379 -0.325899)
(0.00351013 -0.0837946 -0.332658)
(0.0176147 -0.103853 -0.308691)
(-0.0138612 -0.00403607 -0.0696376)
(-0.00165757 0.00979995 -0.0443131)
(-0.023044 -0.0566972 -0.0873247)
(-0.0117093 -0.0332186 -0.0991836)
(-3.89712e-05 -0.0107427 -0.0519834)
(0.0625379 -0.0474958 -0.0562458)
(0.0326423 -0.0356931 -0.0714096)
(0.00120882 -0.062675 -0.270573)
(0.00566637 -0.0990388 -0.265522)
(-0.0218146 -0.0859274 -0.373941)
(-0.0218403 0.0378771 -0.0458604)
(-0.0514637 0.0586224 -0.0807593)
(-0.0205987 -0.00299024 -0.11614)
(-0.00322357 0.00251107 -0.0626826)
(-0.0242569 0.0167577 -0.118263)
(0.00647854 -0.0109742 -0.0371522)
(-0.0268084 -0.0688098 -0.418159)
(0.0371982 -0.0664788 -0.0917222)
(0.00757236 0.0153347 -0.0165884)
(0.0138591 -0.0216727 -0.116867)
(-0.0129558 -0.0799247 -0.405591)
(0.0114884 -0.12584 -0.381487)
(-0.0134175 -0.0523234 -0.422443)
(-0.0151951 -0.0805119 -0.393422)
(-0.127645 0.0681377 -0.092315)
(-0.151495 0.0723646 0.0262235)
(-0.104843 0.0680662 -0.0601219)
(-0.0951916 0.0703536 -0.063258)
(-0.0544703 0.019953 -0.14442)
(-0.0993788 0.0720454 0.000781527)
(-0.0400199 0.0221788 -0.114302)
(-0.026509 0.0261693 -0.141766)
(0.00598846 0.0219416 -0.0415341)
(-0.0104244 -0.054072 -0.39138)
(-0.0239141 -0.00714116 -0.178492)
(0.0399406 -0.00888046 -0.410723)
(1.10278e-14 6.83689e-14 4.62938e-13)
(0.0534027 -0.0487562 -0.359902)
(0.045007 -0.000819266 -0.436936)
(-0.0186318 0.0308904 -0.0110035)
(0.0267376 -0.011926 -0.235511)
(0.089634 -0.02803 -0.374312)
(0.0636324 0.00280716 -0.258707)
(0.0734142 -0.00831259 -0.430117)
(-0.0166621 0.0307881 -0.0461574)
(0.0623685 -0.00958375 -0.214451)
(0.107011 -0.049421 -0.255346)
(0.0159809 -0.000386716 -0.0406811)
(0.0425462 0.0220521 -0.154625)
(0.0139578 0.0228591 -0.0617932)
(0.0306888 0.00272518 -0.047615)
(0.076213 0.00413139 -0.185955)
(0.0378655 0.00904701 -0.0860095)
(0.00763021 -0.00812129 0.0214303)
(0.010417 -0.00846432 0.0322292)
(0.00176374 -0.000156196 0.0334079)
(-0.000144866 -0.021497 0.0392387)
(0.00511378 -0.0216805 0.0183359)
(0.0402225 0.0110467 0.0512682)
(0.0592898 0.00533168 -0.000107812)
(0.0781024 -0.112524 -0.312725)
(0.0680407 -0.109016 -0.299327)
(0.114162 -0.0493625 -0.263605)
(0.113124 -0.115781 -0.283293)
(0.144062 -0.0690129 -0.217686)
(0.11628 -0.122852 -0.316215)
(0.147362 -0.127701 -0.274109)
(0.106764 -0.131664 -0.270685)
(0.167046 -0.115109 -0.17501)
(-0.0451179 -0.0381837 -0.0652399)
(-0.105604 -0.067317 -0.0605736)
(-0.058651 -0.0606093 -0.118588)
(0.0218202 -0.0405225 -0.0236408)
(-0.0424997 -0.0453676 -0.085327)
(-0.0640901 -0.0940038 -0.0875999)
(-0.0379679 -0.0609172 -0.125478)
(-0.0324162 -0.0563503 -0.0967075)
(-0.0247084 -0.0477744 -0.101037)
(0.0467775 -0.08268 -0.324731)
(0.00304017 -0.0791991 -0.391496)
(0.00858264 -0.102939 -0.350875)
(0.0378554 -0.0932944 -0.299522)
(0.00465915 -0.0750871 -0.362282)
(0.00476907 -0.106484 -0.322198)
(-0.0163348 -0.0568351 -0.124726)
(-0.00438565 -0.0271599 -0.0764272)
(-0.0157899 -0.0641252 -0.118176)
(-0.00946626 -0.0676682 -0.137514)
(-0.0132903 -0.0406609 -0.0968146)
(-0.0189949 -0.114384 -0.358269)
(-0.0238455 -0.089324 -0.382995)
(-0.00579739 -0.0708517 -0.353839)
(-0.0142368 -0.110142 -0.318049)
(-0.013847 -0.0695009 -0.339238)
(-0.000633037 -0.0122764 -0.0869733)
(-0.014702 -0.0184051 -0.154993)
(0.000773685 -0.0566577 -0.163309)
(0.00147693 -0.0347266 -0.109079)
(0.00433964 -0.0411735 -0.179456)
(-0.0235797 -0.0641994 -0.393324)
(-0.015263 -0.0406314 -0.3512)
(0.00190376 -0.121623 -0.342575)
(-0.00400404 -0.038171 -0.389398)
(-0.00676841 -0.0785599 -0.369068)
(0.0067005 -0.0562074 -0.323682)
(0.0230871 -0.107528 -0.30678)
(0.00945845 -0.0114173 -0.347162)
(0.0348006 -0.0455909 -0.323073)
(-0.0236241 -0.030615 -0.190899)
(0.12974 -0.0120538 -0.238362)
(0.0246741 -0.0464376 -0.200408)
(0.172286 -0.102625 -0.145881)
(0.0145525 -0.062315 -0.216107)
(0.146903 -0.0527104 -0.165835)
(0.083553 -0.0887676 -0.234239)
(0.0149357 -0.0435602 -0.199648)
(-0.0085998 -0.0424765 -0.372762)
(0.00812083 -0.0174474 -0.321216)
(0.0634484 -0.0398798 -0.304659)
(0.0573001 -0.0022212 -0.331137)
(0.0297603 -0.0292118 -0.293338)
(0.0711365 -0.0280912 -0.269587)
(0.0700613 0.00234947 -0.306237)
(0.108398 -0.0270201 -0.298231)
(0.0734664 -0.00377984 -0.340725)
(0.114626 -0.0107308 -0.275955)
(0.128665 -0.0112734 -0.23585)
(0.0795046 -0.0065174 -0.32121)
(0.142321 -0.0311977 -0.177735)
(0.135132 -0.0851123 -0.27163)
(0.127785 -0.0907425 -0.244546)
(0.0867787 -0.00685567 -0.103497)
(0.103343 -0.030181 -0.213709)
(0.0858907 -0.0283269 -0.135542)
(0.106581 -0.0185801 -0.196527)
(0.11177 -0.0544547 -0.216902)
(0.0952209 -0.0495669 -0.173061)
(-0.0184406 -0.0475314 0.033358)
(0.00172618 -0.0379001 0.0135493)
(0.0426013 -0.00556832 -0.0876611)
(0.0377805 -0.0575381 -0.0638655)
(-0.00319447 -0.0566218 0.0115208)
(0.0233649 -0.0167101 -0.0203553)
(0.0108625 -0.0239245 0.00142905)
(0.053827 -0.100384 -0.292463)
(0.0430145 -0.0934737 -0.286798)
(0.145587 -0.160866 -0.244081)
(0.0937474 -0.133602 -0.261484)
(0.153999 -0.150704 -0.136084)
(0.0904143 -0.114805 -0.274471)
(0.133617 -0.18169 -0.190754)
(0.0755299 -0.143033 -0.227712)
(0.124332 -0.169045 -0.0840616)
(-0.0080872 -0.0305396 -0.0854796)
(-0.0264015 -0.117265 -0.111549)
(-0.0153214 -0.0579165 -0.118416)
(0.0370092 -0.0448814 -0.0534978)
(0.0104659 -0.00755835 -0.0468099)
(0.0234401 -0.108156 -0.115048)
(0.00196258 -0.0464107 -0.0936403)
(-0.0142552 -0.0422402 -0.0853943)
(-0.010624 -0.0257707 -0.0628169)
(0.0272983 -0.100497 -0.285733)
(0.00308404 -0.06462 -0.342977)
(0.00570367 -0.0983097 -0.2972)
(0.0197628 -0.0938962 -0.278105)
(0.00447052 -0.0481389 -0.331509)
(0.00531216 -0.0823924 -0.286593)
(-0.00452118 -0.0778908 -0.134255)
(-0.0131804 -0.0564988 -0.0961684)
(-0.00848143 -0.057885 -0.0779887)
(0.00584447 -0.0895819 -0.111543)
(-0.00609592 -0.0687261 -0.0840722)
(-0.00734963 -0.0854007 -0.285324)
(-0.00393411 -0.0420294 -0.313925)
(-0.00264803 -0.0382653 -0.315081)
(-0.0020999 -0.0496549 -0.277664)
(0.0032883 0.00585969 -0.309484)
(0.0101762 -0.0562227 -0.115118)
(0.0219735 -0.064826 -0.178097)
(0.0298063 -0.100407 -0.14363)
(0.0115316 -0.0749009 -0.105228)
(0.038196 -0.0897097 -0.162305)
(0.00303782 -0.00710583 -0.339604)
(0.0171379 0.0283715 -0.343996)
(0.0559206 -0.0560739 -0.271344)
(0.0281325 0.0177116 -0.349723)
(0.0505612 -0.00311376 -0.337449)