/*--------------------------------*- C++ -*----------------------------------*\
| =========                 |                                                 |
| \\      /  F ield         | OpenFOAM: The Open Source CFD Toolbox           |
|  \\    /   O peration     | Version:  5.x                                   |
|   \\  /    A nd           | Web:      www.OpenFOAM.org                      |
|    \\/     M anipulation  |                                                 |
\*---------------------------------------------------------------------------*/
FoamFile
{
    version     2.0;
    format      ascii;
    class       volVectorField;
    location    "8.85";
    object      U;
}
// * * * * * * * * * * * * * * * * * * * * * * * * * * * * * * * * * * * * * //

dimensions      [0 1 -1 0 0 0 0];

internalField   nonuniform List<vector> 
10571
(
(0.617973 -0.0100635 2.49606)
(0.343872 -0.360695 1.44455)
(0.736729 -0.258807 1.33316)
(0.294224 0.334343 1.8303)
(-0.297394 -0.456874 1.68699)
(0.227242 -0.233639 1.1304)
(1.10366 -0.658089 1.80557)
(0.793985 -1.55519 2.45335)
(-1.02717 -1.1223 1.78096)
(-0.223023 -0.29775 1.24625)
(0.180283 0.146325 1.81024)
(0.0948527 0.0820633 1.82292)
(0.236853 0.0387284 1.61873)
(-0.0350617 -0.130098 1.51697)
(-0.144817 0.0412368 1.26599)
(0.172831 0.169592 1.70408)
(0.0729901 0.265785 1.32349)
(0.205281 0.215234 2.04537)
(0.152254 0.457193 1.81356)
(-0.0151611 0.785888 1.55336)
(-0.339731 0.350738 1.37799)
(0.39794 0.103818 1.50025)
(0.758995 0.480025 1.92001)
(-0.303531 0.748378 1.77222)
(0.156857 0.33743 1.8889)
(-0.07284 0.111503 0.922912)
(-0.095659 0.280245 0.87504)
(0.176812 0.438272 2.33223)
(0.124891 0.238756 1.37472)
(-0.0456818 0.254455 1.2497)
(-0.365902 0.922968 1.73194)
(-0.343125 1.12594 2.02166)
(0.0919774 0.500215 1.09273)
(-0.036732 0.202702 1.16411)
(0.0825878 0.154104 1.4192)
(0.334577 0.455223 1.83452)
(-0.120686 1.08108 2.22242)
(-0.0868781 0.859609 1.33725)
(-0.201821 0.514976 0.894654)
(-0.420788 0.377873 1.25644)
(0.193456 0.385695 1.14728)
(0.383733 0.555734 2.3439)
(-0.00307484 0.88184 2.03041)
(-0.299219 0.592907 1.34763)
(-0.503694 0.573536 1.22444)
(0.195996 0.0177231 0.771579)
(-0.0910541 1.06504 3.43017)
(-0.564575 0.634427 3.77383)
(-0.110983 0.0350263 1.05496)
(-0.233491 0.321353 0.899828)
(-0.468925 0.357852 1.17656)
(-0.532298 0.220148 2.03477)
(0.355221 0.420663 1.10511)
(-0.188644 0.289542 0.855523)
(-0.300418 0.95327 1.63075)
(0.00768996 1.44165 2.26585)
(-0.0465794 0.457364 0.830991)
(-0.330395 0.424632 1.40008)
(0.0420398 0.116303 1.24927)
(-0.404918 0.322036 1.55442)
(0.0351506 0.725043 1.38219)
(0.078888 0.805046 1.35323)
(-0.189479 0.344168 1.19175)
(-0.250804 0.353566 0.888886)
(-0.583851 -0.00281011 1.51016)
(0.181892 0.370445 2.11622)
(-0.133914 0.348981 1.25673)
(-0.17355 0.213419 0.770328)
(-0.0309639 0.158931 0.449023)
(-0.0595445 -0.0251472 0.704214)
(-0.663353 0.838783 3.08547)
(-0.538274 0.0376351 4.06339)
(-0.0987996 0.0159693 0.978884)
(-0.225665 0.105182 0.473311)
(-0.306356 0.366832 0.988691)
(-0.192316 0.454687 1.51997)
(0.196684 0.476963 1.04544)
(0.178859 0.191313 0.818323)
(-0.0271691 0.383471 1.62214)
(0.079683 0.883326 2.89915)
(-0.0784084 0.735406 1.69877)
(-0.0276452 0.159421 0.788445)
(-0.0207991 -0.0234943 0.520352)
(-0.0347376 -0.176888 1.02117)
(0.278977 0.245486 1.76513)
(-0.279305 0.271842 1.89908)
(-0.415285 -0.129035 1.36221)
(-0.266684 0.257091 1.19234)
(0.224248 0.239681 0.926506)
(0.202407 -0.0307358 1.4901)
(0.0315744 -0.377411 0.862342)
(0.0638103 -0.289078 0.243391)
(-0.058857 0.0550746 0.505285)
(-0.311413 -0.310877 1.11001)
(-0.532037 0.449149 3.38518)
(-0.306411 -0.0786025 3.65333)
(0.0372185 0.0803767 0.495428)
(0.0464681 0.000311055 0.0185108)
(0.167766 0.484503 0.983038)
(0.0125169 0.719467 1.34843)
(0.032871 0.234187 0.559246)
(0.208715 0.0113102 1.03855)
(0.122459 0.202434 1.08077)
(0.00498527 0.617986 2.30341)
(-0.165527 0.41212 0.922176)
(-0.188646 -0.0197485 0.468733)
(-0.000907734 0.0101313 0.526902)
(0.254016 -0.0511384 0.824917)
(0.235829 0.08374 1.37467)
(-0.246738 0.235118 1.55431)
(-0.0717493 -0.030702 0.871256)
(-0.101821 0.165877 0.163451)
(0.156442 0.0236658 0.790856)
(0.255782 0.12515 1.63722)
(0.0546961 -0.222071 0.97503)
(-0.109311 -0.409606 0.338316)
(-0.114076 0.258292 0.130692)
(-0.495447 -0.124929 1.55381)
(-0.469283 0.201958 2.84469)
(-0.105258 -0.12483 2.80621)
(0.117476 0.0238066 0.185706)
(0.0301052 -0.0335633 -0.104003)
(0.0665422 0.0885334 0.380169)
(0.115097 0.336848 0.35191)
(-0.00934363 0.161751 0.146745)
(0.159032 -0.180943 1.03761)
(-0.0019635 0.110541 1.03913)
(-0.105479 0.219042 1.83083)
(0.0107975 0.301995 0.902002)
(0.0529431 -0.019253 0.486102)
(-0.012985 0.00772298 -0.00624808)
(0.00250697 -0.0118293 0.287666)
(0.175273 0.0431302 0.593195)
(0.277871 0.107958 1.65042)
(-0.25224 0.275253 1.77275)
(-0.00205448 0.00282649 0.966147)
(0.119624 -0.0141884 0.240626)
(-0.00507547 -0.00138358 -0.00249121)
(0.142134 -0.0351689 0.664779)
(0.406504 0.337947 1.80409)
(0.0784788 0.215511 1.23195)
(-0.0335374 -0.0379971 0.536343)
(0.0760548 0.194075 0.224616)
(-0.394894 -0.140434 1.94764)
(-0.435813 0.133111 2.85021)
(-0.0461166 0.0202658 2.60736)
(0.0998454 0.0397738 -0.281517)
(0.113689 -0.204105 0.0225606)
(0.138736 0.002692 0.292976)
(0.0828398 0.111169 0.341998)
(-0.00661757 0.1232 0.192141)
(0.0753354 -0.241767 0.956043)
(-0.00626444 0.0242517 1.19837)
(-0.228235 -0.0701758 1.84911)
(0.0681012 0.0166656 0.857524)
(-0.00136736 -0.15482 0.309854)
(-0.0765374 -0.114919 0.0939863)
(0.0175824 -0.0569198 0.155822)
(0.177165 0.0161812 0.259332)
(0.269249 0.08026 1.88386)
(-0.164592 0.281428 1.90802)
(-0.00253423 -0.0192119 0.939134)
(-0.222784 -0.211435 0.307713)
(-0.230328 -0.156707 -0.0969641)
(0.144218 -0.0151275 0.634013)
(0.399029 0.326403 1.883)
(0.123672 0.154768 1.3863)
(0.0105282 -0.146485 0.656317)
(-0.368577 0.126358 0.178856)
(-0.33898 -0.0497303 -0.248616)
(-0.282466 -0.198646 2.1058)
(-0.36201 0.193668 2.7004)
(-0.171367 0.0826636 2.18255)
(0.0671494 -0.0194477 -0.364904)
(0.243829 -0.382836 0.290687)
(0.293113 -0.154152 0.334334)
(0.0838983 -0.0648388 0.408198)
(0.0688287 0.0320176 0.370561)
(0.018724 -0.385392 0.702999)
(0.107797 -0.0391769 1.45932)
(-0.305299 -0.19599 1.69292)
(0.0678091 -0.0875442 0.750919)
(-0.0702445 -0.0882539 0.326631)
(-0.00689565 0.0454903 0.0982291)
(0.000431522 -0.248777 0.153258)
(0.0706023 -0.211495 0.113059)
(0.234145 0.054024 1.87571)
(-0.058699 0.256114 1.86915)
(0.0150464 0.00237559 0.983597)
(-0.208279 -0.00509721 0.29281)
(0.0526702 0.155458 -0.214472)
(0.0806254 -0.101254 0.420719)
(0.336058 0.338375 1.89631)
(0.125201 0.163431 1.51103)
(0.0822296 -0.116579 0.861367)
(-0.251241 0.077757 0.0799277)
(-0.293542 0.0723781 -0.179262)
(-0.341624 -0.217896 2.25864)
(-0.302863 0.179612 2.70994)
(-0.0369075 0.103134 2.06992)
(0.124389 -0.0123119 -0.188392)
(0.216563 -0.293404 0.437176)
(0.417379 -0.249897 0.450874)
(0.126421 -0.117847 0.504193)
(0.140027 0.0248062 0.479273)
(0.0132284 -0.373769 0.500162)
(0.272676 -0.0536736 1.5955)
(-0.248301 -0.231726 1.55059)
(0.0897059 -0.0814068 0.678786)
(0.0138707 0.121693 0.148371)
(0.208357 0.0654513 0.0766109)
(-0.0377759 -0.313874 0.181881)
(-0.0567151 -0.295657 -0.00585059)
(0.202531 0.0470642 1.78518)
(0.101957 0.160712 1.7469)
(0.141412 0.0384005 1.07562)
(-0.0429167 0.263931 0.20497)
(0.161398 0.0901893 -0.134515)
(0.028055 -0.234314 0.244997)
(0.289599 0.392451 1.8342)
(0.173918 0.23134 1.59052)
(0.19235 -0.0803929 1.0247)
(0.0240393 -0.0845491 0.0971806)
(-0.400567 -0.142878 2.50279)
(-0.310239 0.176623 2.69348)
(-0.0494553 0.0489674 1.87516)
(0.140247 -0.00990228 0.0146602)
(0.229359 -0.272468 0.485847)
(0.409956 -0.168197 0.577603)
(0.153545 -0.145135 0.644076)
(0.163653 0.0400298 0.566014)
(0.113189 -0.357437 0.404909)
(0.380196 -0.126129 1.56086)
(-0.0480781 -0.244634 1.51075)
(0.0887 0.0371892 0.577466)
(-0.039091 0.0848714 -0.0753961)
(-0.0394473 -0.241469 0.244909)
(-0.00335116 -0.321839 -0.00202051)
(0.353288 -0.0360705 1.4859)
(0.300259 0.0374473 1.55581)
(0.234406 0.0748186 1.06727)
(0.264503 -0.0298931 0.247144)
(-0.0485574 -0.459806 0.12827)
(0.374264 0.40998 1.75995)
(0.325169 0.244746 1.62699)
(0.258266 -0.00770857 1.1644)
(0.0512837 -0.00802128 0.140329)
(-0.444677 -0.107476 2.67661)
(-0.308492 0.18236 2.65903)
(-0.0646561 0.00191158 1.4347)
(0.137176 -0.0090812 0.205055)
(0.232425 -0.25061 0.506472)
(0.350401 -0.0815814 0.655705)
(0.155393 -0.150004 0.801715)
(0.15678 0.018587 0.648982)
(0.136523 -0.331614 0.373578)
(0.421451 -0.24805 1.48184)
(0.115935 -0.231537 1.52184)
(0.0949087 0.101032 0.549658)
(-0.0156442 -0.0282358 0.0432159)
(0.00576144 -0.0929971 0.176198)
(0.0548455 -0.33495 0.0486614)
(0.479704 -0.366757 1.01615)
(0.379529 -0.0264605 1.46231)
(0.234019 0.119082 1.05195)
(0.217481 -0.0585888 0.323145)
(-0.105713 -0.551398 0.0477962)
(0.588139 0.11993 1.54368)
(0.433413 0.206337 1.67422)
(0.268459 0.119987 1.3275)
(0.0401361 0.0628738 0.322235)
(-0.409237 -0.0130007 2.89167)
(-0.285952 0.201806 2.67551)
(-0.10465 0.116551 1.22258)
(0.10723 -0.00785939 0.352173)
(0.207747 -0.214139 0.48917)
(0.262356 0.00504526 0.707804)
(0.145288 -0.13316 0.945854)
(0.119469 -0.0337111 0.740952)
(0.133394 -0.307228 0.376334)
(0.361031 -0.324531 1.4795)
(0.156257 -0.17414 1.56226)
(0.0870734 0.131702 0.580174)
(-0.025512 -0.0600658 0.150909)
(-0.00931456 -0.0464575 0.0652882)
(0.0373339 -0.347788 0.101425)
(0.25445 -0.509109 0.798068)
(0.371169 -0.0123428 1.45139)
(0.192426 0.157301 1.05989)
(0.111826 -0.0745481 0.395947)
(-0.12272 -0.477784 0.0751251)
(0.499423 -0.353441 1.07584)
(0.428671 0.163445 1.77294)
(0.215768 0.22364 1.53729)
(0.0263723 0.0610986 0.53065)
(-0.278675 -0.00637761 2.98166)
(-0.272076 0.210285 2.7049)
(-0.169476 0.210096 1.3191)
(0.0656714 -0.0118057 0.45964)
(0.169636 -0.170311 0.44979)
(0.17008 0.0858834 0.766008)
(0.0810478 -0.118496 1.05632)
(0.0724014 -0.0842476 0.793995)
(0.143193 -0.280548 0.413289)
(0.301148 -0.325251 1.52729)
(0.105882 -0.118693 1.59117)
(0.0816988 0.133112 0.609914)
(-0.0370633 -0.0879968 0.227663)
(-0.0233311 -0.0756654 0.0976376)
(-0.0493277 -0.358453 0.120107)
(-0.0585904 -0.425093 0.654414)
(0.362924 0.0721065 1.39525)
(0.181879 0.15796 1.06656)
(0.0798851 -0.100491 0.453835)
(-0.0946008 -0.347569 0.101317)
(0.218999 -0.448335 0.761369)
(0.388381 0.0127326 1.8835)
(0.177157 0.23534 1.7063)
(0.0324321 0.0477421 0.703514)
(-0.121951 -0.0862772 2.9989)
(-0.240408 0.16361 2.7994)
(-0.271939 0.270753 1.48283)
(0.0220085 -0.0199989 0.550651)
(0.13727 -0.135445 0.425665)
(0.096227 0.144033 0.856603)
(-0.0441403 -0.148623 1.15397)
(0.0502011 -0.0817732 0.79044)
(0.129486 -0.251699 0.4591)
(0.273626 -0.275493 1.65647)
(0.0105894 -0.086926 1.5773)
(0.097471 0.0801312 0.630769)
(-0.055335 -0.117857 0.29967)
(-0.02336 -0.0609143 0.189827)
(-0.124853 -0.352838 0.111375)
(-0.25388 -0.264409 0.492436)
(0.383405 0.0997278 1.30085)
(0.202018 0.0878764 1.08909)
(0.0558584 -0.144431 0.499487)
(-0.0780778 -0.277957 0.0956366)
(-0.0117994 -0.443174 0.538846)
(0.418491 -0.255653 1.8983)
(0.209094 0.151803 1.79303)
(0.0646077 0.0265648 0.873248)
(0.328292 -0.312011 2.71148)
(-0.0480844 0.0706829 2.91764)
(-0.229909 0.295412 1.65379)
(0.0137681 -0.0289053 0.614659)
(0.109595 -0.107449 0.399812)
(0.0293198 0.163537 0.981904)
(-0.15254 -0.184352 1.20707)
(0.0383904 -0.0624934 0.778277)
(0.039772 -0.200082 0.521799)
(0.0961429 -0.271125 1.7558)
(-0.00922258 -0.0843067 1.52134)
(0.117906 -0.0486566 0.694358)
(-0.0648635 -0.139141 0.394696)
(-0.0138879 0.00999905 0.301994)
(-0.143211 -0.310174 0.101822)
(-0.302586 -0.144143 0.345747)
(0.370456 0.0484766 1.24887)
(0.230238 -0.113191 1.1545)
(0.0454931 -0.215474 0.560274)
(-0.0771708 -0.238129 0.107142)
(-0.137001 -0.475069 0.399423)
(0.535697 -0.445058 1.80519)
(0.387676 -0.078158 1.82603)
(0.137809 -0.0161265 1.10365)
(-0.168015 -0.397375 2.03644)
(0.0459021 -0.119602 2.85157)
(0.0594221 0.253945 2.03068)
(0.0536844 -0.0338706 0.666837)
(0.0583941 -0.0809892 0.413837)
(-0.0502002 0.0674632 1.1822)
(-0.174296 -0.198077 1.20055)
(0.0365975 -0.070512 0.794447)
(-0.103878 -0.124383 0.577698)
(-0.0808925 -0.256867 1.78908)
(0.0103454 -0.177808 1.40675)
(0.125099 -0.187017 0.788538)
(-0.0591792 -0.135423 0.538947)
(5.02195e-05 0.114139 0.390791)
(-0.12074 -0.238327 0.138742)
(-0.270258 -0.0689903 0.251804)
(0.261904 -0.12138 1.20881)
(0.212922 -0.310698 1.19532)
(0.0279625 -0.301839 0.65525)
(-0.068825 -0.199507 0.148665)
(-0.168181 -0.408299 0.267943)
(0.589592 -0.414327 1.73035)
(0.53471 -0.169234 1.87487)
(0.214154 -0.116904 1.39015)
(-0.519461 -0.452145 1.2693)
(0.651419 -0.411352 2.4398)
(0.536004 -0.157915 2.31239)
(0.119386 -0.03193 0.74558)
(-0.0165626 -0.0449624 0.540535)
(-0.0692236 -0.119314 1.38818)
(-0.0958513 -0.251211 1.19436)
(0.0620752 -0.095606 0.884863)
(-0.18692 -0.059293 0.627282)
(-0.0959901 -0.205226 1.76101)
(0.0430088 -0.338258 1.26425)
(0.108628 -0.292226 0.9006)
(-0.0480918 -0.11326 0.73636)
(-7.73917e-05 0.200555 0.443961)
(-0.0946988 -0.160585 0.225524)
(-0.214282 0.0166922 0.203921)
(0.0951049 -0.300826 1.02223)
(0.166745 -0.431578 1.16742)
(-0.0109954 -0.347118 0.766814)
(-0.0313753 -0.161616 0.2136)
(-0.149082 -0.253216 0.196963)
(0.323141 -0.0616867 1.57867)
(0.523571 -0.0909246 2.02515)
(0.248075 -0.244211 1.66029)
(-0.377334 -0.240203 0.806782)
(0.797865 -0.142891 1.70723)
(0.842968 -0.343851 2.58201)
(0.211513 -0.0256282 0.906251)
(-0.0664669 -0.00854518 0.739873)
(-0.0441588 -0.257877 1.50008)
(0.0273286 -0.29973 1.22058)
(0.0972396 -0.104124 1.04259)
(-0.265284 -0.0210594 0.704415)
(-0.15654 -0.152447 1.62142)
(0.106667 -0.335507 1.18673)
(0.0804283 -0.3458 1.0265)
(-0.0364915 -0.0754996 0.956265)
(-0.00491253 0.259676 0.530267)
(-0.0618932 -0.0295028 0.347164)
(-0.116521 0.0837339 0.206544)
(0.0414694 -0.181083 0.765282)
(0.129503 -0.476633 1.09016)
(-0.00636247 -0.362521 0.900928)
(0.00825626 -0.11598 0.264791)
(-0.0975891 -0.170165 0.220121)
(-0.103545 0.144601 1.17382)
(0.42198 0.0463285 2.03958)
(0.238773 -0.415629 1.71103)
(-0.261999 -0.113394 0.572258)
(0.165711 0.162626 1.37742)
(0.665514 -0.285562 2.9169)
(0.307156 -0.017706 1.17507)
(-0.0711441 0.00896836 0.991673)
(-0.0744465 -0.358955 1.45937)
(0.14299 -0.30837 1.29754)
(0.125034 -0.0813133 1.24337)
(-0.368236 -0.0232295 0.810322)
(-0.298677 -0.128098 1.23164)
(0.0946047 -0.30366 1.04096)
(0.0711976 -0.341528 1.16207)
(-0.0195537 -0.0411136 1.19129)
(0.000981726 0.25812 0.61659)
(0.0158709 0.0526748 0.460732)
(-0.014071 0.109294 0.245957)
(0.0411749 0.0253716 0.558277)
(0.122202 -0.466759 1.04052)
(0.0716626 -0.357376 1.03247)
(0.0311618 -0.0761476 0.29787)
(-0.0222413 -0.141241 0.283182)
(-0.18801 0.032163 0.920459)
(0.207193 -0.106853 1.94162)
(0.224208 -0.493184 1.45764)
(-0.230013 -0.0852839 0.487368)
(-0.218072 0.192946 1.31481)
(0.437962 -0.171832 3.01281)
(0.333975 -0.00987641 1.48569)
(-0.0392752 -0.0022307 1.22464)
(-0.103838 -0.377249 1.40763)
(0.121744 -0.301385 1.38593)
(0.126816 -0.066207 1.43903)
(-0.348617 -0.0522271 0.917686)
(-0.187344 -0.0472437 0.883301)
(0.0293629 -0.245514 0.796208)
(0.081126 -0.303987 1.27895)
(0.021848 0.0298851 1.4276)
(0.0165963 0.182496 0.604065)
(0.134562 0.0495276 0.49796)
(0.0582835 0.106437 0.296484)
(0.0818644 0.0967197 0.456976)
(0.129478 -0.349212 1.0316)
(0.127858 -0.282731 1.17007)
(0.0503668 -0.0492696 0.324382)
(0.0292406 -0.128784 0.355327)
(-0.168873 -0.0700877 0.812899)
(-0.0527125 -0.420857 1.54022)
(0.172147 -0.334662 1.29841)
(-0.204382 -0.0827259 0.487449)
(-0.320069 0.0616409 1.22978)
(0.172734 -0.161332 3.09256)
(0.300121 -0.00325683 1.74305)
(-0.0653351 -0.0158989 1.45652)
(-0.0778616 -0.342218 1.39817)
(0.020975 -0.264997 1.45819)
(0.103542 -0.0566651 1.60256)
(-0.0674209 -0.0104061 0.991241)
(0.0411252 0.0427584 0.660779)
(0.0502137 -0.127591 0.653445)
(0.0871935 -0.286391 1.31567)
(0.0692696 0.101402 1.62928)
(0.0245617 0.169643 0.435317)
(0.151965 0.0591028 0.505491)
(0.11091 0.0935486 0.335088)
(0.143042 0.0886635 0.425837)
(0.146372 -0.0870335 1.04385)
(0.132055 -0.193856 1.34902)
(0.0689387 -0.0285783 0.347222)
(0.0566487 -0.127629 0.433419)
(-0.146269 -0.123332 0.817182)
(-0.0693583 -0.378493 1.21989)
(0.130452 -0.18436 1.33861)
(-0.19458 -0.0861224 0.528878)
(-0.44851 0.0281678 1.13327)
(-0.0955421 0.0690705 3.01721)
(0.250273 0.00086066 1.9331)
(-0.0104769 0.00272305 1.60508)
(0.0178324 -0.215944 1.41398)
(-0.0501899 -0.226349 1.51803)
(0.0734539 -0.0505553 1.73369)
(0.163703 0.085168 1.01256)
(0.19309 0.128697 0.503153)
(0.120522 0.0051881 0.564942)
(0.0870031 -0.290175 1.28715)
(0.107833 0.141316 1.77156)
(0.0129055 0.355184 0.359027)
(0.0982062 0.215912 0.499336)
(0.137794 0.0747277 0.380767)
(0.205352 0.0897888 0.451291)
(0.142699 0.0857581 1.02467)
(0.0708658 -0.0556192 1.57136)
(0.109075 0.0316226 0.405025)
(0.088476 -0.130455 0.512067)
(-0.081168 -0.104847 0.861551)
(-0.0100961 -0.0740209 1.21117)
(0.071477 -0.0583631 1.45558)
(-0.189536 -0.0922728 0.59144)
(-0.435936 0.0475648 1.15603)
(-0.183953 0.0189134 2.28114)
(0.210217 0.00399859 2.07442)
(-0.000777258 0.038722 1.57105)
(0.0620974 -0.129824 1.43064)
(-0.0533679 -0.14715 1.54325)
(0.0451494 -0.0593697 1.84226)
(0.236986 0.188066 0.825683)
(0.236868 0.199604 0.394509)
(0.1901 0.108983 0.518119)
(0.032208 -0.253116 1.20615)
(0.13451 0.15011 1.85965)
(0.0105495 0.459394 0.471669)
(0.0533967 0.356974 0.474452)
(0.134329 0.0467011 0.437711)
(0.250416 0.111091 0.502063)
(0.125043 0.168571 0.979817)
(0.022848 0.111718 1.75867)
(0.131891 0.0502991 0.529423)
(0.119527 -0.133191 0.575175)
(0.00306352 -0.0564717 0.903294)
(0.0299562 0.13265 1.2112)
(0.00138255 0.065209 1.60299)
(-0.188544 -0.101959 0.6506)
(-0.359772 0.0678634 1.24214)
(-0.294276 0.169357 1.69447)
(0.199837 0.0131234 2.15104)
(0.107197 0.0424371 1.20873)
(0.262076 -0.0589724 1.50128)
(0.0153521 -0.0709309 1.63326)
(0.0307727 -0.0539589 1.93576)
(-0.000969926 0.39356 0.435444)
(0.205289 0.238399 0.339776)
(0.261602 0.169828 0.519203)
(-0.025305 -0.0782978 1.07513)
(0.176196 0.135479 1.91383)
(0.0103073 0.422863 0.647344)
(-0.0159169 0.34264 0.485119)
(0.122887 0.022732 0.498926)
(0.281176 0.141483 0.557349)
(0.120149 0.201205 0.956766)
(0.0111626 0.22123 1.86533)
(0.0834045 -0.0370709 0.639955)
(0.142295 -0.135167 0.611548)
(0.0503064 -0.0258272 0.951354)
(0.0353988 0.208608 1.19732)
(-0.0635054 0.202212 1.74917)
(-0.190189 -0.114549 0.692323)
(-0.333033 0.0705904 1.31931)
(-0.366729 0.265634 1.58624)
(0.228934 0.0188989 2.2019)
(-0.170046 0.183143 0.453784)
(0.339972 -0.0401863 1.39608)
(0.0938697 -0.00419025 1.77419)
(0.038817 0.00681557 2.03504)
(-0.12322 0.319911 0.28743)
(0.145969 0.214633 0.3461)
(0.304254 0.198822 0.561604)
(0.0364588 0.111608 0.971754)
(0.186597 0.118914 1.94696)
(0.012274 0.279741 0.815673)
(0.0166739 0.134569 0.628174)
(0.118719 -0.0195216 0.558674)
(0.304935 0.15179 0.616429)
(0.128352 0.212892 0.966706)
(0.0203974 0.267356 1.91658)
(0.0146477 -0.0658763 0.644805)
(0.15751 -0.139604 0.630996)
(0.0446292 -0.0279129 1.03164)
(0.0286796 0.243788 1.22087)
(-0.105981 0.302803 1.89365)
(-0.184369 -0.127399 0.713846)
(-0.321859 0.0533616 1.40558)
(-0.406665 0.293635 1.63411)
(0.282248 0.0172854 2.17414)
(-0.167839 0.130754 0.260112)
(0.242074 0.413513 0.90192)
(0.246292 0.0700677 1.79934)
(0.0650793 0.0878654 2.12041)
(-0.157053 0.163543 0.288788)
(0.0433996 0.0670428 0.430753)
(0.309046 0.172132 0.609691)
(0.123423 0.218806 0.948092)
(0.165644 0.120764 1.96465)
(0.00346513 0.0974609 0.880139)
(0.0844514 0.00666171 0.734387)
(0.117804 -0.0769802 0.58882)
(0.305264 0.105643 0.674059)
(0.131799 0.228992 1.02139)
(0.0266147 0.286864 1.94015)
(-0.00335219 -0.00251283 0.59947)
(0.152403 -0.154323 0.650208)
(-0.0102644 -0.0613858 1.12907)
(0.0180706 0.25989 1.27607)
(-0.13957 0.374425 2.02243)
(-0.170847 -0.130129 0.721259)
(-0.316456 0.0212439 1.49231)
(-0.431784 0.297541 1.72371)
(0.341978 0.0213 2.21356)
(-0.00879493 -0.0219063 0.254051)
(0.0905557 0.215921 0.449743)
(0.417645 0.116287 1.78933)
(0.119624 0.140307 2.17292)
(-0.162508 0.0304951 0.325387)
(-0.0191848 -0.0937019 0.504792)
(0.275253 0.00806326 0.665775)
(0.156896 0.234724 0.973671)
(0.154013 0.16403 1.98344)
(-0.0110006 -0.0701066 0.860013)
(0.106165 -0.0225992 0.728546)
(0.0954053 -0.14366 0.584932)
(0.247866 -0.00703973 0.731158)
(0.0709843 0.241018 1.10264)
(0.0133699 0.308334 1.95447)
(-0.0115888 0.0437801 0.555876)
(0.106525 -0.183487 0.676736)
(-0.0848752 -0.088881 1.19954)
(-0.0151577 0.255616 1.34392)
(-0.171795 0.426621 2.11496)
(-0.167666 -0.120521 0.722241)
(-0.314768 -0.0173066 1.55976)
(-0.434753 0.283862 1.8079)
(0.437656 0.0254603 2.29987)
(0.0619353 -0.0878509 0.244784)
(0.117889 0.0479451 0.263149)
(0.417206 0.135512 1.7385)
(0.170822 0.150366 2.21123)
(-0.127221 -0.0302217 0.360078)
(-0.051115 -0.172044 0.531678)
(0.212384 -0.160425 0.697682)
(0.142385 0.196175 0.997444)
(0.15809 0.212916 2.00389)
(-0.0111243 -0.15101 0.814374)
(0.104715 -0.0196089 0.5785)
(0.0555878 -0.199542 0.569544)
(0.162491 -0.119038 0.738533)
(-0.0206332 0.220196 1.14317)
(-0.00642316 0.341801 1.94307)
(-0.0205497 0.0307007 0.5427)
(0.0119873 -0.21726 0.696871)
(-0.173176 -0.0883053 1.23639)
(-0.0888814 0.246337 1.42281)
(-0.205599 0.471167 2.14183)
(-0.177838 -0.105345 0.715747)
(-0.332133 -0.0442657 1.58922)
(-0.440772 0.268961 1.86522)
(0.417982 0.0475375 2.32968)
(0.0819007 -0.109511 0.253898)
(0.0904898 0.0724893 0.178452)
(0.310184 0.0595566 1.74297)
(0.212711 0.156531 2.2904)
(-0.0269246 -0.0363735 0.406451)
(-0.087371 -0.176097 0.547189)
(0.166603 -0.211332 0.697483)
(0.0973059 0.139431 1.02346)
(0.182586 0.251039 2.03079)
(-0.0105631 -0.162315 0.732253)
(0.0465436 0.0105247 0.476196)
(0.0225411 -0.230698 0.559876)
(0.0896029 -0.206328 0.72085)
(-0.0801302 0.160414 1.13683)
(-0.0195743 0.37467 1.90774)
(-0.0439092 -0.031517 0.553676)
(-0.0826005 -0.244368 0.701883)
(-0.261128 -0.101325 1.23738)
(-0.165026 0.219408 1.49611)
(-0.226326 0.508145 2.1085)
(-0.20097 -0.0941632 0.71077)
(-0.353564 -0.0512359 1.58305)
(-0.454901 0.255442 1.9031)
(0.306335 0.0652284 2.19866)
(0.0819809 -0.114917 0.29332)
(0.00985896 0.130666 0.201582)
(0.203019 0.0562475 1.70586)
(0.212925 0.173471 2.28767)
(0.0460455 -0.0223482 0.465322)
(-0.135789 -0.125779 0.593167)
(0.136064 -0.163894 0.726954)
(0.0839614 0.142674 1.04149)
(0.184279 0.256626 2.03642)
(-0.0201247 -0.106216 0.667835)
(-0.0316441 0.0132399 0.472188)
(-0.00911499 -0.235079 0.568044)
(0.0504901 -0.260338 0.722875)
(-0.0768325 0.0758509 1.10147)
(-0.0309668 0.394028 1.85079)
(-0.060638 -0.064848 0.573853)
(-0.143778 -0.263979 0.703714)
(-0.305019 -0.171413 1.19519)
(-0.202141 0.160712 1.54435)
(-0.243716 0.535873 2.04643)
(-0.234912 -0.0908316 0.721533)
(-0.361147 -0.0432094 1.54379)
(-0.477611 0.238212 1.91115)
(0.194205 -0.0414175 1.80757)
(0.0738443 -0.110473 0.366806)
(-0.0833359 0.12497 0.290438)
(0.0744316 0.399869 1.47021)
(0.232214 0.207868 2.22329)
(0.053962 -0.000601204 0.529477)
(-0.171776 -0.0612427 0.669437)
(0.0943448 -0.0500079 0.857491)
(0.0970672 0.214255 1.08271)
(0.17568 0.257787 2.02087)
(-0.0261972 -0.0684011 0.690772)
(-0.0796997 0.0117523 0.515804)
(-0.0352391 -0.233418 0.601737)
(0.0377219 -0.279294 0.7577)
(-0.0305161 0.0184411 1.09291)
(-0.0330089 0.397223 1.7992)
(-0.0757287 -0.0681514 0.602888)
(-0.165635 -0.264633 0.707325)
(-0.28849 -0.258951 1.11176)
(-0.196808 0.115095 1.55949)
(-0.248917 0.544272 1.97319)
(-0.241492 -0.0879346 0.754558)
(-0.424449 -0.0541314 1.40594)
(-0.474773 0.202731 1.8597)
(-0.317389 0.04137 1.01699)
(0.0730439 -0.107068 0.451025)
(-0.113729 0.0473663 0.404413)
(-0.220499 0.474728 0.907927)
(0.20041 0.29201 2.09206)
(0.0372684 -0.00555505 0.596607)
(-0.173549 -0.0361843 0.757055)
(0.0519726 -0.0418521 1.01281)
(0.16611 0.387078 1.19336)
(0.153104 0.27428 1.9986)
(-0.0340386 -0.0135097 0.762661)
(-0.0929442 0.0201863 0.565316)
(-0.0411004 -0.23283 0.648669)
(0.0338422 -0.267273 0.816225)
(-0.00252502 0.00746673 1.14418)
(-0.0351113 0.407018 1.76624)
(-0.0704495 -0.0661938 0.630752)
(-0.157693 -0.244736 0.708935)
(-0.240436 -0.294366 1.03218)
(-0.14361 0.000714452 1.55982)
(-0.2423 0.529677 1.93054)
(-0.18807 -0.0693064 0.801799)
(-0.448045 -0.0877008 1.14229)
(-0.387773 0.200159 1.85806)
(-0.0133448 0.0273921 0.656962)
(0.0771502 -0.1079 0.511008)
(-0.0458815 -0.0318814 0.488139)
(-0.0609109 0.184592 0.663653)
(0.313632 0.449164 1.8153)
(0.00648233 -0.0423403 0.650472)
(-0.130773 -0.0578055 0.843558)
(-0.00483996 -0.126898 1.12588)
(0.211018 0.448808 1.32092)
(0.147374 0.322234 1.97368)
(-0.0276928 0.0861499 0.861253)
(-0.0608527 0.0146931 0.609252)
(-0.0309083 -0.23299 0.691541)
(0.0403228 -0.252438 0.867663)
(-0.00347606 -0.0522488 1.26271)
(-0.0213806 0.418506 1.76759)
(-0.0293232 -0.0473274 0.659974)
(-0.11373 -0.202334 0.701204)
(-0.198585 -0.275904 0.978418)
(-0.0956565 -0.143444 1.54097)
(-0.23176 0.509437 1.93624)
(-0.107972 -0.0432418 0.817925)
(-0.319471 -0.0471321 0.975696)
(-0.277726 -0.0297658 1.72987)
(0.172944 0.0125838 0.534337)
(0.0844685 -0.107861 0.528326)
(0.0308886 -0.0679694 0.53972)
(0.0154289 0.114803 0.585643)
(0.156415 0.279237 1.23613)
(-0.00599883 -0.0672321 0.678506)
(-0.0727331 -0.0907436 0.925974)
(-0.0310857 -0.171905 1.18347)
(0.197909 0.352375 1.43302)
(0.202084 0.407551 2.04192)
(0.0191587 0.168112 0.795276)
(0.0169693 -0.00295766 0.64683)
(-0.0172736 -0.230751 0.721521)
(0.0773944 -0.249425 0.895919)
(-0.010076 -0.192434 1.39698)
(-0.00453806 0.418745 1.82537)
(0.0269807 -0.0129685 0.70314)
(-0.0666228 -0.172257 0.68525)
(-0.159112 -0.245575 0.920785)
(-0.0924878 -0.201718 1.53714)
(-0.214282 0.468109 1.98032)
(-0.0368679 -0.0234187 0.805298)
(-0.120961 -0.0276952 0.927018)
(-0.22223 -0.0367309 1.01914)
(0.251355 0.00771741 0.495429)
(0.0922325 -0.103548 0.512901)
(0.0801473 -0.0780172 0.563694)
(-0.0440894 0.148838 0.547464)
(0.182579 0.0765451 1.01308)
(-0.00448614 -0.0671291 0.686111)
(-0.0385418 -0.12096 1.00223)
(-0.031632 -0.150998 1.19884)
(0.111747 0.0975523 1.58613)
(0.267284 0.477049 2.13274)
(0.0206613 0.126224 0.618518)
(0.0640513 -0.0324219 0.639777)
(-0.00574032 -0.224972 0.733867)
(0.129126 -0.244411 0.916192)
(-0.0113669 -0.314136 1.51064)
(0.00416222 0.420297 1.93237)
(0.0525189 0.00306868 0.723993)
(-0.00961523 -0.145121 0.65998)
(-0.0749226 -0.24398 0.852348)
(-0.0676226 -0.322125 1.42823)
(-0.196955 0.413891 2.03188)
(0.0287876 -0.0183106 0.769071)
(0.0130127 -0.0274254 0.859566)
(-0.0504678 -0.00637341 0.793217)
(0.306319 0.0128124 0.508151)
(0.0978318 -0.104311 0.478803)
(0.0933648 -0.0770876 0.578826)
(-0.0680249 0.191103 0.521625)
(0.252885 0.0528847 1.02015)
(-0.00539353 -0.0418574 0.683062)
(-0.0208773 -0.148045 1.06082)
(-0.0172026 -0.0410761 1.21716)
(0.059831 -0.0892941 1.67399)
(0.258514 0.461979 2.18128)
(0.0158423 0.12434 0.506754)
(0.0856439 -0.0430341 0.597419)
(0.000155793 -0.218252 0.728719)
(0.184014 -0.24159 0.958284)
(0.000788656 -0.370713 1.61134)
(0.00553186 0.416561 2.06885)
(0.0608546 0.00817643 0.70026)
(0.0573307 -0.124915 0.616238)
(0.0629656 -0.250821 0.778759)
(0.0556718 -0.40152 1.26792)
(-0.164365 0.320163 2.1053)
(0.0796452 -0.0195276 0.705036)
(0.102972 -0.0561923 0.742237)
(0.0703587 -0.0508257 0.761575)
(0.359761 0.0275857 0.52965)
(0.107877 -0.113757 0.424513)
(0.0784433 -0.0667459 0.584294)
(0.0460749 0.175668 0.539976)
(0.299 0.165966 0.965125)
(-0.0321744 -0.0105108 0.678526)
(0.00859541 -0.168758 1.0823)
(0.0480549 0.0779162 1.28027)
(0.0849978 -0.18472 1.75305)
(0.232828 0.385613 2.23593)
(0.00967678 0.146103 0.439971)
(0.0732657 -0.0500802 0.555143)
(0.000302233 -0.200743 0.695429)
(0.205945 -0.241516 1.03527)
(0.0263197 -0.38107 1.71979)
(0.00210094 0.407517 2.20925)
(0.0753765 0.0329831 0.627141)
(0.11947 -0.1163 0.547559)
(0.193699 -0.238452 0.701031)
(0.146613 -0.357002 1.19755)
(-0.137948 0.249367 2.21426)
(0.115589 -0.0208023 0.616322)
(0.16704 -0.126787 0.611151)
(0.215054 -0.108232 0.664574)
(0.411433 0.0344991 0.53529)
(0.100623 -0.111017 0.38391)
(0.028062 -0.0856936 0.560024)
(0.178894 0.102557 0.543509)
(0.217189 0.145453 0.89296)
(-0.0603034 0.0127991 0.678253)
(0.0403851 -0.182054 1.05719)
(0.140112 0.0759407 1.36733)
(0.137597 -0.178217 1.84718)
(0.217487 0.304789 2.33064)
(0.00484793 0.190741 0.413729)
(0.0217538 -0.0487572 0.525302)
(-0.0267543 -0.172153 0.640863)
(0.157695 -0.21418 1.12187)
(0.0489752 -0.290671 1.84666)
(-0.0138334 0.378672 2.31849)
(0.098406 0.0609578 0.541953)
(0.145732 -0.118233 0.466903)
(0.237925 -0.201892 0.647508)
(0.154255 -0.262626 1.24606)
(-0.141068 0.224828 2.34392)
(0.124294 -0.0262012 0.50737)
(0.144477 -0.184698 0.455472)
(0.286736 -0.115974 0.539841)
(0.457581 0.0388263 0.523313)
(0.0894165 -0.113641 0.396609)
(-0.0215632 -0.152639 0.497301)
(0.263179 -0.0140002 0.54009)
(0.204756 0.207458 0.87663)
(-0.114187 0.010626 0.671667)
(0.0369016 -0.185136 0.987665)
(0.166809 -0.0468142 1.42525)
(0.160511 -0.0639422 1.94705)
(0.208416 0.279994 2.46056)
(-0.000236923 0.249563 0.429396)
(-0.0235935 -0.0450921 0.511422)
(-0.108872 -0.125259 0.602896)
(0.0175406 -0.129166 1.15701)
(0.0619121 -0.0967372 1.94816)
(-0.0191023 0.358078 2.39089)
(0.111995 0.0778591 0.470895)
(0.104972 -0.104583 0.402455)
(0.16265 -0.132947 0.626635)
(0.109464 -0.0286204 1.41137)
(-0.157501 0.223823 2.47884)
(0.0991911 -0.0384122 0.402414)
(0.0440902 -0.139681 0.303348)
(0.222084 -0.0803536 0.429959)
(0.421928 0.0408688 0.464771)
(0.0890396 -0.133842 0.49347)
(-0.0699792 -0.184884 0.444645)
(0.293412 -0.0575785 0.538372)
(0.289713 0.219094 1.03844)
(-0.192123 -0.0068036 0.651726)
(-0.0769607 -0.155073 0.863742)
(0.0825599 -0.169087 1.38762)
(0.150958 0.0300692 1.96693)
(0.183989 0.196551 2.59904)
(-0.00729913 0.30078 0.491549)
(-0.0693605 -0.0410325 0.52316)
(-0.211954 -0.0503937 0.580539)
(-0.175832 -0.0102791 1.06219)
(0.0827014 0.0372309 1.95529)
(-0.0380126 0.339745 2.424)
(0.0909641 0.0846865 0.450266)
(-0.00549456 -0.0609361 0.395011)
(-0.0752699 -0.0184293 0.609898)
(0.0528278 0.233762 1.61029)
(-0.15336 0.219911 2.55668)