/*--------------------------------*- C++ -*----------------------------------*\
| =========                 |                                                 |
| \\      /  F ield         | OpenFOAM: The Open Source CFD Toolbox           |
|  \\    /   O peration     | Version:  5.x                                   |
|   \\  /    A nd           | Web:      www.OpenFOAM.org                      |
|    \\/     M anipulation  |                                                 |
\*---------------------------------------------------------------------------*/
FoamFile
{
    version     2.0;
    format      ascii;
    class       volVectorField;
    location    "1.25";
    object      Us;
}
// * * * * * * * * * * * * * * * * * * * * * * * * * * * * * * * * * * * * * //

dimensions      [0 1 -1 0 0 0 0];

internalField   nonuniform List<vector> 
10571
(
(-0.143247 -0.0460864 -0.0321841)
(-0.014956 0.0063703 0.0247493)
(-0.0783353 -0.191833 0.0626236)
(-0.251295 -0.315006 0.0682271)
(-0.189303 -0.167567 0.0255814)
(-0.0365198 -0.0280315 0.082039)
(-0.11894 -0.162133 0.0183978)
(-0.209905 -0.348948 0.00622349)
(-0.107235 -0.234564 -0.02525)
(-0.0304737 -0.156816 -0.0126295)
(-0.0349011 -0.096743 0.0777882)
(-0.197391 -0.100942 0.079091)
(-0.25126 -0.178978 0.0119473)
(-0.167424 -0.156849 -0.031843)
(-0.0667754 -0.123545 -0.0571569)
(0.0178729 -0.0931007 -0.0336763)
(-0.133953 -0.115446 0.0456634)
(-0.236034 -0.101211 -0.00203653)
(-0.153213 -0.0669991 -0.0467712)
(-0.0458123 -0.0335223 -0.0643992)
(0.0112782 -0.0381439 -0.0581031)
(-0.196921 -0.0431958 -0.00874507)
(-0.109811 4.61054e-05 -0.0447694)
(-0.0401263 0.0107174 -0.0740428)
(-0.0424359 -0.0256824 0.142353)
(-0.0744407 0.0692544 0.160421)
(-0.102312 -0.0390709 0.260835)
(-0.0984438 -0.0852755 0.114128)
(-0.142956 -0.119427 0.069814)
(-0.0606064 -0.00056013 0.169181)
(-0.189413 -0.0895356 0.158923)
(-0.199928 -0.153892 0.123846)
(-0.120797 -0.150249 0.0700857)
(-0.0527868 -0.125678 0.0846287)
(-0.00982253 -0.0887465 0.175434)
(-0.154672 -0.108209 0.241847)
(-0.2409 -0.140358 0.147899)
(-0.167738 -0.139115 0.0486785)
(-0.0741236 -0.0993735 0.00314733)
(-0.00525147 -0.0747074 0.0357402)
(-0.138307 -0.113487 0.177649)
(-0.21336 -0.123315 0.051798)
(-0.12905 -0.0829644 -0.0488254)
(-0.0555622 -0.0608526 -0.0336539)
(0.0121154 -0.0293686 -0.0170345)
(-0.18809 -0.0927475 0.0351336)
(-0.103618 -0.021264 -0.0532553)
(-0.0250343 0.00505146 -0.0557122)
(0.0068752 0.0131507 0.381165)
(-0.133053 0.0982699 0.252532)
(-0.154175 0.100002 0.398658)
(-0.068398 -0.0367375 0.269535)
(-0.110454 -0.121555 0.115249)
(0 0 0)
(-0.182193 -0.0720883 0.20279)
(-0.166542 -0.111651 0.126109)
(-0.132042 -0.127692 0.0161655)
(-0.071366 -0.123458 0.0196262)
(-0.0272525 -0.129733 0.222044)
(-0.14506 -0.171226 0.315335)
(-0.174243 -0.110472 0.148305)
(-0.143437 -0.127832 0.0115153)
(-0.0976806 -0.122871 -0.0654688)
(-0.0342251 -0.0793707 -0.0308884)
(-0.110366 -0.0932108 0.27677)
(-0.172686 -0.112005 0.0168511)
(-0.116154 -0.101053 -0.137971)
(-0.0655384 -0.0952587 -0.119421)
(0.00935849 -0.0357 -0.0528763)
(-0.150711 -0.0762681 -0.0143965)
(-0.0996661 -0.0398578 -0.163724)
(-0.0159925 -0.00909296 -0.126203)
(0.0274267 0.00362978 0.394926)
(0.094655 -0.130977 -0.45933)
(0 0 0)
(-0.0551496 -0.0121928 0.302868)
(0 0 0)
(0 0 0)
(-0.162437 -0.0715261 0.179468)
(-0.15213 -0.116522 0.123056)
(-0.105495 -0.109825 -0.0268409)
(-0.0395785 -0.106024 -0.067725)
(-0.0620244 -0.124303 0.263029)
(-0.154957 -0.143326 0.293691)
(-0.0546645 -0.0647012 0.0331523)
(-0.0975582 -0.117951 -0.0250125)
(-0.0709773 -0.111137 -0.118973)
(-0.0298579 -0.0797604 -0.111734)
(-0.0874973 -0.034456 0.314012)
(-0.104401 -0.0464697 -0.0348)
(-0.0684091 -0.077199 -0.223739)
(-0.047741 -0.0922681 -0.205941)
(0.00938318 -0.0638431 -0.154057)
(0.125002 0.0312021 -0.375387)
(-0.0658435 -0.0402945 -0.277674)
(-0.00869889 -0.0218447 -0.261617)
(0 0 0)
(0.112564 -0.124592 -0.428537)
(0 0 0)
(0 0 0)
(0 0 0)
(0 0 0)
(0.143981 -0.0372854 -0.407506)
(0.22452 -0.0615233 -0.466665)
(0 0 0)
(-0.293687 0.153935 -0.221349)
(0 0 0)
(0 0 0)
(0.144032 0.0211138 -0.409617)
(0.213165 0.0134722 -0.450257)
(0.174057 -0.102516 -0.4467)
(0.0459864 -0.0355849 -0.340066)
(-0.108726 0.010222 0.363724)
(0.139057 0.066722 -0.372778)
(0.196027 0.0733187 -0.445144)
(0.2689 0.0558502 -0.487355)
(0.237896 -0.0907339 -0.312639)
(0.120815 0.0476259 -0.310358)
(0.0720834 -0.0409479 -0.411224)
(0.00707813 -0.0223063 -0.37245)
(0 0 0)
(0.0798285 -0.140658 -0.364791)
(0 0 0)
(0 0 0)
(0 0 0)
(0 0 0)
(0.137136 -0.0391017 -0.348529)
(0.171555 -0.141083 -0.376812)
(0 0 0)
(0 0 0)
(-0.00268319 0.0016235 -0.000941306)
(0 0 0)
(0.0435467 0.0289577 -0.286739)
(0.140787 0.00819537 -0.382504)
(0.176771 0.0272135 -0.388491)
(-1.31264e-14 -2.61819e-14 -2.52824e-14)
(-1.31264e-14 -2.61819e-14 -2.52824e-14)
(-0.00245761 -0.000137987 -0.00089772)
(0.0769406 -0.0282996 -0.148366)
(0.142463 0.0818068 -0.367637)
(0.194313 0.00332154 -0.409102)
(0 0 0)
(0 0 0)
(0.141779 -0.0101392 -0.287594)
(0.176055 -0.0344882 -0.399326)
(0.172897 0.0202466 -0.456129)
(0 0 0)
(0 0 0)
(0 0 0)
(0 0 0)
(0 0 0)
(0.0684339 -0.0659166 -0.277701)
(0.126215 -0.0391427 -0.300165)
(0 0 0)
(0.325634 -0.098781 -0.358858)
(0 0 0)
(0 0 0)
(0 0 0)
(0 0 0)
(0.136233 0.0151338 -0.321464)
(0 0 0)
(0 0 0)
(0 0 0)
(0 0 0)
(0.0724424 -0.0305591 -0.0996891)
(0.146058 0.0786933 -0.312883)
(0.205326 0.00494282 -0.358473)
(0.275021 0.058571 -0.406491)
(0 0 0)
(0 0 0)
(0.110424 -0.024157 -0.298401)
(0.18009 -0.0471961 -0.36023)
(0 0 0)
(0 0 0)
(0.13453 -0.0532168 -0.203354)
(0 0 0)
(0 0 0)
(0 0 0)
(0 0 0)
(0.12861 -0.0287187 -0.233643)
(0 0 0)
(0 0 0)
(0 0 0)
(0 0 0)
(-0.0755175 -0.00748833 0.00602259)
(0.049112 0.0226865 -0.197921)
(0.132087 0.0248069 -0.250336)
(0 0 0)
(0 0 0)
(0 0 0)
(0 0 0)
(0 0 0)
(0.134689 0.0887843 -0.256531)
(0.221359 0.068771 -0.302156)
(0 0 0)
(0 0 0)
(0 0 0)
(0 0 0)
(0.192065 -0.0208426 -0.311147)
(0 0 0)
(0 0 0)
(0.0853554 -0.147929 -0.16593)
(0 0 0)
(0 0 0)
(0 0 0)
(0 0 0)
(1.41344e-14 -4.09075e-15 -2.32071e-14)
(0 0 0)
(0 0 0)
(0 0 0)
(0 0 0)
(0 0 0)
(0 0 0)
(0.132754 0.0311794 -0.197465)
(0 0 0)
(0 0 0)
(0 0 0)
(0 0 0)
(-0.0253769 0.082748 -0.0991421)
(0.139221 0.0835907 -0.202489)
(0.188361 -0.0390698 -0.25488)
(0 0 0)
(0 0 0)
(0.159421 -0.0426951 -0.164195)
(0.204985 0.0151031 -0.239335)
(0 0 0)
(0 0 0)
(0.0913652 -0.144211 -0.123393)
(0 0 0)
(0 0 0)
(0 0 0)
(0.0914282 -0.082565 -0.0880856)
(0 0 0)
(0 0 0)
(0 0 0)
(0 0 0)
(0 0 0)
(0.0682541 -0.0117402 -0.106586)
(0.147473 0.0196638 -0.163044)
(0 0 0)
(0 0 0)
(0 0 0)
(0 0 0)
(0.132279 0.0873556 -0.155247)
(0.213229 0.0750184 -0.181117)
(0 0 0)
(0 0 0)
(0.127467 0.0184716 -0.111373)
(0.257455 0.015385 -0.217438)
(0 0 0)
(0 0 0)
(0.0871004 -0.148839 -0.0759732)
(0 0 0)
(0 0 0)
(0 0 0)
(0.0814125 -0.0791223 -0.0259473)
(0 0 0)
(0 0 0)
(0 0 0)
(0 0 0)
(0.0270184 -0.0502736 0.084805)
(0.0609506 -0.0224408 -0.0284754)
(0.140715 0.0123125 -0.086658)
(0 0 0)
(0 0 0)
(0 0 0)
(0 0 0)
(0.131873 0.0790515 -0.0820537)
(0 0 0)
(0 0 0)
(0 0 0)
(0.144065 0.0424728 -0.0952592)
(0.228148 -0.0764934 -0.131907)
(0 0 0)
(0 0 0)
(0 0 0)
(0 0 0)
(0 0 0)
(0 0 0)
(0.047067 -0.088889 0.0847851)
(0 0 0)
(0 0 0)
(0 0 0)
(0 0 0)
(0 0 0)
(0.036628 -0.0329247 0.0450998)
(0.113104 -0.0243344 -0.0699668)
(0 0 0)
(0 0 0)
(0 0 0)
(0.0543294 0.0528685 0.0254969)
(0.121602 0.0895917 -0.0350136)
(0 0 0)
(0 0 0)
(0 0 0)
(0.140657 0.0292372 -0.0278664)
(0 0 0)
(0 0 0)
(0 0 0)
(0 0 0)
(0 0 0)
(0 0 0)
(0 0 0)
(0 0 0)
(0 0 0)
(0 0 0)
(0 0 0)
(0 0 0)
(0 0 0)
(0 0 0)
(0 0 0)
(0 0 0)
(0 0 0)
(0 0 0)
(0 0 0)
(0.113239 0.0936485 0.052794)
(0 0 0)
(0 0 0)
(0 0 0)
(0.129144 0.093948 0.0550495)
(0 0 0)
(0 0 0)
(0 0 0)
(0 0 0)
(0 0 0)
(0 0 0)
(0 0 0)
(0 0 0)
(0 0 0)
(0 0 0)
(0 0 0)
(0 0 0)
(0 0 0)
(0 0 0)
(0 0 0)
(0 0 0)
(0 0 0)
(0 0 0)
(0.0409804 0.0589562 0.149824)
(0.124294 0.0739668 0.109509)
(0 0 0)
(0 0 0)
(0 0 0)
(0.160873 0.020504 0.0818136)
(0 0 0)
(0 0 0)
(0 0 0)
(0 0 0)
(0 0 0)
(0 0 0)
(0 0 0)
(0 0 0)
(0 0 0)
(0 0 0)
(0 0 0)
(0 0 0)
(0.0319331 -0.0417739 0.235213)
(-0.00219698 -0.0526764 0.27248)
(0 0 0)
(0 0 0)
(0 0 0)
(0 0 0)
(0 0 0)
(0.203 0.0484885 0.154298)
(0 0 0)
(0 0 0)
(0 0 0)
(0 0 0)
(0 0 0)
(0 0 0)
(0 0 0)
(0 0 0)
(0 0 0)
(0 0 0)
(0 0 0)
(0 0 0)
(0 0 0)
(0 0 0)
(0 0 0)
(0 0 0)
(0 0 0)
(0 0 0)
(0 0 0)
(0 0 0)
(0 0 0)
(0 0 0)
(0 0 0)
(0 0 0)
(0 0 0)
(0 0 0)
(0 0 0)
(0 0 0)
(0 0 0)
(0 0 0)
(0 0 0)
(0 0 0)
(0 0 0)
(0 0 0)
(0 0 0)
(0 0 0)
(0 0 0)
(0 0 0)
(0 0 0)
(0 0 0)
(0 0 0)
(0 0 0)
(0 0 0)
(0 0 0)
(0 0 0)
(0 0 0)
(0.0340575 0.0548349 0.386084)
(0 0 0)
(0 0 0)
(0 0 0)
(0 0 0)
(0 0 0)
(0 0 0)
(0 0 0)
(0 0 0)
(0 0 0)
(0 0 0)
(0 0 0)
(0 0 0)
(0 0 0)
(0 0 0)
(0 0 0)
(0 0 0)
(0 0 0)
(0 0 0)
(0 0 0)
(0 0 0)
(0 0 0)
(0 0 0)
(0 0 0)
(0 0 0)
(0 0 0)
(0 0 0)
(0 0 0)
(0 0 0)
(0 0 0)
(0 0 0)
(0 0 0)
(0 0 0)
(0 0 0)
(0 0 0)
(0 0 0)
(0 0 0)
(0 0 0)
(0 0 0)
(0 0 0)
(0 0 0)
(0 0 0)
(0 0 0)
(0 0 0)
(0 0 0)
(0 0 0)
(0 0 0)
(0 0 0)
(0 0 0)
(0 0 0)
(0 0 0)
(0 0 0)
(0 0 0)
(0 0 0)
(0 0 0)
(0 0 0)
(0 0 0)
(0 0 0)
(0 0 0)
(0 0 0)
(0 0 0)
(0 0 0)
(0 0 0)
(0 0 0)
(0 0 0)
(0 0 0)
(0 0 0)
(0 0 0)
(0 0 0)
(0 0 0)
(0 0 0)
(0 0 0)
(0 0 0)
(0 0 0)
(0 0 0)
(0 0 0)
(0 0 0)
(0 0 0)
(0 0 0)
(0 0 0)
(0 0 0)
(0 0 0)
(0 0 0)
(0 0 0)
(0 0 0)
(0 0 0)
(0 0 0)
(0 0 0)
(0 0 0)
(0 0 0)
(0 0 0)
(0 0 0)
(0 0 0)
(0 0 0)
(0 0 0)
(0 0 0)
(0 0 0)
(0 0 0)
(0 0 0)
(0 0 0)
(0 0 0)
(0 0 0)
(0 0 0)
(0 0 0)
(0 0 0)
(0 0 0)
(0 0 0)
(0 0 0)
(0 0 0)
(0 0 0)
(0 0 0)
(0 0 0)
(0 0 0)
(0 0 0)
(0 0 0)
(0 0 0)
(0 0 0)
(0 0 0)
(0 0 0)
(0 0 0)
(0 0 0)
(0 0 0)
(0 0 0)
(0 0 0)
(0 0 0)
(0 0 0)
(0 0 0)
(0 0 0)
(0 0 0)
(0 0 0)
(0 0 0)
(0 0 0)
(0 0 0)
(0 0 0)
(0 0 0)
(0 0 0)
(0 0 0)
(0 0 0)
(0 0 0)
(0 0 0)
(0 0 0)
(0 0 0)
(0 0 0)
(0 0 0)
(0 0 0)
(0 0 0)
(0 0 0)
(0 0 0)
(0 0 0)
(0 0 0)
(0 0 0)
(0 0 0)
(0 0 0)
(0 0 0)
(0 0 0)
(0 0 0)
(0 0 0)
(0 0 0)
(0 0 0)
(0 0 0)
(0 0 0)
(0 0 0)
(0 0 0)
(0 0 0)
(0 0 0)
(0 0 0)
(0 0 0)
(0 0 0)
(0 0 0)
(0 0 0)
(0 0 0)
(0 0 0)
(0 0 0)
(0 0 0)
(0 0 0)
(0 0 0)
(0 0 0)
(0 0 0)
(0 0 0)
(0 0 0)
(0 0 0)
(0 0 0)
(0 0 0)
(0 0 0)
(0 0 0)
(0 0 0)
(0 0 0)
(0 0 0)
(0 0 0)
(0 0 0)
(0 0 0)
(0 0 0)
(0 0 0)
(0 0 0)
(0 0 0)
(0 0 0)
(0 0 0)
(0 0 0)
(0 0 0)
(0 0 0)
(0 0 0)
(0 0 0)
(0 0 0)
(0 0 0)
(0 0 0)
(0 0 0)
(0 0 0)
(0 0 0)
(0 0 0)
(0 0 0)
(0 0 0)
(0 0 0)
(0 0 0)
(0 0 0)
(0 0 0)
(0 0 0)
(0 0 0)
(0 0 0)
(0 0 0)
(0 0 0)
(0 0 0)
(0 0 0)
(0 0 0)
(0 0 0)
(0 0 0)
(0 0 0)
(0 0 0)
(0 0 0)
(0 0 0)
(0 0 0)
(0 0 0)
(0 0 0)
(0 0 0)
(0 0 0)
(0 0 0)
(0 0 0)
(0 0 0)
(0 0 0)
(0 0 0)
(0 0 0)
(0 0 0)
(0 0 0)
(0 0 0)
(0 0 0)
(0 0 0)
(0 0 0)
(0 0 0)
(0 0 0)
(0 0 0)
(0 0 0)
(0 0 0)
(0 0 0)
(0 0 0)
(0 0 0)
(0 0 0)
(0 0 0)
(0 0 0)
(0 0 0)
(0 0 0)
(0 0 0)
(0 0 0)
(0 0 0)
(0 0 0)
(0 0 0)
(0 0 0)
(0 0 0)
(0 0 0)
(0 0 0)
(0 0 0)
(0 0 0)
(0 0 0)
(0 0 0)
(0 0 0)
(0 0 0)
(0 0 0)
(0 0 0)
(0 0 0)
(0 0 0)
(0 0 0)
(0 0 0)
(0 0 0)
(0 0 0)
(0 0 0)
(0 0 0)
(0 0 0)
(0 0 0)
(0 0 0)
(0 0 0)
(0 0 0)
(0 0 0)
(0 0 0)
(0 0 0)
(0 0 0)
(0 0 0)
(0 0 0)
(0 0 0)
(0 0 0)
(0 0 0)
(0 0 0)
(0 0 0)
(0 0 0)
(0 0 0)
(0 0 0)
(0 0 0)
(0 0 0)
(0 0 0)
(0 0 0)
(0 0 0)
(0 0 0)
(0 0 0)
(0 0 0)
(0 0 0)
(0 0 0)
(0 0 0)
(0 0 0)
(0 0 0)
(0 0 0)
(0 0 0)
(0 0 0)
(0 0 0)
(0 0 0)
(0 0 0)
(0 0 0)
(0 0 0)
(0 0 0)
(0 0 0)
(0 0 0)
(0 0 0)
(0 0 0)
(0 0 0)
(0 0 0)
(0 0 0)
(0 0 0)
(0 0 0)
(0 0 0)
(0 0 0)
(0 0 0)
(0 0 0)
(0 0 0)
(0 0 0)
(0 0 0)
(0 0 0)
(0 0 0)
(0 0 0)
(0 0 0)
(0 0 0)
(0 0 0)
(0 0 0)
(0 0 0)
(0 0 0)
(0 0 0)
(0 0 0)
(0 0 0)
(0 0 0)
(0 0 0)
(0 0 0)
(0 0 0)
(0 0 0)
(0 0 0)
(0 0 0)
(0 0 0)
(0 0 0)
(0 0 0)
(0 0 0)
(0 0 0)
(0 0 0)
(0 0 0)
(0 0 0)
(0 0 0)
(0 0 0)
(0 0 0)
(0 0 0)
(0 0 0)
(0 0 0)
(0 0 0)
(0 0 0)
(0 0 0)
(0 0 0)
(0 0 0)
(0 0 0)
(0 0 0)
(0 0 0)
(0 0 0)
(0 0 0)
(0 0 0)
(0 0 0)
(0 0 0)
(0 0 0)
(0 0 0)
(0 0 0)
(0 0 0)
(0 0 0)
(0 0 0)
(0 0 0)
(0 0 0)
(0 0 0)
(0 0 0)
(0 0 0)
(0 0 0)
(0 0 0)
(0 0 0)
(0 0 0)
(0 0 0)
(0 0 0)
(0 0 0)
(0 0 0)
(0 0 0)
(0 0 0)
(0 0 0)
(0 0 0)
(0 0 0)
(0 0 0)
(0 0 0)
(0 0 0)
(0 0 0)
(0 0 0)
(0 0 0)
(0 0 0)
(0 0 0)
(0 0 0)
(0 0 0)
(0 0 0)
(0 0 0)
(0 0 0)
(0 0 0)
(0 0 0)
(0 0 0)
(0 0 0)
(0 0 0)
(0 0 0)
(0 0 0)
(0 0 0)
(0 0 0)
(0 0 0)
(0 0 0)
(0 0 0)
(0 0 0)
(0 0 0)
(0 0 0)
(0 0 0)
(0 0 0)
(0 0 0)
(0 0 0)
(0 0 0)
(0 0 0)
(0 0 0)
(0 0 0)
(0 0 0)
(0 0 0)
(0 0 0)
(0 0 0)
(0 0 0)
(0 0 0)
(0 0 0)
(0 0 0)
(0 0 0)
(0 0 0)
(0 0 0)
(0 0 0)
(0 0 0)
(0 0 0)
(0 0 0)
(0 0 0)
(0 0 0)
(0 0 0)
(0 0 0)
(0 0 0)
(0 0 0)
(0 0 0)
(0 0 0)
(0 0 0)
(0 0 0)
(0 0 0)
(0 0 0)
(0 0 0)
(0 0 0)
(0 0 0)
(0 0 0)
(0 0 0)
(0 0 0)
(0 0 0)
(0 0 0)
(0 0 0)
(0 0 0)
(0 0 0)
(0 0 0)
(0 0 0)
(0 0 0)
(0 0 0)
(0 0 0)
(0 0 0)
(0 0 0)
(0 0 0)
(0 0 0)
(0 0 0)
(0 0 0)
(0 0 0)
(0 0 0)
(0 0 0)
(0 0 0)
(0 0 0)
(0 0 0)
(0 0 0)
(0 0 0)
(0 0 0)
(0 0 0)
(0 0 0)
(0 0 0)
(0 0 0)
(0 0 0)
(0 0 0)
(0 0 0)
(0 0 0)
(0 0 0)
(0 0 0)
(0 0 0)
(0 0 0)
(0 0 0)
(0 0 0)
(0 0 0)
(0 0 0)
(0 0 0)
(0 0 0)
(0 0 0)
(0 0 0)
(0 0 0)
(0 0 0)
(0 0 0)
(0 0 0)
(0 0 0)
(0 0 0)
(0 0 0)
(0 0 0)
(0 0 0)
(0 0 0)
(0 0 0)
(0 0 0)
(0 0 0)
(0 0 0)
(0 0 0)
(0 0 0)
(0 0 0)
(0 0 0)
(0 0 0)
(0 0 0)
(0 0 0)
(0 0 0)
(0 0 0)
(0 0 0)
(0 0 0)
(0 0 0)
(0 0 0)
(0 0 0)
(0 0 0)
(0 0 0)
(0 0 0)
(0 0 0)
(0 0 0)
(0 0 0)
(0 0 0)
(0 0 0)
(0 0 0)
(0 0 0)
(0 0 0)
(0 0 0)
(0 0 0)
(0 0 0)
(0 0 0)
(0 0 0)
(0 0 0)
(0 0 0)
(0 0 0)
(0 0 0)
(0 0 0)
(0 0 0)
(0 0 0)
(0 0 0)
(0 0 0)
(0 0 0)
(0 0 0)
(0 0 0)
(0 0 0)
(0 0 0)
(0 0 0)
(0 0 0)
(0 0 0)
(0 0 0)
(0 0 0)
(0 0 0)
(0 0 0)
(0 0 0)
(0 0 0)
(0 0 0)
(0 0 0)
(0 0 0)
(0 0 0)
(0 0 0)
(0 0 0)
(0 0 0)
(0 0 0)
(0 0 0)
(0 0 0)
(0 0 0)
(0 0 0)
(0 0 0)
(0 0 0)
(0 0 0)
(0 0 0)
(0 0 0)
(0 0 0)
(0 0 0)
(0 0 0)
(0 0 0)
(0 0 0)
(0 0 0)
(0 0 0)
(0 0 0)
(0 0 0)
(0 0 0)
(0 0 0)
(0 0 0)
(0 0 0)
(0 0 0)
(0 0 0)
(0 0 0)
(0 0 0)
(0 0 0)
(0 0 0)
(0 0 0)
(0 0 0)
(0 0 0)
(0 0 0)
(0 0 0)
(0 0 0)
(0 0 0)
(0 0 0)
(0 0 0)
(0 0 0)
(0 0 0)
(0 0 0)
(0 0 0)
(0 0 0)
(0 0 0)
(0 0 0)
(0 0 0)
(0 0 0)
(0 0 0)
(0 0 0)
(0 0 0)
(0 0 0)
(0 0 0)
(0 0 0)
(0 0 0)
(0 0 0)
(0 0 0)
(0 0 0)
(0 0 0)
(0 0 0)
(0 0 0)
(0 0 0)
(0 0 0)
(0 0 0)
(0 0 0)
(0 0 0)
(0 0 0)
(0 0 0)
(0 0 0)
(0 0 0)
(0 0 0)
(0 0 0)
(0 0 0)
(0 0 0)
(0 0 0)
(0 0 0)
(0 0 0)
(0 0 0)
(0 0 0)
(0 0 0)
(0 0 0)
(0 0 0)
(0 0 0)
(0 0 0)
(0 0 0)
(0 0 0)
(0 0 0)
(0 0 0)
(0 0 0)
(0 0 0)
(0 0 0)
(0 0 0)
(0 0 0)
(0 0 0)
(0 0 0)
(0 0 0)
(0 0 0)
(0 0 0)
(0 0 0)
(0 0 0)
(0 0 0)
(0 0 0)
(0 0 0)
(0 0 0)
(0 0 0)
(0 0 0)
(0 0 0)
(0 0 0)
(0 0 0)
(0 0 0)
(0 0 0)
(0 0 0)
(0 0 0)
(0 0 0)
(0 0 0)
(0 0 0)
(0 0 0)
(0 0 0)
(0 0 0)
(0 0 0)
(0 0 0)
(0 0 0)
(0 0 0)
(0 0 0)
(0 0 0)
(0 0 0)
(0 0 0)
(0 0 0)
(0 0 0)
(0 0 0)
(0 0 0)
(0 0 0)
(0 0 0)
(0 0 0)
(0 0 0)
(0 0 0)
(0 0 0)
(0 0 0)
(0 0 0)
(0 0 0)
(0 0 0)
(0 0 0)
(0 0 0)
(0 0 0)
(0 0 0)
(0 0 0)
(0 0 0)
(0 0 0)
(0 0 0)
(0 0 0)
(0 0 0)
(0 0 0)
(0 0 0)
(0 0 0)
(0 0 0)
(0 0 0)
(0 0 0)
(0 0 0)
(0 0 0)
(0 0 0)
(0 0 0)
(0 0 0)
(0 0 0)
(0 0 0)
(0 0 0)
(0 0 0)
(0 0 0)
(0 0 0)
(0 0 0)
(0 0 0)
(0 0 0)
(0 0 0)
(0 0 0)
(0 0 0)
(0 0 0)
(0 0 0)
(0 0 0)
(0 0 0)
(0 0 0)
(0 0 0)
(0 0 0)
(0 0 0)
(0 0 0)
(0 0 0)
(0 0 0)
(0 0 0)
(0 0 0)
(0 0 0)
(0 0 0)
(0 0 0)
(0 0 0)
(0 0 0)
(0 0 0)
(0 0 0)
(0 0 0)
(0 0 0)
(0 0 0)
(0 0 0)
(0 0 0)
(0 0 0)
(0 0 0)
(0 0 0)
(0 0 0)
(0 0 0)
(0 0 0)
(0 0 0)
(0 0 0)
(0 0 0)
(0 0 0)
(0 0 0)
(0 0 0)
(0 0 0)
(0 0 0)
(0 0 0)
(0 0 0)
(0 0 0)
(0 0 0)
(0 0 0)
(0 0 0)
(0 0 0)
(0 0 0)
(0 0 0)
(0 0 0)
(0 0 0)
(0 0 0)
(0 0 0)
(0 0 0)
(0 0 0)
(0 0 0)
(0 0 0)
(0 0 0)
(0 0 0)
(0 0 0)
(0 0 0)
(0 0 0)
(0 0 0)
(0 0 0)
(0 0 0)
(0 0 0)
(0 0 0)
(0 0 0)
(0 0 0)
(0 0 0)
(0 0 0)
(0 0 0)
(0 0 0)
(0 0 0)
(0 0 0)
(0 0 0)
(0 0 0)
(0 0 0)
(0 0 0)
(0 0 0)
(0 0 0)
(0 0 0)
(0 0 0)
(0 0 0)
(0 0 0)
(0 0 0)
(0 0 0)
(0 0 0)
(0 0 0)
(0 0 0)
(0 0 0)
(0 0 0)
(0 0 0)
(0 0 0)
(0 0 0)
(0 0 0)
(0 0 0)
(0 0 0)
(0 0 0)
(0 0 0)
(0 0 0)
(0 0 0)
(0 0 0)
(0 0 0)
(0 0 0)
(0 0 0)
(0 0 0)
(0 0 0)
(0 0 0)
(0 0 0)
(0 0 0)
(0 0 0)
(0 0 0)
(0 0 0)
(0 0 0)
(0 0 0)
(0 0 0)
(0 0 0)
(0 0 0)
(0 0 0)
(0 0 0)
(0 0 0)
(0 0 0)
(0 0 0)
(0 0 0)
(0 0 0)
(0 0 0)
(0 0 0)
(0 0 0)
(0 0 0)
(0 0 0)
(0 0 0)
(0 0 0)
(0 0 0)
(0 0 0)
(0 0 0)
(0 0 0)
(0 0 0)
(0 0 0)
(0 0 0)
(0 0 0)
(0 0 0)
(0 0 0)
(0 0 0)
(0 0 0)
(0 0 0)
(0 0 0)
(0 0 0)
(0 0 0)
(0 0 0)
(0 0 0)
(0 0 0)
(0 0 0)
(0 0 0)
(0 0 0)
(0 0 0)
(0 0 0)
(0 0 0)
(0 0 0)
(0 0 0)
(0 0 0)
(0 0 0)
(0 0 0)
(0 0 0)
(0 0 0)
(0 0 0)
(0 0 0)
(0 0 0)
(0 0 0)
(0 0 0)
(0 0 0)
(0 0 0)
(0 0 0)
(0 0 0)
(0 0 0)
(0 0 0)
(0 0 0)
(0 0 0)
(0 0 0)
(0 0 0)
(0 0 0)
(0 0 0)
(0 0 0)
(0 0 0)
(0 0 0)
(0 0 0)
(0 0 0)
(0 0 0)
(0 0 0)
(0 0 0)
(0 0 0)
(0 0 0)
(0 0 0)
(0 0 0)
(0 0 0)
(0 0 0)
(0 0 0)
(0 0 0)
(0 0 0)
(0 0 0)
(0 0 0)
(0 0 0)
(0 0 0)
(0 0 0)
(0 0 0)
(0 0 0)
(0 0 0)
(0 0 0)
(0 0 0)
(0 0 0)
(0 0 0)
(0 0 0)
(0 0 0)
(0 0 0)
(0 0 0)
(0 0 0)
(0 0 0)
(0 0 0)
(0 0 0)
(0 0 0)
(0 0 0)
(0 0 0)
(0 0 0)
(0 0 0)
(0 0 0)
(0 0 0)
(0 0 0)
(0 0 0)
(0 0 0)
(0 0 0)
(0 0 0)
(0 0 0)
(0 0 0)
(0 0 0)
(0 0 0)
(0 0 0)
(0 0 0)
(0 0 0)
(0 0 0)
(0 0 0)
(0 0 0)
(0 0 0)
(0 0 0)
(0 0 0)
(0 0 0)
(0 0 0)
(0 0 0)
(0 0 0)
(0 0 0)
(0 0 0)
(0 0 0)
(0 0 0)
(0 0 0)
(0 0 0)
(0 0 0)
(0 0 0)
(0 0 0)
(0 0 0)
(0 0 0)
(0 0 0)
(0 0 0)
(0 0 0)
(0 0 0)
(0 0 0)
(0 0 0)
(0 0 0)
(0 0 0)
(0 0 0)
(0 0 0)
(0 0 0)
(0 0 0)
(0 0 0)
(0 0 0)
(0 0 0)
(0 0 0)
(0 0 0)
(0 0 0)
(0 0 0)
(0 0 0)
(0 0 0)
(0 0 0)
(0 0 0)
(0 0 0)
(0 0 0)
(0 0 0)
(0 0 0)
(0 0 0)
(0 0 0)
(0 0 0)
(0 0 0)
(0 0 0)
(0 0 0)
(0 0 0)
(0 0 0)
(0 0 0)
(0 0 0)
(0 0 0)
(0 0 0)
(0 0 0)
(0 0 0)
(0 0 0)
(0 0 0)
(0 0 0)
(0 0 0)
(0 0 0)
(0 0 0)
(0 0 0)
(0 0 0)
(0 0 0)
(0 0 0)
(0 0 0)
(0 0 0)
(0 0 0)
(0 0 0)
(0 0 0)
(0 0 0)
(0 0 0)
(0 0 0)
(0 0 0)
(0 0 0)
(0 0 0)
(0 0 0)
(0 0 0)
(0 0 0)
(0 0 0)
(0 0 0)
(0 0 0)
(0 0 0)
(0 0 0)
(0 0 0)
(0 0 0)
(0 0 0)
(0 0 0)
(0 0 0)
(0 0 0)
(0 0 0)
(0 0 0)
(0 0 0)
(0 0 0)
(0 0 0)
(0 0 0)
(0 0 0)
(0 0 0)
(0 0 0)
(0 0 0)
(0 0 0)
(0 0 0)
(0 0 0)
(0 0 0)
(0 0 0)
(0 0 0)
(0 0 0)
(0 0 0)
(0 0 0)
(0 0 0)
(0 0 0)
(0 0 0)
(0 0 0)
(0 0 0)
(0 0 0)
(0 0 0)
(0 0 0)
(0 0 0)
(0 0 0)
(0 0 0)
(0 0 0)
(0 0 0)
(0 0 0)
(0 0 0)
(0 0 0)
(0 0 0)
(0 0 0)
(0 0 0)
(0 0 0)
(0 0 0)
(0 0 0)
(0 0 0)
(0 0 0)
(0 0 0)
(0 0 0)
(0 0 0)
(0 0 0)
(0 0 0)
(0 0 0)
(0 0 0)
(0 0 0)
(0 0 0)
(0 0 0)
(0 0 0)
(0 0 0)
(0 0 0)
(0 0 0)
(0 0 0)
(0 0 0)
(0 0 0)
(0 0 0)
(0 0 0)
(0 0 0)
(0 0 0)
(0 0 0)
(0 0 0)
(0 0 0)
(0 0 0)
(0 0 0)
(0 0 0)
(0 0 0)
(0 0 0)
(0 0 0)
(0 0 0)
(0 0 0)
(0 0 0)
(0 0 0)
(0 0 0)
(0 0 0)
(0 0 0)
(0 0 0)
(0 0 0)
(0 0 0)
(0 0 0)
(0 0 0)
(0 0 0)
(0 0 0)
(0 0 0)
(0 0 0)
(0 0 0)
(0 0 0)
(0 0 0)
(0 0 0)
(0 0 0)
(0 0 0)
(0 0 0)
(0 0 0)
(0 0 0)
(0 0 0)
(0 0 0)
(0 0 0)
(0 0 0)
(0 0 0)
(0 0 0)
(0 0 0)
(0 0 0)
(0 0 0)
(0 0 0)
(0 0 0)
(0 0 0)
(0 0 0)
(0 0 0)
(0 0 0)
(0 0 0)
(0 0 0)
(0 0 0)
(0 0 0)
(0 0 0)
(0 0 0)
(0 0 0)
(0 0 0)
(0 0 0)
(0 0 0)
(0 0 0)
(0 0 0)
(0 0 0)
(0 0 0)
(0 0 0)
(0 0 0)
(0 0 0)
(0 0 0)
(0 0 0)
(0 0 0)
(0 0 0)
(0 0 0)
(0 0 0)
(0 0 0)
(0 0 0)
(0 0 0)
(0 0 0)
(0 0 0)
(0 0 0)
(0 0 0)
(0 0 0)
(0 0 0)
(0 0 0)
(0 0 0)
(0 0 0)
(0 0 0)
(0 0 0)
(0 0 0)
(0 0 0)
(0 0 0)
(0 0 0)
(0 0 0)
(0 0 0)
(0 0 0)
(0 0 0)
(0 0 0)
(0 0 0)
(0 0 0)
(0 0 0)
(0 0 0)
(0 0 0)
(0 0 0)
(0 0 0)
(0 0 0)
(0 0 0)
(0 0 0)
(0 0 0)
(0 0 0)
(0 0 0)
(0 0 0)
(0 0 0)
(0 0 0)
(0 0 0)
(0 0 0)
(0 0 0)
(0 0 0)
(0 0 0)
(0 0 0)
(0 0 0)
(0 0 0)
(0 0 0)
(0 0 0)
(0 0 0)
(0 0 0)
(0 0 0)
(0 0 0)
(0 0 0)
(0 0 0)
(0 0 0)
(0 0 0)
(0 0 0)
(0 0 0)
(0 0 0)
(0 0 0)
(0 0 0)
(0 0 0)
(0 0 0)
(0 0 0)
(0 0 0)
(0 0 0)
(0 0 0)
(0 0 0)
(0 0 0)
(0 0 0)
(0 0 0)
(0 0 0)
(0 0 0)
(0 0 0)
(0 0 0)
(0 0 0)
(0 0 0)
(0 0 0)
(0 0 0)
(0 0 0)
(0 0 0)
(0 0 0)
(0 0 0)
(0 0 0)
(0 0 0)
(0 0 0)
(0 0 0)
(0 0 0)
(0 0 0)
(0 0 0)
(0 0 0)
(0 0 0)
(0 0 0)
(0 0 0)
(0 0 0)
(0 0 0)
(0 0 0)
(0 0 0)
(0 0 0)
(0 0 0)
(0 0 0)
(0 0 0)
(0 0 0)
(0 0 0)
(0 0 0)
(0 0 0)
(0 0 0)
(0 0 0)
(0 0 0)
(0 0 0)
(0 0 0)
(0 0 0)
(0 0 0)
(0 0 0)
(0 0 0)
(0 0 0)
(0 0 0)
(0 0 0)
(0 0 0)
(0 0 0)
(0 0 0)
(0 0 0)
(0 0 0)
(0 0 0)
(0 0 0)
(0 0 0)
(0 0 0)
(0 0 0)
(0 0 0)
(0 0 0)
(0 0 0)
(0 0 0)
(0 0 0)
(0 0 0)
(0 0 0)
(0 0 0)
(0 0 0)
(0 0 0)
(0 0 0)
(0 0 0)
(0 0 0)
(0 0 0)
(0 0 0)
(0 0 0)
(0 0 0)
(0 0 0)
(0 0 0)
(0 0 0)
(0 0 0)
(0 0 0)
(0 0 0)
(0 0 0)
(0 0 0)
(0 0 0)
(0 0 0)
(0 0 0)
(0 0 0)
(0 0 0)
(0 0 0)
(0 0 0)
(0 0 0)
(0 0 0)
(0 0 0)
(0 0 0)
(0 0 0)
(0 0 0)
(-0.000649363 -0.0023544 0.00197873)
(-0.0101109 -0.00177378 0.00629042)
(-0.00391962 -0.00544855 0.00422054)
(-0.0205123 -0.0120783 0.0069378)
(-0.01664 -0.00679605 0.00616828)
(-0.0440069 -0.0275041 0.0132865)
(-0.0622725 -0.0330324 0.0171846)
(-0.0645281 -0.0369595 0.00539269)
(0.00406414 -0.0140549 0.00549224)
(0.000209633 -0.00700647 0.00317772)
(-0.00175215 -0.00791196 0.00396473)
(-4.75805e-05 -0.0234714 0.00659456)
(-0.0403296 -0.0747913 0.0170438)
(-0.0188922 -0.0346703 0.0129798)
(-0.0710799 -0.088599 0.0299347)
(-0.0936638 -0.14627 0.0298238)
(-0.13564 -0.19273 0.0234288)
(-0.107978 -0.111928 0.0331447)
(-0.119046 -0.103813 0.0258413)
(-0.135548 -0.186476 0.0137423)
(-0.12553 -0.156344 0.0063091)
(-0.096597 -0.0853245 0.00928649)
(-0.0559072 -0.0613215 0.000704359)
(-0.107067 -0.138107 0.000215271)
(-0.0806907 -0.100813 -0.00452444)
(-0.045453 -0.0688815 -0.00680705)
(0.00155252 -0.0362903 0.00823959)
(-0.00370326 -0.0505152 0.0103647)
(-0.0279997 -0.0604706 0.0152271)
(-0.0519303 -0.08539 0.018683)
(-0.132948 -0.154336 0.0154657)
(-0.115678 -0.116107 0.0211305)
(-0.179726 -0.160506 0.00247728)
(-0.161861 -0.197482 0.0112553)
(-0.152605 -0.209164 0.00432042)
(-0.176389 -0.17319 -0.0164231)
(-0.157293 -0.181788 -0.0183665)
(-0.132726 -0.201599 -0.00636454)
(-0.109671 -0.187718 -0.00530542)
(-0.13367 -0.1778 -0.0162569)
(-0.103961 -0.160094 -0.0161079)
(-0.0864679 -0.170567 -0.00951426)
(-0.0641769 -0.137407 -0.0109152)
(-0.0733727 -0.137474 -0.010508)
(-0.0374978 -0.131356 -0.0107164)
(-0.0394883 -0.0853751 -0.00844875)
(-0.0235588 -0.0778635 -0.00865913)
(-0.00814627 -0.0427078 -0.0104502)
(-0.0130612 -0.0524001 0.0103973)
(-0.058681 -0.0840095 0.0216119)
(-0.0364896 -0.0752871 0.00454362)
(-0.11224 -0.105612 0.0122376)
(-0.155631 -0.136473 -0.0283433)
(-0.103683 -0.113284 -0.00744285)
(-0.169935 -0.132514 -0.0586143)
(-0.186095 -0.142511 -0.0504207)
(-0.15956 -0.132603 -0.0255774)
(-0.181035 -0.115092 -0.0385044)
(-0.155743 -0.102004 -0.0225344)
(-0.12588 -0.126431 -0.0186306)
(-0.0937283 -0.114687 -0.0190053)
(-0.110205 -0.0910045 -0.0136835)
(-0.0885418 -0.0736391 -0.0137342)
(-0.0557792 -0.103915 -0.00458138)
(-0.0242711 -0.0941567 -0.014595)
(-0.0547433 -0.0676687 -0.00621116)
(-0.0286925 -0.0501785 -0.00935711)
(-0.0172253 -0.0543592 -0.0112289)
(-0.0103212 -0.0291342 -0.0137344)
(-0.0125546 -0.0291029 -0.00833446)
(-0.0257572 -0.0399556 -0.00686108)
(-0.0695423 -0.0790597 -0.00170605)
(-0.141059 -0.127323 -0.0287127)
(-0.0315726 -0.0331698 -0.00287722)
(-0.0834109 -0.0822574 -0.00224096)
(-0.170139 -0.0969613 -0.0240613)
(-0.150041 -0.072863 -0.0175981)
(-0.134522 -0.0703159 -0.00821336)
(-0.134241 -0.0411135 -0.0115719)
(-0.111395 -0.0514685 -0.0150543)
(-0.0774728 -0.0350684 -0.0129072)
(-0.0949476 -0.0317332 -0.0133749)
(-0.0554296 -0.0222007 -0.00845201)
(-0.043121 -0.033397 -0.0114764)
(-0.0144334 -0.0183354 -0.00854911)
(-0.0231095 -0.0156166 -0.00882222)
(-0.00811654 -0.00726135 -0.00477023)
(-0.00569722 -0.0127315 -0.00581197)
(-0.0509228 -0.04059 -0.00478273)
(-0.0842425 -0.0389874 -0.00344015)
(-0.0827016 -0.0251906 -0.00929959)
(-0.0437825 -0.00988768 -0.0146756)
(-0.0617296 -0.0142177 -0.0109177)
(-0.0306845 -0.0111351 -0.00886718)
(-0.0325534 -0.00981166 -0.0127932)
(-0.0111341 -0.00467338 -0.00627409)
(-0.0147297 0.0148133 -0.0474814)
(-0.023321 0.0201317 0.103893)
(-0.0143828 -0.0158256 0.0211457)
(-2.61782e-15 1.20264e-15 -5.93436e-15)
(-0.0596698 0.0265551 -0.0318261)
(0 0 0)
(-0.0487642 -0.0523505 0.11518)
(-0.0865835 -0.137402 0.0646738)
(-0.187731 -0.144134 -0.00127594)
(-0.192255 -0.127439 0.00989832)
(-0.105984 -0.027036 0.0327289)
(-0.124218 -0.116657 0.0184885)
(-0.162607 -0.10551 0.0163778)
(-0.160756 -0.104327 0.00845334)
(-0.134538 -0.0860922 0.0249482)
(-0.00538198 0.00516214 0.0358522)
(-0.0147086 0.017035 0.063054)
(-0.0237756 -0.0085443 -0.0106345)
(-0.0151749 -0.00980285 0.0540512)
(-0.0290881 -0.0952859 0.0481067)
(-0.0361275 0.0346333 0.108839)
(-0.065194 0.00309613 0.138748)
(-0.0370788 0.0235228 0.110617)
(-0.0526388 -0.0108489 0.135845)
(-0.136388 -0.142408 -0.00693634)
(-0.16298 -0.258612 0.00716458)
(-0.112053 -0.182288 -0.00469197)
(-0.163199 -0.153624 0.0398486)
(-0.117818 -0.128358 0.0263742)
(-0.152626 -0.209504 0.0463407)
(-0.0991443 -0.178138 0.0401442)
(-0.0752319 -0.153851 -0.0112987)
(-0.0662097 -0.13366 0.0318527)
(-0.0170428 0.00362002 0.0789363)
(-0.0280842 -0.0959784 0.0939468)
(-0.0694652 -0.0440422 0.0919251)
(-0.0138216 0.00372916 0.101732)
(-0.00547603 -0.0299526 0.162771)
(-0.0314852 -0.0236559 0.156823)
(0.0121292 -0.130204 -0.0266321)
(0.00588151 -0.108048 -0.0197719)
(-0.0315498 -0.135534 0.0358715)
(-0.00285656 -0.108243 0.0198526)
(-0.00596604 -0.0791392 0.0225193)
(-0.102009 -0.11703 0.0883364)
(-0.0756342 -0.105051 0.052067)
(-0.0217833 -0.0623719 0.128975)
(-0.0815066 -0.0707472 0.152068)
(-0.0823886 -0.0856005 0.113986)
(0.0126389 -0.0890942 -0.040218)
(0.00223695 -0.0547325 -0.0308813)
(0.0181591 -0.0771275 0.00376878)
(0.0127401 -0.0654821 0.00410315)
(0.00135597 -0.0455279 -0.0106113)
(-0.0578006 -0.0843007 0.0276915)
(-0.0672231 -0.0866855 0.0798407)
(-0.233596 -0.13658 0.0167202)
(-0.107882 -0.094771 0.0180523)
(-0.179441 -0.112977 0.00837669)
(-0.150391 -0.117608 0.105471)
(-0.248644 -0.141881 0.0933071)
(-0.121279 -0.105827 0.0699262)
(-0.198178 -0.117418 0.0536502)
(0.00635453 -0.0267227 -0.0492625)
(-0.0318815 0.00109976 -0.0571104)
(-0.00941953 -0.00570853 -0.0695009)
(-0.0418279 -0.0284843 -0.034867)
(0.000737862 -0.0240181 -0.0390728)
(-0.0322342 -0.000684491 -0.0433342)
(-0.00864986 -0.00113557 -0.0489782)
(0.0116161 -0.0278507 -0.0409344)
(-0.164037 -0.0823189 -0.0096505)
(-0.172699 -0.0879519 0.0271334)
(-0.163705 -0.0111231 -0.0401683)
(-0.138284 -0.0133832 -0.0548427)
(-0.18505 -0.0606349 0.0171938)
(-0.157169 -0.0227257 -0.0150438)
(-0.123965 -0.0106693 -0.0245377)
(-0.065952 0.00590876 -0.0551746)
(-0.11076 0.00133199 -0.0525992)
(-0.107289 -0.00240539 -0.0297093)
(-0.0625577 0.00689382 -0.0367628)
(-0.0936383 0.00425358 -0.0316468)
(-0.0341758 0.0114892 -0.0549684)
(-0.0555378 0.0518627 0.243621)
(-0.140545 0.0968785 0.318144)
(-0.0473117 -0.0672737 0.182168)
(-0.0790686 -0.0417095 0.248165)
(-0.0751173 -0.0885331 0.184408)
(-0.0220026 -0.00830301 0.354029)
(-0.147156 -0.000704606 0.447476)
(-0.0594199 -0.0446489 0.337684)
(-0.0506273 -0.0516308 0.115754)
(-0.110671 -0.0674862 0.0784914)
(-0.0100585 -0.00832105 0.284625)
(-0.011604 -0.0193171 0.226205)
(-0.0746333 -0.0534375 0.155594)
(-0.111871 -0.0667651 0.0507421)
(-0.0941056 -0.0647804 0.0904521)
(-0.0237945 0.026967 0.0948835)
(-0.017316 0.0225929 0.0523207)
(-0.119842 0.0724886 0.261369)
(-0.066891 0.053611 0.156312)
(-0.104311 0.0520228 0.208184)
(-0.108657 0.0820881 0.221192)
(-0.160423 0.115158 0.308733)
(-0.0854781 0.0696592 0.195252)
(-0.135993 0.0775299 0.260177)
(-0.112797 -0.108817 0.0576228)
(-0.158678 -0.166033 0.0937514)
(-0.112449 -0.14752 0.0821401)
(-0.12995 -0.1185 0.090236)
(-0.110215 -0.111392 0.0625047)
(-0.159192 -0.157672 0.0969435)
(-0.121728 -0.148477 0.0659855)
(-0.0685418 -0.115587 0.0775336)
(-0.0661027 -0.115694 0.0570802)
(-0.00540087 -0.0139877 0.153072)
(0.00723347 -0.0787044 0.200267)
(-0.00423411 -0.0833266 0.21353)
(0.0436751 -0.0454194 0.132441)
(0.00542119 -0.132079 0.21445)
(-0.00930489 -0.152412 0.251198)
(-0.0327516 -0.101921 0.0618464)
(-0.0143679 -0.0744985 0.0675514)
(-0.041268 -0.117631 0.0613325)
(-0.0351352 -0.100567 0.0408101)
(-0.0134169 -0.0731236 0.0628411)
(-0.0591311 -0.0988992 0.218618)
(-0.0737249 -0.0911454 0.185739)
(-0.0134783 -0.121091 0.201359)
(-0.0583681 -0.131484 0.260436)
(-0.0704494 -0.106654 0.231323)
(0.00833092 -0.0648333 0.0466837)
(-0.0118145 -0.049164 0.0188746)
(-0.00124479 -0.0743978 0.010986)
(0.00884899 -0.0580153 0.0328636)
(0.00271931 -0.0477795 -0.00740794)
(-0.0648066 -0.088779 0.141067)
(-0.0614731 -0.091953 0.190555)
(-0.234526 -0.140089 0.160785)
(-0.112341 -0.10223 0.131773)
(-0.186243 -0.122038 0.114972)
(-0.123679 -0.108132 0.233938)
(-0.209191 -0.138354 0.209842)
(-0.10093 -0.0970445 0.171642)
(-0.169506 -0.114722 0.146283)
(0.00262024 -0.0416623 -0.0281975)
(-0.037467 -0.0146029 -0.0498191)
(0.000284732 -0.0111711 -0.0409232)
(-0.0444127 -0.062545 -0.0703027)
(-0.00254111 -0.0367427 -0.0590047)
(-0.0216957 -0.0265189 -0.0939091)
(0.00228725 -0.0129355 -0.0618307)
(0.0106882 -0.024918 -0.0314976)
(-0.164022 -0.0929877 0.0727873)
(-0.143167 -0.080358 0.0801824)
(-0.160826 -0.0567957 -0.0186726)
(-0.115756 -0.0131443 -0.0278298)
(-0.168699 -0.0696165 0.0118226)
(-0.15761 -0.0489566 -0.0648664)
(-0.117688 -0.0146435 -0.0602373)
(-0.053928 -0.0114948 -0.0482199)
(-0.0836577 0.00137295 -0.0505124)
(-0.100472 -0.0180205 -0.105349)
(-0.0509664 -0.00821157 -0.0947565)
(-0.0822019 0.00258945 -0.0807516)
(-0.018375 -0.00250715 -0.0802555)
(-0.196828 0.0915433 0.408015)
(-0.189871 0.0778807 0.479866)
(0.0100113 0.0041404 0.514219)
(-0.211535 0.0758574 0.544467)
(-0.0588904 0.026649 0.491308)
(0.0276147 0.0143329 0.500473)
(-0.122282 0.0685386 0.505406)
(-0.0349081 0.0481029 0.473424)
(0.00291669 0.000934986 0.313267)
(-0.02916 -0.039732 0.232687)
(0.0193166 0.0122954 0.387702)
(-0.000179966 0.0053 0.35067)
(0.0029026 -0.0204698 0.277203)
(-0.0646433 -0.0676509 0.159393)
(0.00178213 -0.0268051 0.233201)
(0.0766148 -0.0950972 -0.499872)
(0.0785523 -0.103785 -0.506386)
(-0.170099 0.112134 0.354304)
(-0.0696685 0.0429997 0.048669)
(-0.152602 0.0931034 0.302171)
(1.13642e-14 -1.36785e-14 -5.50364e-14)
(-0.163549 0.108649 0.436986)
(0 0 0)
(0 0 0)
(-0.108249 -0.114129 0.0666986)
(-0.139976 -0.138567 0.0906672)
(-0.118081 -0.128518 0.0376311)
(-0.111125 -0.147802 0.12407)
(-0.101376 -0.131305 0.0260071)
(-0.129634 -0.141258 0.0734892)
(-0.112638 -0.127995 0.01057)
(-0.0732094 -0.116088 0.0247264)
(-0.0656351 -0.10492 -0.0073774)
(0.0900364 -0.0592756 -0.460705)
(-0.0400112 -0.157577 0.237246)
(-0.0573534 -0.1945 0.269327)
(0 0 0)
(-0.0709229 -0.167439 0.278312)
(-0.0799287 -0.200678 0.28056)
(-0.0691143 -0.107697 -0.00290962)
(-0.0195281 -0.0701626 0.0315647)
(-0.0609428 -0.109408 -0.02882)
(-0.0618047 -0.10101 -0.055031)
(-0.0197772 -0.0748599 -0.0296994)