/*--------------------------------*- C++ -*----------------------------------*\
| =========                 |                                                 |
| \\      /  F ield         | OpenFOAM: The Open Source CFD Toolbox           |
|  \\    /   O peration     | Version:  5.x                                   |
|   \\  /    A nd           | Web:      www.OpenFOAM.org                      |
|    \\/     M anipulation  |                                                 |
\*---------------------------------------------------------------------------*/
FoamFile
{
    version     2.0;
    format      ascii;
    class       volScalarField;
    location    "0.55";
    object      voidfraction;
}
// * * * * * * * * * * * * * * * * * * * * * * * * * * * * * * * * * * * * * //

dimensions      [0 0 0 0 0 0 0];

internalField   nonuniform List<scalar> 
10571
(
0.467416
0.447833
0.466496
0.768957
0.544846
0.467385
0.877418
0.818525
0.834338
0.522298
0.441061
0.739798
0.930274
0.885566
0.789692
0.551455
0.473656
0.935503
0.879429
0.501669
0.409878
0.47944
0.524572
0.437512
0.418784
0.406841
0.482376
0.787323
0.671435
0.456202
0.959732
0.940902
0.990461
0.976616
0.419651
0.591409
0.980749
0.98192
0.872719
0.988275
0.435752
0.905607
0.990561
0.904056
0.928019
0.53086
0.936778
0.991712
0.412516
0.425517
0.417465
0.444223
0.497985
0.436435
0.844139
0.948108
0.995403
0.996542
0.44751
0.495037
0.88369
0.989565
0.841184
0.991439
0.416214
0.737816
0.993499
0.941037
0.925007
0.435835
0.977451
0.998264
0.635297
0.585603
0.599561
0.712488
0.749075
0.604503
0.985813
0.98842
0.996311
0.997284
0.486558
0.653547
0.990875
0.997922
0.855124
0.996582
0.433003
0.937386
0.996742
0.974918
0.930083
0.684622
0.998583
0.99797
0.997911
0.99804
0.996124
0.997972
0.99419
0.995105
0.99686
0.995471
0.998641
0.997688
0.945903
0.998412
0.998662
0.998954
0.855286
0.998121
0.993357
0.995728
0.9974
0.987865
0.956184
0.998064
0.997947
0.995795
0.996262
0.997424
0.999021
0.997054
0.994684
0.999324
0.997921
0.997509
0.99665
0.997169
0.740507
0.997801
0.999019
0.997839
0.998444
0.882266
0.996673
0.5476
0.990317
0.997616
0.999108
0.994929
0.915038
0.994386
1
0.99972
1
0.998376
1
0.996783
0.998344
0.998479
0.997885
0.999025
0.995827
0.997645
0.999284
1
0.999357
0.994918
0.998072
0.893411
0.974813
0.999788
0.994556
0.996604
0.998573
0.994932
0.939936
1
0.996631
0.999456
0.998042
0.993954
0.998376
0.999966
0.999628
0.995794
0.999459
0.998184
0.999413
0.994517
0.995197
0.99917
0.996811
0.996008
0.997567
0.998513
0.931475
0.967329
1
0.988361
0.997936
0.999022
0.996979
0.950676
1
0.993069
1
1
0.996812
0.99944
0.997435
0.997054
0.992073
0.998445
0.998093
0.999
0.995083
0.99533
1
1
0.998816
0.998731
0.999098
0.956719
0.914793
1
0.99194
0.998434
0.999198
1
0.970817
0.999109
0.999124
0.99797
0.996812
0.996752
0.996964
0.997056
0.99723
0.997973
0.998793
0.997994
0.993131
0.998206
1
1
0.998505
0.998863
0.969025
0.750084
0.988392
0.997933
0.999278
0.999227
0.979419
0.990436
0.999124
1
1
0.999944
0.996088
0.997059
0.992338
1
0.998464
0.997895
0.993875
0.996808
0.996811
0.997396
0.998802
0.999181
0.984561
0.817065
0.994527
0.997539
0.999053
1
0.994559
0.99667
1
1
1
0.996752
0.999022
0.998817
0.9915
1
0.999122
0.997877
0.991046
0.997715
0.993732
0.998073
0.997883
0.999419
0.994178
0.887444
0.997835
0.998485
1
1
1
0.995586
0.99997
1
0.997251
0.9986
0.996763
0.993581
0.989486
0.999021
0.997012
0.998634
0.98405
0.983566
1
0.995436
0.99708
0.998792
0.997941
0.954625
0.999308
0.999386
0.999418
1
0.9993
0.99667
1
1
0.990984
1
0.996089
0.986149
0.989876
0.998379
0.99889
0.999313
0.990033
0.915412
0.997801
1
0.999181
0.999264
0.998225
0.992109
0.999098
0.999338
0.999838
1
1
1
0.998249
1
0.997801
1
0.997202
0.991149
0.997687
1
0.998936
0.999547
0.988753
0.86273
0.997031
0.993713
1
0.999183
0.99942
0.997612
0.997595
0.999766
0.999495
0.999366
1
0.998142
1
1
0.997911
1
0.993055
0.995101
0.997206
0.999054
0.999229
0.999463
0.989104
0.906147
1
0.99689
0.999777
0.99902
0.999299
1
0.998256
0.999515
0.999147
0.999065
0.9993
0.998877
1
1
0.995711
1
0.995584
0.997703
0.996635
1
1
0.998354
0.99435
0.962856
1
0.99902
0.999888
0.99832
0.998622
0.999093
1
0.99937
0.998868
0.998064
0.998039
0.998142
1
1
0.995933
0.996752
0.99636
0.994663
0.990116
0.998075
0.99934
0.999144
0.994677
0.993098
1
0.994897
0.999504
0.997584
0.998379
0.999123
0.998828
0.999552
0.999632
0.999933
0.99797
1
1
1
0.996812
1
0.996326
1
0.975279
0.998042
0.999664
0.999064
0.997831
0.999457
1
0.99902
0.999619
0.996813
0.999011
0.999637
0.994829
0.999774
0.998621
0.999032
1
1
1
0.99797
0.993844
1
0.996326
0.999797
0.956416
0.999629
0.999557
0.99909
0.997589
0.999612
0.993624
0.99902
0.999996
0.997712
0.999052
1
1
0.999806
0.999571
0.998598
0.99664
0.999845
1
1
1
0.995409
0.994438
1
0.952297
0.998042
0.999702
0.998024
0.992157
0.995852
1
0.99902
0.999892
0.998083
0.997264
0.999123
1
0.999883
0.99941
0.999032
0.99993
0.998877
1
1
1
0.999328
0.998382
0.998244
0.964042
1
0.999889
0.997363
0.994237
0.994224
1
0.99831
0.999888
0.998021
0.999096
0.998005
0.999429
0.999532
0.999766
0.999366
0.99797
0.998877
1
1
1
1
0.998045
0.998379
0.9772
0.997907
0.999779
0.99333
0.997843
0.997015
1
0.99902
0.999777
0.999024
0.998983
1
0.998948
0.999838
0.999648
1
1
0.99911
0.999306
1
0.99934
0.995352
0.995078
0.998683
0.994052
0.996725
1
0.999067
0.999229
0.992092
0.994283
0.997094
0.999712
0.999888
0.999724
0.999123
0.999008
0.9996
0.999648
1
1
1
1
0.99797
0.972068
0.993841
0.998416
0.993549
0.994653
0.993787
0.999813
0.999666
0.999338
0.993604
0.996812
0.998614
0.999704
0.999888
0.99957
0.998519
0.99982
0.99977
0.999571
1
1
1
0.99997
1
0.971738
0.998376
0.998382
0.996116
0.993601
0.995678
0.998936
0.999889
0.998982
0.988835
0.995051
0.994762
0.999627
0.999671
0.998217
0.998126
0.998707
0.999766
0.999491
0.999967
0.99916
1
0.999124
0.99664
0.959202
0.995129
0.997
0.998311
0.994984
0.998312
0.998997
0.999555
0.998171
0.995232
0.998901
0.998141
0.999519
0.999663
0.998415
0.984765
0.999699
1
0.999766
1
1
1
1
1
0.960741
0.994905
0.997067
0.994258
0.990929
0.997602
0.998745
0.999559
0.996418
0.988565
0.993624
0.996756
0.999888
0.999361
0.997803
0.974609
0.999308
0.999883
0.999766
0.999666
0.99111
1
0.999879
1
0.991424
0.995072
1
0.99696
0.993151
0.997029
0.999474
0.998995
0.994932
0.983526
0.993623
1
0.999562
0.999648
0.994719
0.97479
1
0.999883
0.999766
0.998164
0.99468
1
0.999094
1
0.966691
0.998376
0.998685
0.994427
0.994053
0.997029
0.999336
0.998856
0.988842
0.925169
0.996812
0.998107
0.999769
0.999512
0.994301
0.969077
1
0.999843
0.999337
1
0.95947
1
1
0.9993
0.980538
0.99944
0.998079
0.997196
0.992188
0.999021
0.9991
0.997962
0.986039
0.872012
0.994613
1
0.999762
0.999446
0.99403
0.959158
1
0.999693
0.999491
0.998965
0.946379
1
0.999124
1
0.996701
1
0.996258
0.996047
0.989994
0.999021
0.99517
0.997935
0.990954
0.908807
0.996811
0.998006
0.999665
0.999005
0.993924
0.948733
1
0.999762
0.998593
0.996328
0.805817
0.998877
0.998279
0.99797
0.993622
0.99832
0.99936
0.99902
0.9939
0.999932
0.998558
0.99741
0.991975
0.955256
0.996812
0.998074
0.999865
0.999272
0.994338
0.948915
1
0.999923
0.99844
0.993457
0.764516
1
0.996829
0.97942
0.993622
0.998376
0.996494
0.998378
0.994802
1
0.998302
0.998565
0.980752
0.944478
1
1
0.999615
0.998397
0.995051
0.9708
1
0.999491
0.978424
0.987015
0.912919
0.998877
0.998218
0.663719
0.993513
0.999384
0.99673
0.998987
0.997957
1
0.996894
0.997237
0.974832
0.917569
0.997471
1
0.999292
0.998211
0.996774
0.988453
0.999128
0.999608
0.975174
0.985779
0.99048
1
0.885315
0.904719
0.996372
0.998376
0.993494
0.993143
0.994652
0.999966
0.995048
0.99731
0.974884
0.949557
0.997911
0.998006
0.9959
0.99842
0.993373
0.979232
0.999128
0.99658
0.988397
0.984978
0.98544
1
0.816347
0.99174
0.994722
0.995239
0.986954
0.995879
0.991948
0.999966
0.998237
0.996546
0.980712
0.853439
1
1
0.998481
0.998238
0.978105
0.937261
1
0.995732
0.995533
0.994792
0.99713
0.99578
0.941118
0.99636
0.962941
0.996752
0.977345
0.971926
0.997356
1
0.99863
0.997102
0.992828
0.982397
1
1
0.996858
0.997975
0.982077
0.919543
0.99997
0.962223
0.994668
0.998698
0.984598
0.914949
0.992934
0.99692
0.939627
0.99776
0.993257
0.967605
0.99228
1
0.998451
0.997586
0.996293
0.987515
0.997911
0.99902
0.998261
0.99705
0.987735
0.970253
0.998797
0.983252
0.980963
0.996161
0.97466
0.991946
0.994142
0.99181
0.977017
0.996752
0.99019
0.981389
0.978914
1
0.998119
0.996838
0.995586
0.993294
1
1
0.997327
0.998134
0.990341
0.989571
1
0.967056
0.985984
0.98835
0.946799
0.996555
0.993387
0.991669
0.996262
0.980457
0.981932
0.990475
0.940046
1
0.998314
0.993625
0.990667
0.977246
1
1
0.997423
0.996782
0.993474
0.985672
0.983734
0.996911
0.992331
0.989385
0.96108
1
0.989856
0.99153
0.975815
0.986337
0.982402
0.968216
0.995675
0.999021
0.998524
0.991657
0.986806
0.990115
1
0.982122
0.98628
0.998018
0.994686
0.992655
0.991883
0.998082
0.993617
0.991354
0.97067
1
0.995803
0.98789
1
0.993728
0.995955
0.997061
0.999309
0.995914
0.998596
0.996795
0.989484
0.98845
0.975806
0.991246
0.991892
0.997487
0.99557
0.992141
0.988366
0.998938
0.994906
0.995493
0.98236
1
0.991153
0.99594
1
0.990537
0.997607
0.996555
1
0.991727
0.992976
0.998331
0.996644
0.996705
0.996702
0.993004
0.993361
0.996407
0.99463
0.993471
1
0.998849
0.99582
0.990453
0.97389
1
0.997373
0.983968
1
0.989976
0.998045
1
0.999129
0.992402
0.993266
0.997647
0.998167
0.997752
1
1
0.996358
0.99703
0.99433
0.995344
0.999128
0.999096
0.997146
0.993791
0.925091
0.999961
1
0.994539
1
0.988018
0.998685
0.99902
0.998528
0.980754
0.994567
0.996934
0.99891
1
1
0.998006
0.996958
0.996345
0.996498
0.993348
0.99997
0.999184
0.998165
0.999065
0.951064
1
1
0.99797
1
0.988686
1
1
1
0.997974
0.991149
0.988502
0.996567
0.997751
1
0.99804
0.996488
0.994146
0.996048
0.992532
1
0.999491
0.997534
0.996996
0.978087
1
1
0.99797
1
0.996752
1
0.998176
1
0.999223
0.996086
0.986702
0.980284
0.977783
0.993623
0.999155
0.996296
0.979688
0.989251
0.995313
1
0.999766
0.998068
0.994492
0.990688
1
0.999305
0.99797
1
1
1
1
1
1
0.999554
0.998434
0.990623
0.967082
1
1
0.999308
0.997104
0.981927
0.988873
1
0.999883
0.999179
0.996228
0.99664
1
0.999124
1
1
1
1
0.998041
1
0.999021
1
0.999601
0.998437
0.993564
1
1
0.999912
0.999125
0.994857
0.965056
1
0.999883
0.999531
0.998898
0.98845
1
0.999124
0.99986
1
1
1
1
1
1
1
0.999889
0.998482
0.998488
1
1
1
0.999752
0.998241
0.986065
1
1
0.999685
1
0.99797
1
1
0.99664
1
1
1
1
1
1
1
0.999444
0.998845
0.998216
1
1
1
1
0.997382
0.994257
1
1
0.999854
1
0.99797
1
1
0.99839
1
1
1
1
1
1
1
0.999332
0.998756
0.999612
1
1
0.999888
0.999551
0.998472
0.998247
1
1
1
1
0.99867
1
1
1
1
1
1
1
1
1
1
1
0.999176
1
1
1
1
0.999663
1
0.999698
1
1
0.999766
1
1
1
1
1
1
1
1
1
1
1
1
0.99982
0.999879
1
1
1
1
1
0.999412
0.998821
1
1
1
1
0.99797
1
1
1
1
1
1
1
1
1
1
0.99985
1
1
1
1
1
0.999888
1
1
1
1
1
1
1
1
0.999124
0.99797
1
1
1
1
1
1
1
1
0.999883
1
1
1
1
1
0.999882
1
1
1
0.999923
1
1
1
0.999698
1
1
1
1
1
1
1
1
1
1
1
1
1
1
1
1
0.999728
1
1
1
1
1
1
1
1
1
1
1
1
1
1
1
1
1
1
1
1
1
0.999888
1
1
1
1
1
1
1
1
1
1
1
1
1
1
1
1
1
0.999889
1
1
1
1
1
1
1
0.999004
1
1
1
1
1
1
1
1
1
1
1
1
1
1
1
0.999889
1
1
1
1
1
1
1
1
1
1
1
1
0.997975
1
1
1
1
1
1
1
1
1
1
1
1
1
1
1
1
1
1
1
1
1
1
1
1
1
1
1
1
1
1
1
1
1
1
1
0.999877
1
1
1
1
1
1
1
0.994487
1
1
1
1
1
1
1
1
1
1
1
1
1
1
1
1
1
1
1
1
1
1
1
1
1
1
1
1
1
1
1
1
1
1
1
1
1
1
1
1
1
1
1
1
1
1
1
1
1
1
1
1
1
1
1
1
1
1
1
1
1
1
1
1
1
1
1
1
1
1
1
1
1
1
1
1
1
1
1
1
1
1
1
1
1
1
1
1
1
1
1
1
1
1
1
1
1
1
1
1
1
1
1
1
1
1
1
1
1
1
1
1
1
1
1
1
1
1
1
1
1
1
1
1
1
1
1
1
1
1
1
1
1
1
1
1
1
1
1
1
1
1
1
1
1
1
1
1
1
1
1
1
1
1
1
1
1
1
1
1
1
1
1
1
1
1
1
1
1
1
1
1
1
1
1
1
1
1
1
1
1
1
1
1
1
1
1
1
1
1
1
1
1
1
1
1
1
1
1
1
1
1
1
1
1
1
1
1
1
1
1
1
1
1
1
1
1
1
1
1
1
1
1
1
1
1
1
1
1
1
1
1
1
1
1
1
1
1
1
1
1
1
1
1
1
1
1
1
1
1
1
1
1
1
1
1
1
1
1
1
1
1
1
1
1
1
1
1
1
1
1
1
1
1
1
1
1
1
1
1
1
1
1
1
1
1
1
1
1
1
1
1
1
1
1
1
1
1
1
1
1
1
1
1
0.490826
0.456928
0.488178
0.508313
0.482516
0.544889
0.5084
0.500743
0.474903
0.470507
0.494564
0.484258
0.66607
0.640722
0.74779
0.788343
0.747
0.727654
0.636753
0.709665
0.677607
0.541529
0.505024
0.62044
0.528028
0.516199
0.485855
0.483491
0.480292
0.515993
0.735844
0.57238
0.770343
0.70282
0.698993
0.668795
0.639643
0.642557
0.618122
0.594895
0.582254
0.596234
0.574993
0.545734
0.540113
0.512291
0.485992
0.492182
0.459294
0.476312
0.480933
0.5922
0.699407
0.559107
0.735027
0.690017
0.637564
0.680323
0.613718
0.604279
0.555917
0.589703
0.543789
0.510587
0.489835
0.488164
0.460428
0.47322
0.469532
0.450696
0.468788
0.505397
0.712939
0.50144
0.550165
0.655535
0.599053
0.646431
0.590322
0.573193
0.520426
0.559006
0.507131
0.473579
0.437224
0.473385
0.429734
0.426822
0.496018
0.525581
0.538823
0.539319
0.530531
0.495303
0.515783
0.473508
0.462348
0.418897
0.470025
0.45198
0.445276
0.42904
0.437121
0.430818
0.457319
0.463348
0.421623
0.442017
0.441766
0.450754
0.41502
0.490324
0.408954
0.443155
0.448245
0.496091
0.415141
0.441163
0.442388
0.612176
0.454795
0.865322
0.606234
0.61457
0.458159
0.960819
0.784324
0.486881
0.584385
0.462796
0.447927
0.442851
0.442996
0.423949
0.438483
0.584789
0.532665
0.768356
0.914464
0.79149
0.448309
0.455985
0.423209
0.436282
0.437924
0.522791
0.450123
0.955323
0.887659
0.713145
0.445061
0.415382
0.874587
0.446413
0.512911
0.454582
0.88743
0.429619
0.51635
0.433324
0.477658
0.426568
0.789095
0.476257
0.929096
0.683791
0.571443
0.45456
0.430708
0.511656
0.49027
0.485223
0.663338
0.48742
0.494207
0.469989
0.753288
0.813264
0.480957
0.873321
0.412308
0.418519
0.41225
0.429989
0.417375
0.422309
0.431457
0.41748
0.426935
0.444785
0.408298
0.419157
0.437027
0.413581
0.432936
0.406392
0.419491
0.428948
0.428335
0.554955
0.424752
0.419312
0.419159
0.459997
0.61891
0.981408
0.942992
0.636455
0.65269
0.972574
0.930794
0.883365
0.904562
0.436797
0.431532
0.420015
0.432669
0.423829
0.42056
0.991828
0.993028
0.991579
0.996056
0.999891
0.420935
0.433624
0.438393
0.417243
0.427866
0.996891
0.907657
0.990841
1
0.927576
0.406807
0.414168
0.75049
0.413916
0.471563
0.428924
0.543128
0.415035
0.438926
0.654214
0.986874
0.977399
0.920313
0.666267
0.994123
0.966412
0.92773
0.41538
0.418922
0.783376
0.647666
0.473145
0.687063
0.586697
0.978117
0.783925
0.970758
0.989223
0.894394
0.997742
0.422465
0.427382
0.427588
0.427988
0.410718
0.4671
0.435719
0.410325
0.422491
0.434183
0.441997
0.421311
0.428716
0.43964
0.432796
0.425405
0.436803
0.417929
0.419745
0.445827
0.437917
0.419483
0.432182
0.446957
0.501328
0.946443
0.895139
0.461359
0.621589
0.920884
0.951987
0.906282
0.978592
0.421834
0.431645
0.417457
0.445398
0.453592
0.432179
0.99431
0.997481
0.995515
0.997676
0.995712
0.414573
0.432481
0.457983
0.432415
0.435249
1
0.932913
0.993997
0.997363
0.924616
0.40739
0.427367
0.454033
0.401624
0.424678
0.423301
0.446066
0.407
0.416248
0.697204
0.991603
0.97554
0.95705
0.736233
0.990254
0.976046
0.933712
0.406931
0.408846
0.682183
0.613572
0.448635
0.794993
0.880428
0.992122
0.932047
0.992952
0.996909
0.982465
0.997695
0.65427
0.983834
0.612293
0.587308
0.541453
0.96526
0.984218
0.979211
0.558493
0.608507
0.987689
0.984107
0.984635
0.661971
0.986402
0.47944
0.807521
0.598028
0.523437
0.734827
0.987963
0.994073
0.963204
0.996752
0.923724
0.98034
0.9932
0.980855
0.992125
0.994855
0.99521
0.998672
0.994616
0.462348
0.496776
0.444363
0.696202
0.574864
0.705197
0.99888
0.99978
0.995116
0.9965
1
0.452149
0.456389
0.582782
0.70754
0.684695
0.9978
0.933043
0.996685
1
0.942137
0.429906
0.743567
0.560794
0.432191
0.442905
0.804313
0.944808
0.749804
0.858289
0.767612
0.994654
0.971069
0.983188
0.780904
0.995618
0.979632
0.953773
0.484559
0.845676
0.961397
0.986616
0.972321
0.992148
0.996817
0.997755
0.997696
0.997977
0.998876
1
0.997689
0.996655
0.996724
0.993623
0.99911
0.990524
0.991533
0.995317
0.992429
0.996486
0.999109
0.989666
0.997727
0.998489
0.998674
0.993647
0.998677
1
0.996676
0.998779
0.998406
0.998376
0.997933
0.998957
0.997819
0.991779
0.994471
0.998934
0.994722
0.996736
0.998469
0.995463
0.99806
0.999513
0.987887
0.935127
0.991098
0.997755
1
0.997365
0.996055
1
0.998159
0.997722
0.964599
0.988429
0.983196
0.996481
0.99897
0.993843
0.994449
0.931232
0.994384
0.97309
0.900358
0.97754
0.992326
0.992518
0.987682
0.990527
0.991731
0.995249
0.996737
0.994642
0.832692
0.995366
0.988619
0.988884
0.88308
0.997036
0.987614
0.917977
0.992654
0.996152
0.995953
0.996817
0.997716
0.997099
0.99572
0.997519
1
0.99997
0.998215
0.997915
1
0.996027
0.997978
0.9989
0.996787
0.997092
0.993733
0.9952
0.994851
0.998242
0.999961
0.992964
0.99809
0.998876
0.994415
0.999581
0.99798
0.99798
0.997813
0.997407
0.997753
0.997087
0.995954
0.998093
0.996841
0.994971
0.996557
0.994835
0.991573
0.991964
0.992647
0.997331
0.996717
0.998192
0.99551
1
0.998879
1
1
0.999364
0.970639
0.997084
0.88624
0.997207
0.999583
0.995458
0.997013
0.516259
0.563456
0.396126
0.9982
0.988521
0.995736
0.951597
0.998849
0.994385
1
0.999091
0.995236
0.912789
0.864622
0.98869
0.981229
1
0.82978
0.996944
0.394392
0.778756
0.504501
0.995138
0.934234
0.999247
0.975048
0.991559
0.982838
0.9968
0.993419
0.997851
0.991549
0.996105
0.995387
0.994126
0.919505
0.995041
0.993543
0.997581
0.939418
0.996939
0.999447
0.9257
0.992933
0.996711
0.996163
0.996817
0.997754
0.996827
1
0.997516
0.996817
0.999124
1
1
1
1
0.996654
1
0.997794
0.996396
1
0.99729
0.996638
0.993272
1
0.993844
0.999091
0.99849
0.994358
1
1
0.995959
0.996643
0.998778
0.99899
0.996975
0.997692
0.999076
1
0.997782
0.997742
0.994765
0.990411
0.992187
0.996395
0.997722
0.997469
1
0.99883
1
0.997617
1
1
1
0.998877
1
0.998243
0.998877
1
0.99797
1
0.997576
0.997156
0.997804
1
0.997387
1
1
0.998543
1
1
0.999148
1
0.999031
1
0.991789
1
0.995515
0.991557
1
0.84246
0.996659
0.966965
0.999874
0.800358
0.990677
0.999096
0.998767
0.999276
0.998425
0.999967
0.999179
1
0.987512
0.988489
0.995182
0.986668
0.992855
0.988781
0.997756
0.982504
0.99019
0.963056
0.999847
0.999891
0.999015
0.970647
0.999118
0.996323
1
0.941494
0.999657
1
1
1
0.993913
0.998671
0.996677
1
0.99272
0.99719
0.996817
1
0.998793
0.997373
1
1
1
0.995539
0.999233
0.996812
0.99849
0.998243
0.996811
0.999265
0.997668
0.997576
0.995896
0.995713
0.997667
0.999961
0.997983
0.995963
0.99798
0.99798
0.999011
0.99845
0.999055
0.997311
0.998262
0.997735
0.998697
0.998438
0.999023
0.998336
0.994706
0.997841
0.994345
0.996961
0.998736
0.999951
0.998621
1
1
1
1
1
0.998877
0.996811
0.998516
1
1
0.998213
0.999339
0.995982
0.999079
0.99605
1
0.994428
0.999513
1
1
1
1
1
0.999242
1
0.99897
0.993106
0.996811
0.997667
0.995352
0.999524
0.798394
0.991047
0.945323
0.998053
0.836091
0.995158
1
1
1
0.99927
1
1
1
0.995326
0.994
0.993003
0.995893
0.99125
0.989293
0.989967
0.988693
0.989131
0.974909
1
0.995839
0.997316
0.981012
0.999147
0.996856
0.998036
0.963088
1
1
1
1
0.991814
0.992164
0.999456
1
0.994502
0.996224
1
1
1
0.999124
0.998875
1
1
0.998954
0.9977
1
0.998568
0.999122
0.996811
0.999923
0.997365
0.999121
0.995546
1
0.997061
0.993337
0.998676
0.997908
0.998119
1
0.996674
0.999076
0.997915
0.996751
0.99976
1
0.999316
0.998189
0.996266
0.99771
0.992736
0.989917
0.992628
0.999368
0.995915
0.999944
0.9988
1
0.999152
1
0.994722
0.999122
0.99877
0.997874
0.99896
0.997661
1
0.997416
1
1
0.999972
0.999236
1
1
1
1
0.995606
0.997134
0.99879
0.994727
0.995624
0.995661
0.847632
0.994073
0.852002
1
0.850355
0.994343
0.999842
0.998855
0.999121
1
1
1
1
0.992186
0.994349
0.994059
0.994037
0.994066
0.99206
0.9934
0.992518
0.993672
0.987331
0.999114
1
0.998414
0.985879
0.999664
0.998377
0.972291
0.992443
0.993213
1
1
0.996631
0.999154
1
1
1
1
1
1
0.997969
0.996515
0.999303
1
0.99969
0.998243
0.996811
0.997717
0.998274
0.999091
0.995546
1
0.99997
0.998838
0.997977
0.995258
0.99798
0.997701
0.999011
0.999195
0.998307
0.998376
0.996824
1
0.999479
0.990799
0.998074
0.994356
0.993475
0.996798
0.994742
0.997481
0.996185
0.993862
0.998877
0.996811
1
0.99791
1
1
0.996681
0.997886
0.997383
0.988241
0.996815
0.996818
0.993145
0.996811
0.996788
0.98966
1
0.89745
0.764464
0.979568
0.950013
0.988978
0.998116
0.992905
0.993869
0.990554
0.997624
0.993072
0.996513
0.992341
0.993334
0.998933
1
0.998058
0.997644
0.9993
1
0.990262
0.994753
0.995942
0.999668
1
0.996438
0.997704
1
1
1
0.99994
1
1
1
1
0.998397
1
1
0.999122
1
0.999961
1
0.998576
0.997523
0.992744
0.996456
0.996942
0.986615
0.99533
1
0.995263
0.996824
0.999821
0.999251
0.998376
0.997993
1
0.998112
0.996518
0.99591
0.995521
0.988797
0.995058
0.995882
0.990599
0.994634
0.992813
0.997755
0.993622
0.998243
0.999265
1
1
0.979819
0.993677
0.997017
0.965545
0.992088
0.997758
0.989041
0.996811
0.994062
0.993688
0.975711
0.965348
0.879047
0.938742
0.973993
0.99714
0.995954
0.996866
0.998369
0.996731
0.997414
0.997197
0.998931
0.992523
0.999115
1
1
0.999366
1
0.999696
1
0.997975
0.995942
0.996432
0.998188
0.999451
0.997406
0.997674
0.997366
1
1
1
1
1
1
0.991567
0.995958
1
0.998917
0.999637
1
0.997601
0.998668
0.998395
0.993459
0.990434
0.9874
0.977396
0.998954
0.988219
0.99192
1
0.99997
0.999136
1
0.998488
0.997334
0.999136
0.998113
0.995001
0.9916
0.994709
0.98402
0.992584
0.993576
0.997399
0.993922
1
0.998878
0.996811
0.997395
0.998878
0.996811
0.99894
0.950187
0.98053
0.99814
0.89666
0.967545
0.997001
0.998412
0.99868
0.993911
0.996631
0.97099
0.991566
0.919001
0.930979
0.993034
0.995954
0.997977
0.997757
1
0.998063
0.998978
0.996933
0.998369
0.996791
0.998232
0.999118
1
1
1
1
1
0.99867
0.996222
0.997971
0.998248
1
0.997716
1
1
1
1
0.9984
0.999845
1
1
0.993867
0.994634
0.993623
0.996401
0.997608
0.990434
0.996595
0.997941
0.991883
0.981227
0.993513
0.992549
0.982155
0.986266
0.980688
0.99798
0.999303
0.997963
0.998272
0.996909
0.997088
0.997424
0.996842
0.998764
0.995842
0.996837
0.998881
0.990266
0.996853
0.993113
0.996006
0.999301
0.998671
1
1
0.99897
0.999265
0.996811
0.995912
0.769644
0.902187
0.932278
0.757425
0.86709
0.992638
0.995702
0.997911
0.996607
0.997018
0.91108
0.994
0.980651
0.970434
0.999961
0.99728
0.994838
0.999868
0.99685
0.999062
0.998918
0.999373
0.998369
1
0.999969
1
1
1
1
1
1
1
0.997971
0.995942
1
1
0.996632
0.999124
1
1
1
1
0.998877
1
1
1
0.998676
0.9989
0.995937
0.997366
1
0.997717
0.998244
0.989641
0.978788
0.990764
0.990974
0.985601
0.991425
0.989821
0.99798
0.999791
0.997664
0.99711
0.999056
0.996752
0.995417
0.99714
0.998991
0.992413
0.996013
0.997307
0.996996
0.997752
0.996046
0.998457
0.998041
0.988107
0.997755
1
1
0.997368
0.9989
0.998213
0.84597
0.906594
0.911998
0.909547
0.934209
0.996001
0.993688
0.997911
0.999243
0.99667
0.981756
0.998877
0.995616
0.993625
1
0.998047
1
0.99967
1
1
0.997505
0.997758
1
1
1
1
1
0.999032
0.999115
1
0.998361
1
1
0.997971
1
1
0.998877
1
1
1
1
1
0.999613
1
0.99867
0.999233
0.994006
0.997031
0.998878
0.994883
0.987245
0.996247
0.997759
0.988339
0.983123
0.993183
0.991489
0.988852
0.99519
0.99261
0.997771
0.999443
0.996885
0.998719
0.999382
1
0.998263
0.999553
0.999056
0.999663
0.997562
0.998245
0.993571
0.998707
0.991004
0.983329
0.981111
0.955367
0.999961
0.994722
0.999182
1
0.997911
0.997365
0.95594
0.977227
0.871374
0.976094
0.990429
0.999061
1
0.9989
0.996849
0.999535
0.995934
1
0.999063
0.996813
0.998877
0.995954
0.998047
0.999967
0.998369
0.999818
0.999128
1
0.993476
0.999334
0.999115
0.999818
1
0.99773
1
0.999301
1
1
0.995942
0.998601
0.999879
1
0.998258
1
1
0.999264
1
1
0.999613
1
1
0.998815
0.9977
0.990544
0.993925
0.996457
0.99989
0.994622
0.994398
0.995941
0.995742
0.998791
0.997425
0.996632
0.998675
0.995399
1
1
0.99982
1
0.998731
1
0.998263
0.999136
0.998438
0.998426
0.995222
0.980031
0.998017
0.995392
0.994332
0.955826
0.925705
0.923536
0.998878
0.993733
0.998274
1
0.996701
0.999061
0.985414
0.984158
0.943091
0.99068
1
0.998243
0.998141
1
0.995425
0.999613
0.99989
1
0.999093
1
1
0.995885
0.997977
0.999044
0.998369
0.997488
0.999128
1
0.991957
0.999062
0.999115
0.999118
1
0.999933
0.999085
0.999362
1
0.99874
0.997971
0.99944
1
0.997915
0.997677
0.998248
0.99572
0.998141
0.997476
1
1
0.999342
1
0.997979
1
1
0.992996
0.992884
0.99945
0.996595
0.995125
0.995881
0.997755
0.986918
0.997365
0.998839
0.994213
1
1
1
0.997395
0.999106
0.999057
1
0.999131
0.999166
0.998178
0.982408
0.991532
0.929104
0.995434
0.979661
0.998847
0.911207
0.896585
0.929355
1
0.996811
0.998274
0.99551
1
0.999122
0.992071
1
0.980388
0.998245
1
0.998243
0.997483
1
0.997031
0.992603
0.997362
1
0.999698
0.997472
1
0.995954
0.995048
1
0.997863
0.996761
0.997955
1
1
0.999122
0.999268
1
0.999943
0.999933
0.999024
0.999118
1
1
0.998671
0.998741
0.999124
1
0.999187
0.999819
1
1
1
1
1
1
0.99797
0.996237
0.997979
0.99978
0.997447
0.998093
0.991532
0.995085
0.995336
0.999697
1
1
0.998243
0.999264
0.999861
0.999442
1
0.99798
0.996256
0.997438
0.998373
1
0.999101
0.99994
0.99629
0.965883
0.989193
0.900026
0.981073
0.92398
0.975844
0.931023
0.959627
0.970483
0.997755
1
0.998244
0.999574
0.993622
0.998576
0.997367
1
0.992597
0.999123
0.99681
0.999697
0.997793
1
1
1
1
1
0.99997
1
1
0.995955
0.994629
0.999374
0.997807
0.998245
0.99564
0.999241
0.998369
1
0.999115
0.999118
1
1
0.99942
1
0.998361
0.9993
1
0.997971
0.999305
0.996818
1
0.999124
0.996817
1
1
0.999124
1
1
1
0.992405
0.995957
0.998901
0.993578
0.996488
0.996811
0.998529
0.998244
1
0.999613
1
0.999121
0.998877
0.996027
0.981661
0.99993
1
0.994729
0.999136
0.999967
0.998376
0.997094
0.999136
0.999089
0.933981
0.98669
0.964909
0.959616
0.935027
0.987311
0.972523
0.980135
0.981878
0.997794
0.996812
0.999122
1
1
1
0.999123
1
0.995968
1
1
0.999122
1
1
0.999121
0.999613
0.998132
1
0.999123
1
1
0.997977
0.995815
0.999802
0.999888
0.999122
0.998286
0.999077
1
1
0.999146
0.999118
1
0.999933
0.999969
0.99854
0.999435
1
1
1
1
1
0.997754
0.998248
1
1
1
1
1
1
0.997969
1
1
0.996592
0.994622
0.991523
0.996701
0.995047
0.995246
0.998244
0.995743
0.996921
0.997667
0.995819
0.982853
0.954049
0.997841
0.998259
0.999131
1
0.999057
0.998376
0.997663
0.999136
0.998991
0.937858
0.988798
0.98911
0.947297
0.948966
0.991991
0.995794
0.990208
0.99944
0.995434
0.996812
0.999122
0.998878
1
0.997365
1
1
0.997015
0.999122
0.997909
1
0.998025
1
0.998273
0.999071
1
1
1
1
1
0.990096
0.998675
1
1
0.996792
1
0.99967
1
0.998819
0.998231
0.999818
1
0.9998
1
0.999878
0.998361
0.997339
0.998251
0.997971
0.999124
1
0.998877
0.999124
1
0.998877
1
0.999124
1
1
1
0.997979
0.997979
0.996812
0.996557
0.994853
0.99791
0.995511
0.996911
0.998789
0.984788
1
0.998516
0.978788
0.967231
0.962286
0.998677
1
0.997454
0.999732
0.998113
1
0.9997
0.999166
1
0.96561
0.997562
0.996672
0.966951
0.974935
0.991629
0.994311
0.988947
0.991465
0.998568
1
0.999122
0.999806
1
0.999091
1
0.9989
0.991394
0.999122
0.99758
0.999697
0.999768
0.99879
0.998
0.995508
1
1
1
0.99934
0.998877
0.999302
1
0.999044
0.998369
0.999122
0.998016
0.999044
0.998369
1
1
1
1
0.999666
0.999115
1
1
1
1
1
0.999124
1
1
1
1
1
0.996817
1
1
1
1
0.996794
0.998676
0.995712
0.994197
0.995186
1
0.99644
0.995094
0.999091
0.973408
1
0.997849
0.966169
0.964582
0.933913
1
0.993382
0.997095
0.997766
0.998438
0.997928
0.997064
0.998689
0.999349
0.984603
0.996936
0.995795
0.969955
0.99084
0.998418
0.997367
0.991885
0.987827
0.995434
1
0.997305
0.994774
0.992632
1
0.999123
0.99351
0.997286
0.998063
0.996809
1
0.994308
0.994722
0.998243
0.997754
0.996813
0.998064
0.997369
1
0.998877
0.995397
0.994629
1
0.998369
0.999122
0.998557
0.999044
1
1
1
0.997355
0.998361
1
0.998352
1
1
0.99972
1
1
0.998248
1
0.999613
1
1
0.998877
1
0.998248
0.998877
1
1
0.999233
0.998048
0.996812
0.998182
0.999122
1
0.996827
0.999122
0.998243
0.966672
0.994942
0.995426
0.961485
0.938437
0.962913
0.993661
0.995821
1
0.999702
0.997365
1
0.996525
0.998838
0.999967
0.995111
0.996046
0.994433
0.992339
0.993425
0.996045
0.99767
0.991675
0.981952
0.995781
0.996701
0.995003
0.992143
1
0.998819
0.997549
0.99571
0.999108
0.99997
0.992629
0.997153
0.995432
1
0.996667
0.996398
1
1
0.998004
0.994504
0.998877
1
0.997279
0.999044
1
1
0.997354
0.99746
0.998762
1
0.99881
1
1
1
0.99942
0.998236
1
1
1
1
0.998369
1
0.998916
1
1
1
0.999342
1
1
1
1
0.99784
0.997421
1
0.998181
0.999485
1
0.998065
0.998093
0.990277
0.959395
1
0.983008
0.967214
0.968068
0.968211
0.991572
0.999721
0.994879
0.996246
0.999024
0.999664
0.996824
0.998391
0.997722
0.996179
0.998979
0.994464
0.991557
0.994998
0.994595
0.997065
0.991117
0.997481
0.995898
1
0.995306
0.996246
0.993733
0.994336
0.998275
0.986359
0.993254
0.996459
0.993619
0.996244
0.998026
0.992853
0.998394
0.99694
0.996594
0.998877
0.998851
1
0.998141
0.997071
1
1
0.998369
1
0.999128
1
1
0.999122
1
1
0.998361
0.999666
0.998871
0.997354
1
0.998529
1
1
1
1
1
1
0.996817
1
1
0.999154
0.998877
1
0.996639
0.997979
1
0.996811
0.999033
0.997699
0.996812
0.998723
0.99564
0.980403
0.972246
0.973946
0.983099
0.974646
0.979923
0.98996
0.991504
0.994636
0.998263
0.998183
1
0.998488
0.996585
0.994517
0.997982
0.988089
0.99776
0.99879
0.990685
0.992131
0.997759
0.999092
0.986709
0.991395
0.994389
0.998901
0.992975
0.996362
0.993622
0.993125
0.992405
0.990429
0.989494
0.993705
0.988338
0.994215
0.996903
0.997911
0.992334
0.998567
0.998901
0.999613
0.994739
0.993625
1
1
0.997977
1
1
0.998245
0.998106
0.999241
0.999887
0.999122
1
0.997355
1
0.999032
1
1
1
1
1
1
1
1
1
0.999094
1
1
1
0.998248
1
1
1
0.997979
1
0.990433
0.990676
0.993824
0.986806
0.998143
0.992672
0.968773
0.97236
0.955478
0.978223
0.984363
0.991912
0.992123
0.993104
0.99401
0.997395
0.990497
0.996064
0.991823
0.997454
0.99136
0.997071
0.990391
0.996508
0.995523
0.998828
0.993481
0.998121
0.995461
0.990137
0.993843
0.997097
0.993622
0.996396
0.997175
0.996812
0.995336
0.996308
0.985479
0.991743
0.991314
0.977666
0.992729
0.993418
0.996922
0.994092
0.994617
0.986265
0.997097
0.989991
0.997472
0.997986
0.997768
0.999581
0.999802
1
1
0.997715
1
1
0.999122
0.999451
0.999118
1
0.999967
0.998535
0.999118
1
1
1
1
1
0.996817
1
1
1
1
1
0.999124
1
1
0.9993
1
1
0.996151
0.999729
0.997365
0.995493
0.995783
0.99561
0.976224
0.985446
0.973617
0.989187
0.982697
0.992401
0.990588
0.994916
1
0.999132
0.995562
0.998276
0.992999
0.997424
0.997557
0.995867
0.994213
0.998649
0.995311
0.993209
0.988871
0.999044
0.994735
0.989227
0.988876
0.997291
1
0.998244
0.999729
1
0.997365
0.988048
0.987349
0.990619
0.986593
0.977556
0.994851
0.997832
0.99857
0.995637
0.998877
0.976485
0.994426
0.986211
0.975378
0.989583