/*--------------------------------*- C++ -*----------------------------------*\
| =========                 |                                                 |
| \\      /  F ield         | OpenFOAM: The Open Source CFD Toolbox           |
|  \\    /   O peration     | Version:  5.x                                   |
|   \\  /    A nd           | Web:      www.OpenFOAM.org                      |
|    \\/     M anipulation  |                                                 |
\*---------------------------------------------------------------------------*/
FoamFile
{
    version     2.0;
    format      ascii;
    class       volScalarField;
    location    "6.3";
    object      p;
}
// * * * * * * * * * * * * * * * * * * * * * * * * * * * * * * * * * * * * * //

dimensions      [0 2 -2 0 0 0 0];

internalField   nonuniform List<scalar> 
10571
(
57.5809
67.6483
61.2632
66.1459
86.0301
54.6432
67.8397
75.8273
75.8036
89.6491
48.8787
54.7833
109.969
143.758
130.913
98.5206
106.91
131.255
169.527
144.542
113.544
115.492
138.405
138.85
43.0943
44.4785
44.2861
42.9044
41.4361
45.129
43.6502
41.3812
38.1733
40.7365
45.7465
46.0704
44.728
27.083
34.3096
41.6631
48.5047
60.2258
43.1769
60.6413
46.9166
79.2379
78.8514
65.0613
33.1218
35.6614
32.6685
29.4632
9.83138
38.7855
6.59492
4.13788
2.94066
8.87562
42.3831
41.1566
3.6527
2.29893
2.20553
5.09946
34.5477
3.01973
2.32914
2.68632
2.89298
7.80243
5.96724
3.16235
1.72887
1.92049
1.69768
1.59065
2.25327
2.45931
1.34293
1.90581
2.04355
2.46004
2.43739
2.76162
1.96651
2.47855
2.32472
2.62009
2.11689
2.09474
2.33981
2.60418
2.65109
2.56177
2.64339
2.67393
2.27278
2.34259
2.30298
2.28365
2.27299
2.53901
3.04421
2.95917
2.5933
2.35681
2.62272
2.63255
2.76898
2.57196
2.46478
2.41312
2.40017
2.52254
2.44058
2.47777
2.44339
2.43382
2.50368
2.5233
2.4248
2.43779
2.44722
2.4443
2.3625
2.47025
2.5111
2.58044
2.43636
2.39108
2.44257
2.45179
2.47536
2.48248
2.46576
2.41855
2.42484
2.4438
2.43344
2.4552
2.44947
2.45442
2.43447
2.45204
2.47029
2.4691
2.4673
2.46788
2.47942
2.48367
2.4392
2.48548
2.54243
2.48726
2.45055
2.42328
2.4396
2.47247
2.4832
2.49103
2.46672
2.43726
2.43097
2.44002
2.45845
2.46268
2.44658
2.42019
2.43316
2.44252
2.45626
2.45141
2.4522
2.48711
2.47832
2.48455
2.4941
2.48735
2.48406
2.53063
2.49704
2.46612
2.43262
2.43586
2.46454
2.47751
2.48781
2.48001
2.45899
2.43239
2.43612
2.46825
2.46381
2.45302
2.40741
2.42569
2.43874
2.46421
2.45409
2.45193
2.4863
2.47231
2.47985
2.4861
2.4853
2.47548
2.48104
2.4913
2.45297
2.44317
2.44986
2.48624
2.47435
2.46882
2.48472
2.47552
2.45051
2.45199
2.47187
2.46754
2.46956
2.43103
2.44779
2.47211
2.46784
2.46336
2.48299
2.4726
2.4731
2.4799
2.47618
2.46806
2.44904
2.47673
2.4404
2.44215
2.48843
2.46909
2.46061
2.48465
2.48643
2.47491
2.47619
2.47694
2.4853
2.45188
2.4651
2.48187
2.48263
2.47765
2.48265
2.4788
2.46739
2.47873
2.47533
2.47112
2.44093
2.46986
2.45482
2.46222
2.48528
2.47406
2.47653
2.48555
2.49869
2.48236
2.48801
2.48373
2.4981
2.47166
2.48478
2.49267
2.49629
2.49453
2.48355
2.48727
2.47553
2.48427
2.48739
2.4844
2.46417
2.48456
2.49835
2.48389
2.50439
2.49383
2.49719
2.50467
2.51296
2.50166
2.50462
2.49002
2.50981
2.493
2.50547
2.50258
2.50844
2.51057
2.48889
2.4959
2.49099
2.49215
2.49941
2.49717
2.50207
2.50613
2.52085
2.50542
2.51474
2.5132
2.51393
2.51946
2.52058
2.51102
2.51669
2.5006
2.5159
2.51214
2.51634
2.51172
2.51807
2.52247
2.50016
2.50511
2.50377
2.50206
2.50639
2.50676
2.53005
2.51416
2.52208
2.51312
2.51354
2.51257
2.51897
2.5201
2.51203
2.50902
2.51801
2.50894
2.51953
2.5167
2.51773
2.51894
2.52472
2.52786
2.51454
2.51197
2.51004
2.50426
2.51338
2.51213
2.53698
2.52676
2.51958
2.51497
2.5127
2.51182
2.51502
2.5192
2.50439
2.5015
2.51099
2.51366
2.52218
2.51292
2.51491
2.52563
2.52887
2.52731
2.5252
2.5146
2.51529
2.51928
2.51585
2.50943
2.52893
2.53402
2.51851
2.51607
2.51781
2.52041
2.50888
2.52144
2.49941
2.49761
2.51464
2.51836
2.52514
2.50655
2.50853
2.53083
2.53395
2.52802
2.52691
2.51245
2.51876
2.54133
2.5137
2.50264
2.5191
2.52847
2.5069
2.5169
2.51845
2.52208
2.50602
2.51979
2.49623
2.50342
2.52102
2.52033
2.52496
2.49577
2.50445
2.53246
2.53653
2.52946
2.52317
2.50818
2.51483
2.52952
2.51233
2.49934
2.50891
2.51455
2.50574
2.51697
2.51365
2.51221
2.50285
2.51317
2.49087
2.51481
2.51524
2.51276
2.5194
2.48747
2.50621
2.52845
2.53394
2.53113
2.51758
2.50661
2.51066
2.51339
2.51571
2.49544
2.49829
2.5046
2.5062
2.51564
2.507
2.49907
2.49419
2.50337
2.48911
2.52689
2.5016
2.50156
2.51172
2.4946
2.52597
2.51379
2.52734
2.53336
2.51517
2.51001
2.50947
2.50958
2.52181
2.49449
2.49376
2.49951
2.50912
2.51435
2.50225
2.49328
2.48744
2.49699
2.49404
2.53031
2.48838
2.49748
2.51282
2.51107
2.55208
2.50045
2.52535
2.53789
2.51681
2.51569
2.50839
2.51209
2.52937
2.50086
2.49288
2.50456
2.51372
2.51431
2.50385
2.4946
2.48926
2.50328
2.50759
2.52658
2.49093
2.50524
2.52755
2.54585
2.55518
2.50208
2.53542
2.55739
2.52225
2.52239
2.5146
2.51823
2.53439
2.50893
2.50112
2.51343
2.51941
2.51742
2.51237
2.50268
2.50495
2.51454
2.50983
2.52244
2.51297
2.51664
2.53039
2.54726
2.54316
2.5178
2.5549
2.5705
2.53101
2.53353
2.52926
2.52749
2.53609
2.5177
2.51609
2.5227
2.52443
2.52227
2.52341
2.51281
2.5223
2.5194
2.51261
2.52214
2.53677
2.5323
2.5232
2.5307
2.53217
2.53336
2.50902
2.54594
2.54202
2.54675
2.54512
2.53716
2.53835
2.52876
2.53196
2.53321
2.53141
2.52954
2.53305
2.52175
2.53534
2.52054
2.52091
2.52623
2.54847
2.54306
2.53268
2.52785
2.53044
2.55458
2.47455
2.52508
2.55277
2.55625
2.5588
2.54762
2.54251
2.53967
2.54527
2.54336
2.53786
2.53733
2.54053
2.53064
2.54183
2.52798
2.53009
2.53227
2.55046
2.54987
2.53666
2.53367
2.53431
2.56423
2.51246
2.52995
2.56048
2.56158
2.56975
2.5604
2.54902
2.54664
2.5537
2.54833
2.54151
2.54262
2.54581
2.5386
2.54243
2.53762
2.53682
2.53877
2.54987
2.55094
2.54229
2.53962
2.54015
2.56528
2.5421
2.54054
2.56252
2.56071
2.56362
2.56377
2.55588
2.55459
2.55901
2.55226
2.54327
2.54608
2.54951
2.5459
2.543
2.54374
2.54127
2.54428
2.54939
2.54705
2.54589
2.54309
2.54462
2.55954
2.55458
2.54719
2.55764
2.56213
2.56081
2.55851
2.5562
2.55417
2.55785
2.5533
2.54666
2.54997
2.55061
2.54992
2.54474
2.54776
2.54445
2.54848
2.54906
2.54571
2.548
2.54458
2.54711
2.55379
2.55428
2.54857
2.55379
2.55901
2.55681
2.55461
2.55578
2.55116
2.55371
2.55177
2.54999
2.55476
2.54899
2.54607
2.54628
2.54964
2.54712
2.55069
2.54897
2.54688
2.54635
2.54601
2.54831
2.55062
2.55204
2.54971
2.55309
2.55378
2.55267
2.55277
2.55646
2.54865
2.54973
2.54972
2.55253
2.55481
2.54781
2.54241
2.54605
2.54863
2.54861
2.54986
2.54965
2.54898
2.54333
2.54814
2.54893
2.55033
2.55027
2.55258
2.55265
2.5501
2.55047
2.5518
2.55547
2.54709
2.54844
2.54728
2.54966
2.55089
2.54793
2.54297
2.5458
2.54813
2.54815
2.54832
2.55101
2.55071
2.54241
2.54979
2.54953
2.55195
2.5501
2.55522
2.55199
2.54823
2.54878
2.55101
2.55259
2.54755
2.54809
2.55111
2.54532
2.54785
2.54859
2.54458
2.54512
2.54812
2.54719
2.54742
2.55222
2.55212
2.54276
2.55015
2.54978
2.55383
2.55044
2.5562
2.551
2.54648
2.547
2.55035
2.54972
2.5467
2.54613
2.555
2.54347
2.54668
2.54805
2.54533
2.54489
2.54796
2.54533
2.54722
2.55171
2.55294
2.54578
2.55016
2.54927
2.55519
2.55096
2.55504
2.55028
2.54525
2.54579
2.54969
2.54837
2.5444
2.54411
2.55633
2.54209
2.54641
2.54804
2.54693
2.54487
2.54624
2.54267
2.54683
2.55068
2.55312
2.5483
2.54763
2.54771
2.5545
2.55107
2.55201
2.54916
2.54548
2.54504
2.5485
2.54821
2.54344
2.54288
2.55492
2.54119
2.54624
2.54801
2.54765
2.54511
2.54442
2.54023
2.54599
2.55036
2.55317
2.54887
2.54386
2.54579
2.55315
2.55054
2.54977
2.54772
2.54662
2.54428
2.54668
2.54845
2.54369
2.54396
2.55072
2.54039
2.54568
2.54666
2.54691
2.54545
2.54361
2.54027
2.54493
2.55065
2.55156
2.54888
2.54209
2.54499
2.55093
2.54962
2.55042
2.54666
2.54765
2.54449
2.54449
2.54917
2.54503
2.54526
2.54698
2.54287
2.54709
2.54717
2.54604
2.54736
2.54328
2.54169
2.54576
2.5501
2.55038
2.5496
2.54328
2.54619
2.55005
2.5493
2.55223
2.54617
2.54902
2.54579
2.54292
2.54985
2.54674
2.54721
2.54564
2.54699
2.54982
2.54924
2.54799
2.54865
2.54293
2.5455
2.54843
2.55223
2.54975
2.55046
2.5469
2.54984
2.54839
2.54967
2.55359
2.54628
2.55005
2.54666
2.54268
2.55022
2.54912
2.54891
2.54398
2.55004
2.55269
2.55092
2.54959
2.5497
2.54348
2.55054
2.55275
2.55153
2.54631
2.55008
2.55054
2.55436
2.54759
2.54999
2.55407
2.54744
2.55156
2.54793
2.54414
2.55059
2.55138
2.54863
2.54228
2.55135
2.55436
2.55203
2.55171
2.55075
2.54605
2.55429
2.5562
2.55127
2.54384
2.55083
2.5536
2.55805
2.54895
2.55207
2.55468
2.55025
2.55318
2.55041
2.54813
2.55174
2.55254
2.54987
2.5417
2.55163
2.55421
2.55302
2.55255
2.55146
2.55011
2.55562
2.55682
2.552
2.54407
2.55197
2.55647
2.56095
2.5517
2.55375
2.55618
2.55378
2.55466
2.55331
2.55238
2.55379
2.55398
2.55312
2.54568
2.55277
2.55411
2.5537
2.55239
2.55275
2.55251
2.55529
2.55562
2.55331
2.54685
2.5532
2.5564
2.55799
2.55401
2.55557
2.55772
2.55656
2.55586
2.55691
2.55574
2.55582
2.55625
2.55808
2.55424
2.55449
2.55481
2.55483
2.55317
2.55488
2.55426
2.55451
2.55474
2.55384
2.55075
2.55342
2.55556
2.55563
2.55587
2.55583
2.55686
2.55816
2.55673
2.55883
2.55776
2.55715
2.55442
2.56325
2.55838
2.55603
2.55587
2.55658
2.55522
2.55608
2.55679
2.55427
2.55474
2.55488
2.55485
2.55238
2.55445
2.55446
2.55707
2.55564
2.55507
2.55912
2.55831
2.55955
2.55891
2.55781
2.55379
2.5624
2.55866
2.55676
2.55685
2.55824
2.55743
2.55612
2.55728
2.55444
2.55529
2.55657
2.55768
2.55377
2.5535
2.55431
2.55822
2.5563
2.5546
2.55994
2.55995
2.56002
2.55974
2.55857
2.55586
2.56072
2.55874
2.55725
2.55762
2.55947
2.55775
2.55606
2.55737
2.55502
2.55624
2.55816
2.55913
2.55658
2.55322
2.55491
2.55915
2.55805
2.55583
2.56091
2.56096
2.56075
2.56071
2.55983
2.55954
2.56109
2.55889
2.55866
2.55817
2.56064
2.55893
2.55681
2.55733
2.55596
2.55745
2.56014
2.5603
2.55887
2.55491
2.55643
2.56002
2.55978
2.55753
2.56177
2.56121
2.56165
2.56189
2.56106
2.56164
2.56088
2.55981
2.56042
2.55893
2.5661
2.56204
2.56022
2.55879
2.5582
2.55841
2.56262
2.56181
2.56105
2.55741
2.55832
2.56093
2.5609
2.55932
2.56325
2.56216
2.56251
2.56308
2.5621
2.56335
2.56082
2.56061
2.56093
2.55983
2.56785
2.56319
2.56374
2.56102
2.5601
2.55921
2.56344
2.56326
2.56294
2.56016
2.56004
2.56226
2.56204
2.56101
2.56432
2.56397
2.56356
2.56412
2.56274
2.5656
2.56115
2.561
2.56136
2.56074
2.57142
2.57639
2.56754
2.56191
2.56025
2.55981
2.56767
2.56487
2.56421
2.56265
2.56143
2.56407
2.56368
2.56313
2.56555
2.56587
2.56458
2.56492
2.56343
2.56769
2.56269
2.56183
2.56264
2.56218
2.57426
2.57737
2.57623
2.56468
2.56061
2.56109
2.57361
2.56799
2.5666
2.56432
2.56298
2.56805
2.56642
2.56546
2.56623
2.5675
2.56561
2.56562
2.5641
2.56929
2.56618
2.56375
2.56347
2.56376
2.57418
2.57579
2.58114
2.56828
2.56427
2.56347
2.57366
2.56977
2.56838
2.56601
2.56492
2.57278
2.56912
2.56784
2.56664
2.56877
2.56671
2.56601
2.56457
2.5704
2.56808
2.5649
2.56351
2.56457
2.57333
2.57387
2.5802
2.56698
2.56664
2.56518
2.57295
2.57163
2.56896
2.56713
2.5664
2.57483
2.5706
2.56947
2.56665
2.56974
2.56767
2.56613
2.5644
2.57129
2.56849
2.56542
2.56344
2.56422
2.574
2.57354
2.57653
2.56624
2.56634
2.5651
2.57274
2.57319
2.56832
2.56655
2.56626
2.57392
2.57071
2.56969
2.56621
2.57073
2.56839
2.56593
2.56334
2.57205
2.56961
2.56473
2.56174
2.56229
2.57588
2.57334
2.57343
2.5664
2.56367
2.56307
2.57558
2.57299
2.56761
2.56482
2.56431
2.57303
2.56993
2.56841
2.56512
2.57211
2.56893
2.5653
2.56111
2.57356
2.57034
2.5637
2.55813
2.55812
2.57933
2.57637
2.57251
2.56494
2.55904
2.55881
2.58292
2.5729
2.56664
2.56193
2.56035
2.57319
2.56883
2.56608
2.56376
2.5742
2.56936
2.56349
2.55694
2.57685
2.57047
2.56159
2.55176
2.55152
2.58152
2.57931
2.57054
2.56142
2.5525
2.55123
2.5897
2.57265
2.56353
2.55714
2.55381
2.57448
2.567
2.56258
2.56213
2.57679
2.56974
2.56098
2.55183
2.58048
2.57107
2.55807
2.54227
2.53999
2.58238
2.58011
2.5697
2.55658
2.54225
2.53863
2.58081
2.56933
2.55799
2.54935
2.54337
2.57309
2.56381
2.55703
2.56029
2.57864
2.57009
2.55811
2.54427
2.5829
2.57236
2.55344
2.52639
2.52072
2.58285
2.57984
2.57033
2.55128
2.52659
2.51538
2.57101
2.56561
2.55254
2.53829
2.52635
2.56865
2.55927
2.54931
2.5583
2.57988
2.57029
2.55436
2.5343
2.58424
2.57452
2.54715
2.50279
2.48642
2.58357
2.5815
2.57426
2.54537
2.50196
2.4702
2.56868
2.56661
2.54765
2.52259
2.49753
2.56771
2.55554
2.54039
2.55627
2.58022
2.56955
2.55022
2.52134
2.58428
2.5799
2.53875
2.46056
2.41875
2.58557
2.58446
2.5818
2.53694
2.46687
2.37301
2.57541
2.57346
2.5446
2.50314
2.44784
2.57297
2.55386
2.53104
2.55406
2.57919
2.56873
2.54563
2.50633
2.58642
2.58023
2.52759
2.40387
2.2526
2.58843
2.5875
2.57792
2.52595
2.41548
2.15878
2.59033
2.5802
2.5422
2.47754
2.35108
2.57936
2.55473
2.52277
2.55217
2.57664
2.56513
2.54138
2.4917
2.58403
2.56824
2.51131
2.34454
1.83931
2.58946
2.58735
2.56842
2.50293
2.359
1.8428
-2.26692
2.60049
2.59157
2.53814
2.45272
2.14271
2.58227
2.55656
2.51799
2.55006
2.56802
2.55943
2.53612
2.48419
2.56689
2.54206
2.49976
2.33891
1.63021
-0.0196415
2.58826
2.5831
2.55727
2.48902
2.33408
1.85844
-0.0212766
2.60544
2.59205
2.53566
2.44453
1.92669
2.58846
2.56055
2.52185
2.54704
2.56488
2.54943
2.52815
2.49577
2.55649
2.54014
2.49913
2.40969
1.92074
0.512931
2.57462
2.5682
2.54458
2.48406
2.38011
1.93358
0.539493
2.59465
2.57813
2.53197
2.46894
2.15225
0.74208
2.60032
2.56737
2.53539
2.53533
2.54524
2.53697
2.52051
2.51552
2.54286
2.52285
2.50816
2.46252
2.11169
0.685143
2.55891
2.55104
2.53443
2.49137
2.43375
2.14032
0.547276
2.57572
2.55277
2.53737
2.48389
2.3733
2.59657
2.57167
2.54818
2.51467
2.53165
2.52135
2.49862
2.52145
2.53392
2.51906
2.50403
2.48846
2.34658
2.54697
2.53997
2.52547
2.51093
2.48897
2.33906
-0.30477
2.55758
2.54145
2.54011
2.5166
2.5634
2.59
2.57426
2.56215
2.49833
2.524
2.50804
2.47937
2.52386
2.52957
2.51437
2.50741
2.50414
2.51464
2.54034
2.53483
2.52274
2.52258
2.51801
2.54911
2.54581
2.53283
2.53316
2.5383
2.59052
2.57004
2.56738
2.5643
2.51782
2.52534
2.51264
2.50567
2.53833
2.52961
2.51841
2.51734
2.51774
2.56092
2.53811
2.53349
2.52221
2.52728
2.52856
2.5509
2.53898
2.52303
2.52168
2.53414
2.57115
2.55123
2.55095
2.55284
2.53972
2.53261
2.52489
2.52977
2.54517
2.53314
2.5197
2.52634
2.51462
2.55106
2.53917
2.53414
2.51929
2.51938
2.52185
2.53888
2.53622
2.51626
2.50801
2.52432
2.55194
2.53649
2.53031
2.535
2.54847
2.54341
2.53701
2.53834
2.5428
2.53951
2.52064
2.52649
2.5077
2.54756
2.54369
2.53678
2.51367
2.5094
2.50567
2.52766
2.53687
2.50829
2.49376
2.51082
2.53561
2.52448
2.51164
2.51706
2.55324
2.55627
2.54884
2.54393
2.54293
2.5503
2.52336
2.52227
2.50696
2.54789
2.55258
2.54353
2.50679
2.49593
2.49549
2.53482
2.5411
2.49953
2.4789
2.49939
2.53283
2.51419
2.49182
2.50265
2.5658
2.57181
2.56251
2.55163
2.55376
2.56466
2.53084
2.52425
2.5216
2.56187
2.5655
2.55378
2.50851
2.49599
2.50543
2.56414
2.54891
2.49493
2.47246
2.49198
2.55787
2.50756
2.47649
2.50034
2.58542
2.58616
2.5776
2.56078
2.56813
2.57683
2.55468
2.53257
2.54563
2.59033
2.57794
2.56387
2.51865
2.50554
2.53009
2.61538
2.5572
2.50103
2.47903
2.51868
2.63061
2.51206
2.46578
2.53209
2.60558
2.59094
2.58978
2.57229
2.58435
2.58294
2.57047
2.54444
2.55902
2.63428
2.58829
2.57127
2.53129
2.51361
2.5554
2.67959
2.56153
2.51505
2.49645
2.59135
2.71321
2.53168
2.48062
2.61642
130.613
129.703
138.956
143.398
132.983
145.412
145.575
140.638
130.182
130.652
142.639
147.874
143.724
145.563
147.447
142.755
144.951
151.329
150.12
147.727
144.403
148.17
137.065
146.478
149.285
143.763
136.789
118.291
131.296
136.388
136.889
134.141
144.853
139.073
137.829
158.505
159.487
130.682
117.921
165.534
154.538
128.182
154.893
150.995
168.617
158.092
170.915
157.899
122.938
136.952
146.205
143.758
159.328
161.25
175.144
184.498
199.237
202.702
221.364
210.823
206.415
237.63
234.182
195.67
190.969
222.483
211.698
180.731
162.277
187.671
154.88
174.387
189.316
174.984
195
208.811
225.617
208.482
222.574
240.47
241.279
235.406
236.297
227.881
205.607
219.67
196.586
184.719
188.895
197.668
206.214
194.198
216.108
217.657
200.041
207.155
62.2617
44.128
55.492
58.2596
61.5759
42.9814
43.5972
43.684
68.0632
77.3668
42.8583
43.819
44.0556
85.716
43.8681
60.9886
44.2049
65.6878
62.589
58.6742
44.8689
44.6051
44.3235
43.3354
87.448
69.9237
82.1499
43.301
43.042
41.8628
42.2594
86.2937
41.5157
54.9818
48.5056
52.3101
44.0077
43.8796
44.1947
94.4342
86.387
42.6441
44.2678
43.0476
55.5486
68.9635
44.0692
44.4698
45.9415
84.7084
94.056
44.7361
44.5438
47.7343
93.9241
49.0344
109.237
117.836
123.951
54.7926
65.3553
64.7045
76.3139
128.909
134.463
126.199
87.117
67.5097
76.1456
63.8212
54.5651
121.95
81.8045
125.356
117.047
90.1447
94.4375
92.9043
142.867
123.379
95.9665
93.4045
93.1158
80.2685
44.1584
43.4998
43.5124
44.0116
43.5981
43.0569
43.1614
42.8938
42.9715
42.4111
42.8959
42.7179
42.3784
41.817
41.3976
44.734
43.5834
44.3311
44.5853
44.4141
43.7792
43.4046
43.3915
42.441
41.1591
40.5122
41.0549
41.314
41.4619
40.9384
41.5197
40.9167
40.5656
45.0435
45.473
45.4539
43.5757
43.998
43.9109
41.1879
40.6625
38.2948
40.5249
38.5388
45.819
46.1351
44.2915
44.1816
44.745
40.6391
42.4951
42.8518
38.7921
42.4656
47.2229
46.4075
53.097
53.3218
61.254
47.5939
49.37
49.1099
52.244
52.9383
61.2711
56.7163
40.3837
42.005
52.9231
51.4501
41.4752
68.5875
57.982
82.2238
82.9163
60.4792
62.5462
66.3439
72.6847
80.8116
59.42
53.1966
65.8413
52.974
35.3996
3.17187
36.0305
34.8006
34.1261
2.88664
4.32201
3.81138
30.3807
16.6222
2.68776
2.70034
2.39457
7.29642
2.2242
37.929
9.93702
35.2214
37.0565
35.7699
4.44162
6.03294
11.4944
14.3535
4.67755
28.4692
9.70939
2.10293
1.92991
3.54676
1.88067
6.33586
1.76333
39.7422
41.9781
41.5195
22.3894
30.3532
32.6774
6.82964
9.96634
1.42898
1.34229
1.50418
42.0477
40.5431
32.7154
34.1329
22.5927
9.19142
3.72521
1.48149
1.58446
1.54168
37.8349
5.82056
29.915
21.375
17.0394
4.23837
2.9071
2.4351
2.3117
2.69879
3.14077
2.86281
1.97967
1.97759
1.95709
1.98844
1.85852
9.58487
2.16283
6.85488
5.11826
1.94778
1.97103
1.9255
3.70335
4.85883
1.96852
1.90174
1.90685
1.97517
1.84009
2.4987
1.64128
1.73935
1.64729
2.58984
2.54381
2.57484
1.77704
1.97477
2.52267
2.47389
2.35318
2.20396
2.33423
1.97965
2.30708
1.88831
2.084
2.00926
2.42137
2.45954
2.33227
2.35679
2.3558
1.68571
2.31937
2.3067
2.30356
2.37704
2.26552
2.40765
2.30706
2.2172
2.31597
2.57942
2.17062
2.06299
2.09208
2.48659
2.44587
2.36932
2.30422
2.31253
2.68104
2.20996
2.05322
2.07443
2.19782
2.55102
2.65722
2.32635
2.32514
2.33615
1.96737
2.40403
2.1934
2.21084
2.31355
2.42056
2.44211
2.40335
2.38733
2.62951
2.67653
2.66093
2.37232
2.39915
2.40051
2.42554
2.34061
2.42259
2.4017
2.57853
2.58398
2.34713
2.36092
2.37706
2.66872
2.63051
2.36389
2.38259
2.37488
2.36513
2.28865
2.42826
2.28619
2.28058
2.27637
2.42243
2.43462
2.43469
2.24855
2.22595
2.41344
2.42641
2.43584
2.29431
2.3772
2.44011
2.42162
2.30517
2.41205
2.43283
2.41587
2.4241
2.42011
2.43192
2.31879
2.35553
2.29295
2.3426
2.36704
2.34936
2.34368
2.35698
2.37446
2.51549
2.61367
2.60516
2.42624
2.47133
2.45334
2.39234
2.39408
2.3661
2.4169
2.36954
2.61672
2.49485
2.47257
2.46551
2.4335
2.40228
2.42217
2.41571
2.36982
2.43431
2.41536
2.41807
2.38672
2.41983
2.41145
2.42006
2.42235
2.43174
2.42755
2.46813
2.52492
2.49787
2.35423
2.38896
2.40794
2.4243
2.4076
2.42364
2.42254
2.4942
2.50773
2.40345
2.40715
2.44541
2.50984
2.51015
2.40341
2.38715
2.42341
2.40101
2.43156
2.44705
2.43259
2.4324
2.42976
2.44493
2.44826
2.44716
2.41565
2.38095
2.4466
2.45143
2.47014
2.37927
2.4514
2.44466
2.46356
2.43125
2.44596
2.45575
2.45462
2.45123
2.46428
2.4777
2.39472
2.36255
2.38541
2.42747
2.43108
2.43599
2.43496
2.40097
2.4357
2.45026
2.46337
2.46665
2.4656
2.47998
2.47868
2.42829
2.42906
2.46576
2.41776
2.45044
2.4247
2.43636
2.44934
2.43511
2.44611
2.44339
2.44794
2.44536
2.44524
2.45461
2.44097
2.46952
2.46641
2.45997
2.44996
2.43714
2.44066
2.42406
2.42904
2.43475
2.44414
2.44521
2.44581
2.45028
2.44337
2.44211
2.44487
2.44811
2.43563
2.45264
2.43149
2.43947
2.44185
2.44783
2.44683
2.45685
2.45986
2.44372
2.47374
2.46131
2.39518
2.40723
2.42909
2.42878
2.42072
2.44509
2.45319
2.47537
2.47876
2.44042
2.44359
2.44706
2.48298
2.47645
2.43492
2.43055
2.44053
2.4256
2.46394
2.47691
2.46305
2.46683
2.46628
2.47657
2.47852
2.477
2.46968
2.47444
2.48054
2.4824
2.48887
2.45509
2.48846
2.47413
2.47809
2.46625
2.47482
2.48776
2.47591
2.47552
2.48006
2.48873
2.44547
2.47681
2.4489
2.48459
2.47623
2.50529
2.4769
2.44441
2.4492
2.45567
2.45596
2.44312
2.44952
2.44168
2.45071
2.47328
2.48032
2.47935
2.47739
2.47241
2.47517
2.44615
2.43385
2.44449
2.42058
2.43874
2.43427
2.44879
2.44642
2.44444
2.44641
2.43258
2.44539
2.44423
2.4487
2.46658
2.46915
2.46731
2.46235
2.47116
2.44108
2.44231
2.44848
2.43069
2.44288
2.43147
2.43985
2.44325
2.44234
2.44733
2.43579
2.44347
2.43257
2.44558
2.46371
2.46883
2.4569
2.46561
2.46648
2.46448
2.46236
2.4719
2.47151
2.43892
2.46007
2.4513
2.40455
2.41019
2.4385
2.42949
2.44852
2.41543
2.44183
2.45086
2.43774
2.4507
2.46213
2.46732
2.46579
2.46534
2.45981
2.46009
2.45925
2.46204
2.46015
2.44774
2.4478
2.45409
2.43733
2.48141
2.48044
2.48138
2.48397
2.47954
2.48201
2.48561
2.47924
2.48803
2.49557
2.48766
2.48807
2.49677
2.48914
2.48956
2.4762
2.47349
2.47891
2.48006
2.48623
2.47526
2.47665
2.47538
2.48026
2.47553
2.51284
2.48214
2.48915
2.48025
2.50426
2.4795
2.4599
2.45392
2.45825
2.45527
2.44293
2.45169
2.44757
2.45641
2.47608
2.46373
2.46827
2.47457
2.46852
2.46407
2.44378
2.43845
2.45475
2.43822
2.45155
2.43912
2.45869
2.44773
2.44668
2.45191
2.44687
2.45386
2.45131
2.45735
2.4628
2.47214
2.47189
2.47079
2.47415
2.44718
2.43664
2.45072
2.43744
2.45238
2.43607
2.4562
2.44658
2.43875
2.44944
2.44151
2.45167
2.44301
2.45419
2.47103
2.47342
2.4643
2.47535
2.47388
2.47034
2.46474
2.47572
2.47316
2.43587
2.45695
2.4519
2.41651
2.42715
2.44699
2.44199
2.44509
2.41812
2.45288
2.45178
2.44299
2.45542
2.47058
2.47184
2.46473
2.46482
2.46784
2.46794
2.4678
2.46011
2.46186
2.45932
2.46334
2.46623
2.44907
2.47824
2.47602
2.48487
2.48136
2.48319
2.48698
2.47764
2.48657
2.4853
2.49382
2.48406
2.48144
2.48886
2.48574
2.48088
2.47179
2.47046
2.4752
2.4704
2.47432
2.47148
2.47425
2.46801
2.46944
2.47744
2.48869
2.47153
2.4801
2.4741
2.47709
2.46522
2.45862
2.45798
2.47377
2.47498
2.46961
2.47183
2.47974
2.47428
2.46593
2.44545
2.46756
2.44243
2.46255
2.45131
2.46742
2.45925
2.46117
2.46241
2.46189
2.46026
2.47455
2.46734
2.48197
2.47528
2.49473
2.48491
2.47529
2.46979
2.45279
2.46876
2.46008
2.47359
2.45483
2.46839
2.45839
2.4461
2.4596
2.46566
2.46147
2.45619
2.46046
2.47566
2.47744
2.46404
2.47542
2.47257
2.47333
2.46164
2.47544
2.47047
2.44279
2.46226
2.46121
2.443
2.45456
2.46463
2.46541
2.45413
2.47334
2.47459
2.4714
2.47236
2.47658
2.47545
2.47695
2.47238
2.47429
2.47519
2.48053
2.48094
2.46891
2.47508
2.47566
2.48734
2.47574
2.48697
2.48645
2.47573
2.48595
2.47844
2.48385
2.48236
2.4783
2.47834
2.47667
2.47292
2.47001
2.47179
2.47342
2.46756
2.46539
2.47493
2.47312
2.46811
2.46305
2.47153
2.46968
2.45926
2.47404
2.46952
2.46529
2.45474
2.45794
2.45981
2.47046
2.48056
2.47454
2.47134
2.48013
2.47513
2.45509
2.48487
2.45263
2.45189
2.42538
2.48193
2.47747
2.48463
2.48059
2.48147
2.50017
2.45831
2.47096
2.44985
2.46735
2.48012
2.48416
2.46398
2.47777
2.47375
2.48067
2.46924
2.48185
2.47773
2.46562
2.47196
2.47652
2.46125
2.47541
2.47988
2.48547
2.47379
2.47836
2.48299
2.48073
2.48248
2.48717
2.4863
2.48787
2.48818
2.48777
2.48963
2.49507
2.49373
2.48657
2.47769
2.481
2.48509
2.47672
2.48273
2.48433
2.47908
2.48035
2.47944
2.47442
2.48312
2.48033
2.47622
2.47203
2.47697
2.47665
2.48264
2.47453
2.47026
2.46352
2.48293
2.47768
2.47484
2.4679
2.47113
2.46214
2.45558
2.47973
2.47608
2.4649
2.46142
2.46306
2.46932
2.47607
2.48232
2.47916
2.48208
2.48791
2.48464
2.46157
2.46541
2.46972
2.46954
2.47323
2.48248
2.48675
2.49344
2.49008
2.49371
2.48555
2.47896
2.49236
2.49216
2.49003
2.48947
2.49653
2.47842
2.48753
2.48391
2.49677
2.48932
2.49394
2.49075
2.48665
2.48906
2.4957
2.48294
2.49705
2.49776
2.5048
2.49577
2.48882
2.49443
2.49183
2.49314
2.49762
2.49677
2.49771
2.50158
2.49951
2.50259
2.50695
2.50469
2.50308
2.48514
2.48955
2.48537
2.48315
2.48075
2.48855
2.48774
2.484
2.48139
2.4807
2.48552
2.4836
2.48588
2.48461
2.49191
2.48645
2.49003
2.48266
2.48132
2.4761
2.49153
2.48835
2.48783
2.48547
2.48505
2.47727
2.47609
2.49454
2.49296
2.48755
2.48723
2.48078
2.49068
2.48758
2.49514
2.491
2.49255
2.50047
2.49706
2.48313
2.48755
2.49565
2.49544
2.49935
2.50285
2.50245
2.51133
2.51362
2.5098
2.50008
2.50154
2.50806
2.50589
2.50925
2.50411
2.51042
2.49935
2.50003
2.497
2.5118
2.5071
2.5055
2.50109
2.50623
2.50548
2.51364
2.50443
2.51366
2.51222
2.5208
2.51234
2.4991
2.50384
2.50144
2.50242
2.50742
2.50566
2.50697
2.51148
2.50946
2.51353
2.51491
2.51366
2.51713
2.49433
2.49881
2.49112
2.49248
2.4883
2.49309
2.49711
2.49256
2.48811
2.49193
2.49389
2.494
2.49904
2.49764
2.50138
2.49446
2.49852
2.4938
2.49488
2.49406
2.50052
2.49915
2.50097
2.50104
2.49929
2.4921
2.49673
2.50331
2.50411
2.49214
2.50327
2.49872
2.50424
2.4963
2.50369
2.5015
2.49976
2.50646
2.50473
2.50504
2.50737
2.51096
2.51019
2.51103
2.51825
2.51517
2.51471
2.5169
2.51625
2.5088
2.51164
2.51169
2.51022
2.51075
2.51593
2.51779
2.51287
2.50822
2.50533
2.51899
2.51785
2.50935
2.5101
2.51868
2.51756
2.52626
2.51561
2.52068
2.52189
2.52967
2.51807
2.50913
2.51407
2.51003
2.51137
2.51563
2.51393
2.51517
2.51758
2.51731
2.52176
2.51967
2.52059
2.5262
2.5028
2.50668
2.49695
2.50208
2.49713
2.50216
2.50698
2.50249
2.5013
2.50628
2.50727
2.51016
2.51225
2.50512
2.50953
2.50174
2.5039
2.50373
2.50588
2.50597
2.50904
2.50718
2.50939
2.50905
2.50788
2.49348
2.50817
2.51012
2.5117
2.49971
2.51258
2.50808
2.5114
2.50181
2.50863
2.50712
2.50281
2.51048
2.50913
2.51189
2.51262
2.51434
2.51273
2.51305
2.51424
2.51429
2.51247
2.51197
2.51328
2.50857
2.50687
2.50564
2.50603
2.50325
2.51653
2.51446
2.51907
2.51171
2.51478
2.51396
2.51749
2.51455
2.51795
2.52182
2.52438
2.53067
2.51513
2.52259
2.5254
2.53018
2.51693
2.51759
2.52033
2.5172
2.51874
2.52226
2.52033
2.52224
2.52164
2.52331
2.52723
2.52384
2.52584
2.528
2.51038
2.51335
2.50772
2.51172
2.5079
2.51279
2.515
2.51265
2.5185
2.51736
2.52136
2.52306
2.52178
2.51397
2.51722
2.50502
2.50568
2.50977
2.51052
2.51135
2.51384
2.51184
2.50944
2.51341
2.51523
2.50654
2.51557
2.51542
2.5178
2.51222
2.51823
2.51403
2.51598
2.50339
2.51221
2.51105
2.50388
2.51402
2.51367
2.51275
2.5133
2.51555
2.51261
2.51298
2.51145
2.51277
2.51475
2.51389
2.51361
2.50307
2.50008
2.49849
2.50123
2.49788
2.51333
2.5143
2.51559
2.51675
2.52132
2.51147
2.51781
2.51856
2.52505
2.52199
2.52518
2.52841
2.5096
2.51937
2.52432
2.52604
2.51224
2.52294
2.52496
2.52403
2.52579
2.52853
2.52742
2.52913
2.52588
2.52763
2.53143
2.52898
2.53022
2.52724
2.51522
2.51589
2.51674
2.51722
2.51611
2.5201
2.51849
2.51865
2.52281
2.52508
2.52693
2.52297
2.5263
2.51833
2.51814
2.50682
2.50838
2.51312
2.50911
2.51491
2.51413
2.51339
2.50854
2.51503
2.5199
2.5152
2.5193
2.51554
2.51952
2.51772
2.51926
2.51712
2.51742
2.50446
2.51467
2.51462
2.50515
2.5139
2.51367
2.51259
2.51283
2.51665
2.51298
2.51298
2.51792
2.51676
2.51918
2.51957
2.52025
2.50071
2.49714
2.49944
2.50171
2.49775
2.51685
2.51974
2.52127
2.52044
2.52695
2.5188
2.52628
2.52248
2.52761
2.5152
2.52361
2.52313
2.50062
2.51014
2.52218
2.51999
2.50568
2.52628
2.52803
2.53035
2.53191
2.53196
2.53179
2.53399
2.53235
2.53307
2.53528
2.53468
2.53585
2.52874
2.51567
2.51412
2.52248
2.51894
2.5202
2.52264
2.51853
2.52002
2.52435
2.52378
2.52568
2.52523
2.52132
2.51716
2.51637
2.50918
2.50888
2.51229
2.50703
2.51404
2.51037
2.5097
2.50499
2.51139
2.51762
2.5176
2.51629
2.51249
2.51637
2.5166
2.5125
2.51658
2.51517
2.50567
2.51229
2.51184
2.50565
2.51029
2.5096
2.51347
2.51306
2.51736
2.51473
2.5137
2.5186
2.52213
2.51646
2.51667
2.52182
2.5037
2.49974
2.50858
2.5064
2.50372
2.52103
2.51976
2.52892
2.52338
2.52768
2.51942
2.52753
2.52217
2.52744
2.50883
2.52016
2.51689
2.49136
2.50877
2.51896
2.51548
2.50523
2.52927
2.52925
2.53247
2.53518
2.53151
2.53159
2.53439
2.53704
2.53774
2.53599
2.53761
2.5383
2.52995
2.51172
2.51114
2.52046
2.51693
2.51841
2.51739
2.51501
2.51616
2.52384
2.5198
2.52018
2.52128
2.51927
2.51633
2.51745
2.50765
2.50641
2.50665
2.50257
2.50787
2.50638
2.50618
2.49984
2.50681
2.51597
2.51503
2.51106
2.51346
2.51689
2.5129
2.50986
2.51434
2.51356
2.50498
2.508
2.50721
2.50403
2.50565
2.50483
2.51537
2.51443
2.51648
2.51611
2.51498
2.51396
2.51906
2.51036
2.51063
2.51489
2.51036
2.5089
2.52171
2.51437
2.51448
2.51683
2.51221
2.52206
2.51779
2.52438
2.50942
2.51377
2.51019
2.51664
2.5056
2.51831
2.51546
2.48963
2.5078
2.51956
2.51799
2.51058
2.52607
2.51814
2.52893
2.53139
2.52268
2.52533
2.52711
2.53822
2.53665
2.53063
2.53749
2.53388
2.53228
2.51261
2.51521
2.51458
2.51386
2.51412
2.51286
2.51357
2.5129
2.51901
2.51918
2.51587
2.51752
2.51939
2.51937
2.5217
2.50591
2.5062
2.50942
2.49811
2.50878
2.50801
2.51412
2.49827
2.51144
2.51955
2.51373
2.51234
2.51863
2.52258
2.51508
2.5156
2.51394
2.51489
2.50328
2.50355
2.50252
2.50297
2.50202
2.50078
2.51652
2.51542
2.51487
2.51676
2.51572
2.50671
2.51018
2.50405
2.50313
2.50592
2.51875
2.52241
2.53023
2.52131
2.5349
2.50582
2.49957
2.50019
2.49821
2.50111
2.49369
2.48634
2.48397
2.48003
2.51224
2.5231
2.52473
2.50173
2.52318
2.52756
2.53228
2.54184
2.50472
2.48737
2.52079
2.52225
2.5055
2.5168
2.51826
2.53632
2.53049
2.52597
2.53545
2.5291
2.53535
2.51785
2.51955
2.51237
2.51402
2.51273
2.5127
2.51518
2.51328
2.51681
2.5199
2.51545
2.51694
2.52056
2.52413
2.52656
2.50701
2.50821
2.51854
2.4997
2.51397
2.51275
2.5226
2.50192
2.51536
2.52549
2.51819
2.51978
2.52555
2.52764
2.52076
2.52314
2.51669
2.51899
2.50333
2.50161
2.5001
2.50431
2.5025
2.5006
2.51685
2.51621
2.51407
2.51627
2.51644
2.50079
2.50303
2.50207
2.50032
2.50229
2.52256
2.54037
2.52854
2.52291
2.53887
2.49513
2.49393
2.4732
2.47374
2.4622
2.48707
2.46597
2.47031
2.45491
2.54062
2.53313
2.53985
2.53122
2.55771
2.54443
2.5501
2.55648
2.47442
2.4715
2.51398
2.51623
2.499
2.51504
2.51727
2.53553
2.52981
2.52907
2.53791
2.53344
2.54504
2.52027
2.52128