/*--------------------------------*- C++ -*----------------------------------*\
| =========                 |                                                 |
| \\      /  F ield         | OpenFOAM: The Open Source CFD Toolbox           |
|  \\    /   O peration     | Version:  5.x                                   |
|   \\  /    A nd           | Web:      www.OpenFOAM.org                      |
|    \\/     M anipulation  |                                                 |
\*---------------------------------------------------------------------------*/
FoamFile
{
    version     2.0;
    format      ascii;
    class       volVectorField;
    location    "1.3";
    object      Us;
}
// * * * * * * * * * * * * * * * * * * * * * * * * * * * * * * * * * * * * * //

dimensions      [0 1 -1 0 0 0 0];

internalField   nonuniform List<vector> 
10571
(
(-0.0989117 0.0028578 -0.0594449)
(0.0262819 -0.00880187 -0.0212188)
(0.00778921 0.0923018 0.0308346)
(-0.10285 0.0542299 -0.0152682)
(-0.0709031 0.000147768 -0.0303512)
(0.0968861 -0.0047551 -0.0346265)
(-0.141377 -0.18382 -0.252613)
(0.0141264 -0.11929 0.00632628)
(-0.0399733 -0.13817 -0.184325)
(-0.0526439 -0.0506683 -0.0353798)
(0.00947656 -0.0506942 -0.0533228)
(0.0898913 -0.100748 0.0016627)
(-0.122847 -0.106745 -0.217247)
(-0.0931435 -0.116809 -0.278572)
(-0.0588222 -0.0935549 -0.0785547)
(-0.0144724 -0.0625401 -0.0261495)
(0.0146012 -0.0680042 -0.0239875)
(-0.11635 -0.071389 -0.0539265)
(-0.106997 -0.0791664 -0.184609)
(-0.0406862 -0.0995834 -0.110926)
(0.00973276 -0.0446351 -0.0524547)
(-0.0998445 -0.0443725 -0.0380799)
(-0.0997934 -0.00400693 -0.0883311)
(-0.016914 -0.00532348 -0.0603071)
(-0.110499 -0.0060595 -0.0792774)
(0.00681218 -0.00792597 -0.035785)
(-0.0371597 0.0207166 0.0199952)
(-0.155034 -0.222306 -0.103689)
(-0.0780635 -0.15514 -0.139629)
(0.0253418 -0.0313098 -0.0982874)
(-0.166986 -0.143646 -0.0341193)
(-0.115551 -0.106291 -0.0702643)
(-0.0546761 -0.0919073 -0.0718001)
(-0.0121747 -0.0923307 -0.113159)
(-0.00348906 -0.0500957 -0.088035)
(-0.154326 -0.0943981 -0.0923752)
(-0.125411 -0.05946 -0.0898497)
(-0.0928919 -0.052849 -0.169163)
(-0.0593886 -0.0581346 -0.190183)
(-0.00786989 -0.0250718 -0.108411)
(-0.109455 -0.0723095 -0.101478)
(-0.0620037 -0.0323475 -0.151478)
(-0.0805614 -0.0394174 -0.243142)
(-0.0648406 -0.044404 -0.248192)
(-0.0088319 0.00720611 -0.146668)
(-0.0492692 -0.0332729 -0.0909392)
(-0.0589901 -0.0388204 -0.241011)
(-0.0193346 -0.0185244 -0.202641)
(-0.104956 -0.0171267 -0.00462122)
(-0.0126286 -0.018686 0.0177334)
(-0.146915 -0.180264 0.0884595)
(-0.161845 -0.181389 0.0471972)
(-0.0837476 -0.0862936 0.0362808)
(-0.045607 -0.0721138 -0.0126992)
(-0.115267 -0.0797066 -0.0382985)
(-0.0940427 -0.0651244 -0.0857744)
(-0.102784 -0.0697615 -0.0736309)
(-0.0644894 -0.0530755 0.058313)
(-0.0111498 -0.0545915 -0.037813)
(-0.17312 -0.090747 0.0327992)
(-0.0437724 -0.0285171 -0.0695607)
(-0.0765422 -0.0624836 -0.117257)
(-0.0908535 -0.0742485 -0.147726)
(-0.0616442 -0.0271139 -0.125635)
(-0.0751575 -0.0409119 0.00875753)
(0.008333 -0.0483403 -0.0604017)
(0.118408 0.0411379 -0.498631)
(-1.25314e-14 1.72644e-14 7.94983e-14)
(-0.01623 -0.0117865 -0.182633)
(0.0144563 -0.0485437 -0.0766336)
(0.11999 0.0221362 -0.7067)
(0.174512 -0.109896 -0.738459)
(-0.096567 -0.0433126 0.0749086)
(0.0225793 -0.0909222 0.117319)
(-0.174628 -0.157605 0.11399)
(-0.0903706 -0.085626 0.0332141)
(-0.0525187 -0.0368888 0.0575417)
(-0.0263869 -0.0831998 0.0555206)
(-0.0901144 -0.0492042 -0.020687)
(-0.0908425 -0.0693613 -0.0677707)
(0.0632008 -0.0327084 -0.0153433)
(-0.0401405 -0.0753231 0.0375316)
(-0.00879242 -0.0582036 0.0192021)
(-0.0518434 -0.0880826 0.0639649)
(-0.00868014 -0.0301052 -0.0825255)
(0.095999 -0.0268332 -0.204471)
(0 0 0)
(-0.063915 -0.0171964 -0.436335)
(0.00408916 -0.0181036 -0.00357941)
(0.122628 0.0136881 -0.401756)
(0.143201 -0.0278905 -0.581682)
(0 0 0)
(0 0 0)
(0.116777 0.0324215 -0.292239)
(0.131971 0.0521534 -0.709484)
(0.186155 -0.0680355 -0.711338)
(0.060208 0.0114024 0.0627082)
(0.00264626 -0.0762815 0.150283)
(-0.0998762 0.0285086 0.0254455)
(-0.00280555 0.0294031 -0.0476446)
(0.0880518 0.0373501 -0.0862535)
(-0.0184831 -0.0978199 0.106299)
(-0.079753 -0.013574 -0.0368816)
(0.102481 0.0490436 -0.027865)
(0 0 0)
(0 0 0)
(-0.00662351 -0.0712234 0.0129514)
(-0.0209843 -0.0925256 0.0457473)
(0.0911848 -0.00982752 -0.437877)
(0 0 0)
(0 0 0)
(-0.045935 -0.0267841 -0.300377)
(0.00976967 -0.0145076 -0.0661526)
(0.0980004 0.0211765 -0.431963)
(0.131487 -0.0198317 -0.635297)
(0.176051 -0.167022 -0.733783)
(0 0 0)
(0 0 0)
(0.127671 -0.0221473 -0.672153)
(0.190707 -0.0511029 -0.718016)
(0 0 0)
(-0.121405 0.0971578 0.286709)
(-0.0772785 0.0896392 0.126484)
(0.0382922 0.0544305 0.0185987)
(0 0 0)
(-0.115101 0.0960918 0.192259)
(0.0463378 -0.00315645 -0.423824)
(0.0940766 0.226783 0.0595773)
(0 0 0)
(0 0 0)
(-0.00622394 0.00180221 -0.00281641)
(-0.0129257 -0.0989985 -0.0178641)
(-0.00563616 -0.0989745 -0.021001)
(0.0931846 -0.00459379 -0.562499)
(0.140504 0.00353154 -0.573033)
(0 0 0)
(0 0 0)
(-0.00199003 -0.000537261 -0.000662245)
(-0.00123739 -0.00113483 -0.117525)
(0.0939123 0.0368257 -0.565588)
(0.135598 -0.0146191 -0.610255)
(0 0 0)
(0 0 0)
(0.123049 0.0385749 -0.129283)
(0.151298 0.00557333 -0.668092)
(0.12513 -0.0917203 -0.676)
(0.0862212 0.0285259 0.260415)
(-0.132826 0.173339 0.298927)
(-0.0668983 0.122041 0.257369)
(0.0335668 0.0908946 0.178696)
(0 0 0)
(-0.19673 0.208047 0.236256)
(0.0934255 -0.0366771 -0.520517)
(0 0 0)
(0 0 0)
(0 0 0)
(0 0 0)
(-0.0361007 -0.151093 -0.0308671)
(0.0290029 -0.00745677 -0.524817)
(0.0782251 -0.0149959 -0.518775)
(0.158542 -0.0295069 -0.565731)
(0 0 0)
(0 0 0)
(0 0 0)
(0.0205484 -0.0315287 -0.0421239)
(0.0874692 0.0428381 -0.552706)
(0.122845 -0.01297 -0.588289)
(-2.38765e-14 -6.8563e-15 7.0977e-14)
(0 0 0)
(0 0 0)
(0.0890137 -0.0290193 -0.511172)
(0.139813 -0.0203162 -0.595339)
(0.208652 -0.06278 -0.590657)
(0.0852762 0.0119816 0.382194)
(-0.125736 0.175636 0.329044)
(-0.0640787 0.11497 0.384641)
(0 0 0)
(0 0 0)
(-0.183616 0.238032 0.344067)
(0.0909252 -0.0403759 -0.462325)
(0.148918 -0.0480527 -0.52165)
(0 0 0)
(0 0 0)
(0 0 0)
(0.0408383 -0.00863998 -0.319434)
(0 0 0)
(0.0886822 0.0150687 -0.492867)
(0 0 0)
(0 0 0)
(0 0 0)
(0 0 0)
(0 0 0)
(0.0856925 0.0694698 -0.528483)
(0.136025 0.0146229 -0.570511)
(0 0 0)
(0 0 0)
(0 0 0)
(0.0730814 0.109751 -0.528714)
(0.143262 -0.0327883 -0.552118)
(0.211663 -0.07024 -0.586137)
(0 0 0)
(-0.142794 0.147803 0.452896)
(-0.103106 0.129802 0.563134)
(0 0 0)
(0 0 0)
(0 0 0)
(0.0797506 -0.0537185 -0.449312)
(0 0 0)
(0 0 0)
(0 0 0)
(0 0 0)
(-0.033772 -0.019836 -0.336103)
(0.024348 -0.0333875 -0.411737)
(0.094064 0.00736971 -0.472871)
(0.173541 -0.0158831 -0.533694)
(0 0 0)
(0 0 0)
(0 0 0)
(0 0 0)
(0.100158 0.0644 -0.5039)
(0.11099 -0.144637 -0.50381)
(0 0 0)
(0 0 0)
(0.0941361 0.0682024 -0.479615)
(0.158008 -0.0406403 -0.527966)
(0 0 0)
(0 0 0)
(-0.145469 0.103347 0.250047)
(-0.021809 0.133995 0.659465)
(0 0 0)
(0 0 0)
(0.0421771 -0.0591081 -0.345418)
(0 0 0)
(0 0 0)
(0 0 0)
(0 0 0)
(0 0 0)
(0.0260716 -0.0259818 -0.383407)
(0 0 0)
(0 0 0)
(0 0 0)
(0 0 0)
(0 0 0)
(0.061908 0.0554239 -0.470014)
(0 0 0)
(0 0 0)
(0 0 0)
(0.0912791 -7.61251e-05 -0.446827)
(0.162759 -0.0283445 -0.481407)
(0 0 0)
(0 0 0)
(0.0787275 -0.0562169 -0.251624)
(0 0 0)
(0 0 0)
(0 0 0)
(0.0491002 -0.0594132 -0.311529)
(0 0 0)
(0 0 0)
(0 0 0)
(0 0 0)
(0.000946118 -0.0242244 -0.325659)
(0.0032299 -0.0254496 -0.288104)
(0 0 0)
(0 0 0)
(0 0 0)
(0 0 0)
(0 0 0)
(0 0 0)
(0 0 0)
(0 0 0)
(0 0 0)
(0.0871829 0.0965542 -0.424823)
(0 0 0)
(0 0 0)
(0 0 0)
(0.0818243 -0.062253 -0.234984)
(0 0 0)
(0 0 0)
(0 0 0)
(0 0 0)
(0 0 0)
(0 0 0)
(0 0 0)
(0 0 0)
(0 0 0)
(0 0 0)
(0 0 0)
(0 0 0)
(0 0 0)
(0 0 0)
(0 0 0)
(0.097521 0.0595318 -0.368536)
(0 0 0)
(0 0 0)
(0 0 0)
(0.0929911 -0.0213655 -0.331797)
(0 0 0)
(0 0 0)
(0 0 0)
(0 0 0)
(0 0 0)
(0 0 0)
(0 0 0)
(0.0488658 -0.0699654 -0.226072)
(0 0 0)
(0 0 0)
(0 0 0)
(0 0 0)
(0 0 0)
(0 0 0)
(0 0 0)
(0 0 0)
(0 0 0)
(0 0 0)
(0.0379257 0.0575598 -0.304052)
(-1.16029e-14 -6.1745e-15 3.44748e-14)
(0 0 0)
(0 0 0)
(0 0 0)
(0.110408 0.0271532 -0.354323)
(0 0 0)
(0 0 0)
(0 0 0)
(0 0 0)
(0 0 0)
(0 0 0)
(0 0 0)
(0 0 0)
(0 0 0)
(0 0 0)
(0 0 0)
(0 0 0)
(0 0 0)
(0 0 0)
(0 0 0)
(0 0 0)
(0 0 0)
(0 0 0)
(0 0 0)
(0.105611 0.037152 -0.283815)
(0 0 0)
(0 0 0)
(0 0 0)
(0.0992336 0.0271273 -0.31409)
(0 0 0)
(0 0 0)
(0 0 0)
(0 0 0)
(0 0 0)
(0 0 0)
(0 0 0)
(0 0 0)
(0 0 0)
(0 0 0)
(0 0 0)
(0 0 0)
(0.00208238 -0.0338486 -0.159624)
(0 0 0)
(0 0 0)
(0 0 0)
(0 0 0)
(0 0 0)
(0 0 0)
(0.0785278 0.0825912 -0.254541)
(0 0 0)
(0 0 0)
(0 0 0)
(0.111085 0.04933 -0.269936)
(0 0 0)
(0 0 0)
(0 0 0)
(0 0 0)
(0 0 0)
(0 0 0)
(0 0 0)
(0 0 0)
(0 0 0)
(0 0 0)
(0 0 0)
(0 0 0)
(0 0 0)
(0 0 0)
(0 0 0)
(0 0 0)
(0 0 0)
(0 0 0)
(0.0347401 0.0364283 -0.199333)
(0 0 0)
(0 0 0)
(0 0 0)
(0 0 0)
(0.126456 0.0411143 -0.232936)
(0 0 0)
(0 0 0)
(0 0 0)
(0 0 0)
(0 0 0)
(0 0 0)
(0 0 0)
(0 0 0)
(0 0 0)
(0 0 0)
(0 0 0)
(0 0 0)
(0 0 0)
(0 0 0)
(0 0 0)
(0 0 0)
(0 0 0)
(0 0 0)
(0.0390014 0.0193966 -0.17074)
(0 0 0)
(0 0 0)
(0 0 0)
(0 0 0)
(0 0 0)
(0 0 0)
(0 0 0)
(0 0 0)
(0 0 0)
(0 0 0)
(0 0 0)
(0 0 0)
(0 0 0)
(0 0 0)
(0 0 0)
(0 0 0)
(0 0 0)
(0 0 0)
(-5.19264e-15 4.9448e-15 1.01136e-14)
(0 0 0)
(0 0 0)
(0 0 0)
(0 0 0)
(0 0 0)
(0 0 0)
(0 0 0)
(0 0 0)
(0 0 0)
(0 0 0)
(0 0 0)
(0 0 0)
(0 0 0)
(0 0 0)
(0 0 0)
(0 0 0)
(0 0 0)
(0 0 0)
(0 0 0)
(0 0 0)
(0 0 0)
(0 0 0)
(0 0 0)
(0 0 0)
(0 0 0)
(0 0 0)
(0 0 0)
(0 0 0)
(0 0 0)
(0 0 0)
(0 0 0)
(0 0 0)
(0 0 0)
(0 0 0)
(0 0 0)
(0 0 0)
(0 0 0)
(0 0 0)
(0 0 0)
(0 0 0)
(0 0 0)
(0 0 0)
(0 0 0)
(0 0 0)
(0 0 0)
(0 0 0)
(0 0 0)
(0 0 0)
(0 0 0)
(0 0 0)
(0 0 0)
(0 0 0)
(0 0 0)
(0 0 0)
(0 0 0)
(0 0 0)
(0 0 0)
(0 0 0)
(0 0 0)
(0 0 0)
(0 0 0)
(0 0 0)
(0 0 0)
(0 0 0)
(0 0 0)
(0 0 0)
(0 0 0)
(0 0 0)
(0 0 0)
(0 0 0)
(0 0 0)
(0 0 0)
(0 0 0)
(0 0 0)
(0 0 0)
(0 0 0)
(0 0 0)
(0 0 0)
(0 0 0)
(0 0 0)
(0 0 0)
(0 0 0)
(0 0 0)
(0 0 0)
(0 0 0)
(0 0 0)
(0 0 0)
(0 0 0)
(0 0 0)
(0 0 0)
(0 0 0)
(0 0 0)
(0 0 0)
(0 0 0)
(0 0 0)
(0 0 0)
(0 0 0)
(0 0 0)
(0 0 0)
(0 0 0)
(0 0 0)
(0 0 0)
(0 0 0)
(0 0 0)
(0 0 0)
(0 0 0)
(0 0 0)
(0 0 0)
(0 0 0)
(0 0 0)
(0 0 0)
(0 0 0)
(0 0 0)
(0 0 0)
(0 0 0)
(0 0 0)
(0 0 0)
(0 0 0)
(0 0 0)
(0 0 0)
(0 0 0)
(0 0 0)
(0 0 0)
(0 0 0)
(0 0 0)
(0 0 0)
(0 0 0)
(0 0 0)
(0 0 0)
(0 0 0)
(0 0 0)
(0 0 0)
(0 0 0)
(0 0 0)
(0 0 0)
(0 0 0)
(0 0 0)
(0 0 0)
(0 0 0)
(0 0 0)
(0 0 0)
(0 0 0)
(0 0 0)
(0 0 0)
(0 0 0)
(0 0 0)
(0 0 0)
(0 0 0)
(0 0 0)
(0 0 0)
(0 0 0)
(0 0 0)
(0 0 0)
(0 0 0)
(0 0 0)
(0 0 0)
(0 0 0)
(0 0 0)
(0 0 0)
(0 0 0)
(0 0 0)
(0 0 0)
(0 0 0)
(0 0 0)
(0 0 0)
(0 0 0)
(0 0 0)
(0 0 0)
(0 0 0)
(0 0 0)
(0 0 0)
(0 0 0)
(0 0 0)
(0 0 0)
(0 0 0)
(0 0 0)
(0 0 0)
(0 0 0)
(0 0 0)
(0 0 0)
(0 0 0)
(0 0 0)
(0 0 0)
(0 0 0)
(0 0 0)
(0 0 0)
(0 0 0)
(0 0 0)
(0 0 0)
(0 0 0)
(0 0 0)
(0 0 0)
(0 0 0)
(0 0 0)
(0 0 0)
(0 0 0)
(0 0 0)
(0 0 0)
(0 0 0)
(0 0 0)
(0 0 0)
(0 0 0)
(0 0 0)
(0 0 0)
(0 0 0)
(0 0 0)
(0 0 0)
(0 0 0)
(0 0 0)
(0 0 0)
(0 0 0)
(0 0 0)
(0 0 0)
(0 0 0)
(0 0 0)
(0 0 0)
(0 0 0)
(0 0 0)
(0 0 0)
(0 0 0)
(0 0 0)
(0 0 0)
(0 0 0)
(0 0 0)
(0 0 0)
(0 0 0)
(0 0 0)
(0 0 0)
(0 0 0)
(0 0 0)
(0 0 0)
(0 0 0)
(0 0 0)
(0 0 0)
(0 0 0)
(0 0 0)
(0 0 0)
(0 0 0)
(0 0 0)
(0 0 0)
(0 0 0)
(0 0 0)
(0 0 0)
(0 0 0)
(0 0 0)
(0 0 0)
(0 0 0)
(0 0 0)
(0 0 0)
(0 0 0)
(0 0 0)
(0 0 0)
(0 0 0)
(0 0 0)
(0 0 0)
(0 0 0)
(0 0 0)
(0 0 0)
(0 0 0)
(0 0 0)
(0 0 0)
(0 0 0)
(0 0 0)
(0 0 0)
(0 0 0)
(0 0 0)
(0 0 0)
(0 0 0)
(0 0 0)
(0 0 0)
(0 0 0)
(0 0 0)
(0 0 0)
(0 0 0)
(0 0 0)
(0 0 0)
(0 0 0)
(0 0 0)
(0 0 0)
(0 0 0)
(0 0 0)
(0 0 0)
(0 0 0)
(0 0 0)
(0 0 0)
(0 0 0)
(0 0 0)
(0 0 0)
(0 0 0)
(0 0 0)
(0 0 0)
(0 0 0)
(0 0 0)
(0 0 0)
(0 0 0)
(0 0 0)
(0 0 0)
(0 0 0)
(0 0 0)
(0 0 0)
(0 0 0)
(0 0 0)
(0 0 0)
(0 0 0)
(0 0 0)
(0 0 0)
(0 0 0)
(0 0 0)
(0 0 0)
(0 0 0)
(0 0 0)
(0 0 0)
(0 0 0)
(0 0 0)
(0 0 0)
(0 0 0)
(0 0 0)
(0 0 0)
(0 0 0)
(0 0 0)
(0 0 0)
(0 0 0)
(0 0 0)
(0 0 0)
(0 0 0)
(0 0 0)
(0 0 0)
(0 0 0)
(0 0 0)
(0 0 0)
(0 0 0)
(0 0 0)
(0 0 0)
(0 0 0)
(0 0 0)
(0 0 0)
(0 0 0)
(0 0 0)
(0 0 0)
(0 0 0)
(0 0 0)
(0 0 0)
(0 0 0)
(0 0 0)
(0 0 0)
(0 0 0)
(0 0 0)
(0 0 0)
(0 0 0)
(0 0 0)
(0 0 0)
(0 0 0)
(0 0 0)
(0 0 0)
(0 0 0)
(0 0 0)
(0 0 0)
(0 0 0)
(0 0 0)
(0 0 0)
(0 0 0)
(0 0 0)
(0 0 0)
(0 0 0)
(0 0 0)
(0 0 0)
(0 0 0)
(0 0 0)
(0 0 0)
(0 0 0)
(0 0 0)
(0 0 0)
(0 0 0)
(0 0 0)
(0 0 0)
(0 0 0)
(0 0 0)
(0 0 0)
(0 0 0)
(0 0 0)
(0 0 0)
(0 0 0)
(0 0 0)
(0 0 0)
(0 0 0)
(0 0 0)
(0 0 0)
(0 0 0)
(0 0 0)
(0 0 0)
(0 0 0)
(0 0 0)
(0 0 0)
(0 0 0)
(0 0 0)
(0 0 0)
(0 0 0)
(0 0 0)
(0 0 0)
(0 0 0)
(0 0 0)
(0 0 0)
(0 0 0)
(0 0 0)
(0 0 0)
(0 0 0)
(0 0 0)
(0 0 0)
(0 0 0)
(0 0 0)
(0 0 0)
(0 0 0)
(0 0 0)
(0 0 0)
(0 0 0)
(0 0 0)
(0 0 0)
(0 0 0)
(0 0 0)
(0 0 0)
(0 0 0)
(0 0 0)
(0 0 0)
(0 0 0)
(0 0 0)
(0 0 0)
(0 0 0)
(0 0 0)
(0 0 0)
(0 0 0)
(0 0 0)
(0 0 0)
(0 0 0)
(0 0 0)
(0 0 0)
(0 0 0)
(0 0 0)
(0 0 0)
(0 0 0)
(0 0 0)
(0 0 0)
(0 0 0)
(0 0 0)
(0 0 0)
(0 0 0)
(0 0 0)
(0 0 0)
(0 0 0)
(0 0 0)
(0 0 0)
(0 0 0)
(0 0 0)
(0 0 0)
(0 0 0)
(0 0 0)
(0 0 0)
(0 0 0)
(0 0 0)
(0 0 0)
(0 0 0)
(0 0 0)
(0 0 0)
(0 0 0)
(0 0 0)
(0 0 0)
(0 0 0)
(0 0 0)
(0 0 0)
(0 0 0)
(0 0 0)
(0 0 0)
(0 0 0)
(0 0 0)
(0 0 0)
(0 0 0)
(0 0 0)
(0 0 0)
(0 0 0)
(0 0 0)
(0 0 0)
(0 0 0)
(0 0 0)
(0 0 0)
(0 0 0)
(0 0 0)
(0 0 0)
(0 0 0)
(0 0 0)
(0 0 0)
(0 0 0)
(0 0 0)
(0 0 0)
(0 0 0)
(0 0 0)
(0 0 0)
(0 0 0)
(0 0 0)
(0 0 0)
(0 0 0)
(0 0 0)
(0 0 0)
(0 0 0)
(0 0 0)
(0 0 0)
(0 0 0)
(0 0 0)
(0 0 0)
(0 0 0)
(0 0 0)
(0 0 0)
(0 0 0)
(0 0 0)
(0 0 0)
(0 0 0)
(0 0 0)
(0 0 0)
(0 0 0)
(0 0 0)
(0 0 0)
(0 0 0)
(0 0 0)
(0 0 0)
(0 0 0)
(0 0 0)
(0 0 0)
(0 0 0)
(0 0 0)
(0 0 0)
(0 0 0)
(0 0 0)
(0 0 0)
(0 0 0)
(0 0 0)
(0 0 0)
(0 0 0)
(0 0 0)
(0 0 0)
(0 0 0)
(0 0 0)
(0 0 0)
(0 0 0)
(0 0 0)
(0 0 0)
(0 0 0)
(0 0 0)
(0 0 0)
(0 0 0)
(0 0 0)
(0 0 0)
(0 0 0)
(0 0 0)
(0 0 0)
(0 0 0)
(0 0 0)
(0 0 0)
(0 0 0)
(0 0 0)
(0 0 0)
(0 0 0)
(0 0 0)
(0 0 0)
(0 0 0)
(0 0 0)
(0 0 0)
(0 0 0)
(0 0 0)
(0 0 0)
(0 0 0)
(0 0 0)
(0 0 0)
(0 0 0)
(0 0 0)
(0 0 0)
(0 0 0)
(0 0 0)
(0 0 0)
(0 0 0)
(0 0 0)
(0 0 0)
(0 0 0)
(0 0 0)
(0 0 0)
(0 0 0)
(0 0 0)
(0 0 0)
(0 0 0)
(0 0 0)
(0 0 0)
(0 0 0)
(0 0 0)
(0 0 0)
(0 0 0)
(0 0 0)
(0 0 0)
(0 0 0)
(0 0 0)
(0 0 0)
(0 0 0)
(0 0 0)
(0 0 0)
(0 0 0)
(0 0 0)
(0 0 0)
(0 0 0)
(0 0 0)
(0 0 0)
(0 0 0)
(0 0 0)
(0 0 0)
(0 0 0)
(0 0 0)
(0 0 0)
(0 0 0)
(0 0 0)
(0 0 0)
(0 0 0)
(0 0 0)
(0 0 0)
(0 0 0)
(0 0 0)
(0 0 0)
(0 0 0)
(0 0 0)
(0 0 0)
(0 0 0)
(0 0 0)
(0 0 0)
(0 0 0)
(0 0 0)
(0 0 0)
(0 0 0)
(0 0 0)
(0 0 0)
(0 0 0)
(0 0 0)
(0 0 0)
(0 0 0)
(0 0 0)
(0 0 0)
(0 0 0)
(0 0 0)
(0 0 0)
(0 0 0)
(0 0 0)
(0 0 0)
(0 0 0)
(0 0 0)
(0 0 0)
(0 0 0)
(0 0 0)
(0 0 0)
(0 0 0)
(0 0 0)
(0 0 0)
(0 0 0)
(0 0 0)
(0 0 0)
(0 0 0)
(0 0 0)
(0 0 0)
(0 0 0)
(0 0 0)
(0 0 0)
(0 0 0)
(0 0 0)
(0 0 0)
(0 0 0)
(0 0 0)
(0 0 0)
(0 0 0)
(0 0 0)
(0 0 0)
(0 0 0)
(0 0 0)
(0 0 0)
(0 0 0)
(0 0 0)
(0 0 0)
(0 0 0)
(0 0 0)
(0 0 0)
(0 0 0)
(0 0 0)
(0 0 0)
(0 0 0)
(0 0 0)
(0 0 0)
(0 0 0)
(0 0 0)
(0 0 0)
(0 0 0)
(0 0 0)
(0 0 0)
(0 0 0)
(0 0 0)
(0 0 0)
(0 0 0)
(0 0 0)
(0 0 0)
(0 0 0)
(0 0 0)
(0 0 0)
(0 0 0)
(0 0 0)
(0 0 0)
(0 0 0)
(0 0 0)
(0 0 0)
(0 0 0)
(0 0 0)
(0 0 0)
(0 0 0)
(0 0 0)
(0 0 0)
(0 0 0)
(0 0 0)
(0 0 0)
(0 0 0)
(0 0 0)
(0 0 0)
(0 0 0)
(0 0 0)
(0 0 0)
(0 0 0)
(0 0 0)
(0 0 0)
(0 0 0)
(0 0 0)
(0 0 0)
(0 0 0)
(0 0 0)
(0 0 0)
(0 0 0)
(0 0 0)
(0 0 0)
(0 0 0)
(0 0 0)
(0 0 0)
(0 0 0)
(0 0 0)
(0 0 0)
(0 0 0)
(0 0 0)
(0 0 0)
(0 0 0)
(0 0 0)
(0 0 0)
(0 0 0)
(0 0 0)
(0 0 0)
(0 0 0)
(0 0 0)
(0 0 0)
(0 0 0)
(0 0 0)
(0 0 0)
(0 0 0)
(0 0 0)
(0 0 0)
(0 0 0)
(0 0 0)
(0 0 0)
(0 0 0)
(0 0 0)
(0 0 0)
(0 0 0)
(0 0 0)
(0 0 0)
(0 0 0)
(0 0 0)
(0 0 0)
(0 0 0)
(0 0 0)
(0 0 0)
(0 0 0)
(0 0 0)
(0 0 0)
(0 0 0)
(0 0 0)
(0 0 0)
(0 0 0)
(0 0 0)
(0 0 0)
(0 0 0)
(0 0 0)
(0 0 0)
(0 0 0)
(0 0 0)
(0 0 0)
(0 0 0)
(0 0 0)
(0 0 0)
(0 0 0)
(0 0 0)
(0 0 0)
(0 0 0)
(0 0 0)
(0 0 0)
(0 0 0)
(0 0 0)
(0 0 0)
(0 0 0)
(0 0 0)
(0 0 0)
(0 0 0)
(0 0 0)
(0 0 0)
(0 0 0)
(0 0 0)
(0 0 0)
(0 0 0)
(0 0 0)
(0 0 0)
(0 0 0)
(0 0 0)
(0 0 0)
(0 0 0)
(0 0 0)
(0 0 0)
(0 0 0)
(0 0 0)
(0 0 0)
(0 0 0)
(0 0 0)
(0 0 0)
(0 0 0)
(0 0 0)
(0 0 0)
(0 0 0)
(0 0 0)
(0 0 0)
(0 0 0)
(0 0 0)
(0 0 0)
(0 0 0)
(0 0 0)
(0 0 0)
(0 0 0)
(0 0 0)
(0 0 0)
(0 0 0)
(0 0 0)
(0 0 0)
(0 0 0)
(0 0 0)
(0 0 0)
(0 0 0)
(0 0 0)
(0 0 0)
(0 0 0)
(0 0 0)
(0 0 0)
(0 0 0)
(0 0 0)
(0 0 0)
(0 0 0)
(0 0 0)
(0 0 0)
(0 0 0)
(0 0 0)
(0 0 0)
(0 0 0)
(0 0 0)
(0 0 0)
(0 0 0)
(0 0 0)
(0 0 0)
(0 0 0)
(0 0 0)
(0 0 0)
(0 0 0)
(0 0 0)
(0 0 0)
(0 0 0)
(0 0 0)
(0 0 0)
(0 0 0)
(0 0 0)
(0 0 0)
(0 0 0)
(0 0 0)
(0 0 0)
(0 0 0)
(0 0 0)
(0 0 0)
(0 0 0)
(0 0 0)
(0 0 0)
(0 0 0)
(0 0 0)
(0 0 0)
(0 0 0)
(0 0 0)
(0 0 0)
(0 0 0)
(0 0 0)
(0 0 0)
(0 0 0)
(0 0 0)
(0 0 0)
(0 0 0)
(0 0 0)
(0 0 0)
(0 0 0)
(0 0 0)
(0 0 0)
(0 0 0)
(0 0 0)
(0 0 0)
(0 0 0)
(0 0 0)
(0 0 0)
(0 0 0)
(0 0 0)
(0 0 0)
(0 0 0)
(0 0 0)
(0 0 0)
(0 0 0)
(0 0 0)
(0 0 0)
(0 0 0)
(0 0 0)
(0 0 0)
(0 0 0)
(0 0 0)
(0 0 0)
(0 0 0)
(0 0 0)
(0 0 0)
(0 0 0)
(0 0 0)
(0 0 0)
(0 0 0)
(0 0 0)
(0 0 0)
(0 0 0)
(0 0 0)
(0 0 0)
(0 0 0)
(0 0 0)
(0 0 0)
(0 0 0)
(0 0 0)
(0 0 0)
(0 0 0)
(0 0 0)
(0 0 0)
(0 0 0)
(0 0 0)
(0 0 0)
(0 0 0)
(0 0 0)
(0 0 0)
(0 0 0)
(0 0 0)
(0 0 0)
(0 0 0)
(0 0 0)
(0 0 0)
(0 0 0)
(0 0 0)
(0 0 0)
(0 0 0)
(0 0 0)
(0 0 0)
(0 0 0)
(0 0 0)
(0 0 0)
(0 0 0)
(0 0 0)
(0 0 0)
(0 0 0)
(0 0 0)
(0 0 0)
(0 0 0)
(0 0 0)
(0 0 0)
(0 0 0)
(0 0 0)
(0 0 0)
(0 0 0)
(0 0 0)
(0 0 0)
(0 0 0)
(0 0 0)
(0 0 0)
(0 0 0)
(0 0 0)
(0 0 0)
(0 0 0)
(0 0 0)
(0 0 0)
(0 0 0)
(0 0 0)
(0 0 0)
(0 0 0)
(0 0 0)
(0 0 0)
(0 0 0)
(0 0 0)
(0 0 0)
(0 0 0)
(0 0 0)
(0 0 0)
(0 0 0)
(0 0 0)
(0 0 0)
(0 0 0)
(0 0 0)
(0 0 0)
(0 0 0)
(0 0 0)
(0 0 0)
(0 0 0)
(0 0 0)
(0 0 0)
(0 0 0)
(0 0 0)
(0 0 0)
(0 0 0)
(0 0 0)
(0 0 0)
(0 0 0)
(0 0 0)
(0 0 0)
(0 0 0)
(0 0 0)
(0 0 0)
(0 0 0)
(0 0 0)
(0 0 0)
(0 0 0)
(0 0 0)
(0 0 0)
(0 0 0)
(0 0 0)
(0 0 0)
(0 0 0)
(0 0 0)
(0 0 0)
(0 0 0)
(0 0 0)
(0 0 0)
(0 0 0)
(0 0 0)
(0 0 0)
(0 0 0)
(0 0 0)
(0 0 0)
(0 0 0)
(0 0 0)
(0 0 0)
(0 0 0)
(0 0 0)
(0 0 0)
(0 0 0)
(0 0 0)
(0 0 0)
(0 0 0)
(0 0 0)
(0 0 0)
(0 0 0)
(0 0 0)
(0 0 0)
(0 0 0)
(0 0 0)
(0 0 0)
(0 0 0)
(0 0 0)
(0 0 0)
(0 0 0)
(0 0 0)
(0 0 0)
(0 0 0)
(0 0 0)
(0 0 0)
(0 0 0)
(0 0 0)
(0 0 0)
(0 0 0)
(0 0 0)
(0 0 0)
(0 0 0)
(0 0 0)
(0 0 0)
(0 0 0)
(0 0 0)
(0 0 0)
(0 0 0)
(0 0 0)
(0 0 0)
(0 0 0)
(0 0 0)
(0 0 0)
(0 0 0)
(0 0 0)
(0 0 0)
(0 0 0)
(0 0 0)
(0 0 0)
(0 0 0)
(0 0 0)
(0 0 0)
(0 0 0)
(0 0 0)
(0 0 0)
(0 0 0)
(0 0 0)
(0 0 0)
(0 0 0)
(0 0 0)
(0 0 0)
(0 0 0)
(0 0 0)
(0 0 0)
(0 0 0)
(0 0 0)
(0 0 0)
(0 0 0)
(0 0 0)
(0 0 0)
(0 0 0)
(0 0 0)
(0 0 0)
(0 0 0)
(0 0 0)
(0 0 0)
(0 0 0)
(0 0 0)
(0 0 0)
(0 0 0)
(0 0 0)
(0 0 0)
(0 0 0)
(0 0 0)
(0 0 0)
(0 0 0)
(0 0 0)
(0 0 0)
(0 0 0)
(0 0 0)
(0 0 0)
(0 0 0)
(0 0 0)
(0 0 0)
(0 0 0)
(0 0 0)
(0 0 0)
(0 0 0)
(0 0 0)
(0 0 0)
(0 0 0)
(0 0 0)
(0 0 0)
(0 0 0)
(0 0 0)
(0 0 0)
(0 0 0)
(0 0 0)
(0 0 0)
(0 0 0)
(0 0 0)
(0 0 0)
(0 0 0)
(0 0 0)
(0 0 0)
(0 0 0)
(0 0 0)
(0 0 0)
(0 0 0)
(0 0 0)
(0 0 0)
(0 0 0)
(0 0 0)
(0 0 0)
(0 0 0)
(0 0 0)
(0 0 0)
(0 0 0)
(0 0 0)
(0 0 0)
(0 0 0)
(0 0 0)
(0 0 0)
(0 0 0)
(0 0 0)
(0 0 0)
(0 0 0)
(0 0 0)
(0 0 0)
(0 0 0)
(0 0 0)
(0 0 0)
(0 0 0)
(0 0 0)
(0 0 0)
(0 0 0)
(0 0 0)
(0 0 0)
(0 0 0)
(0 0 0)
(0 0 0)
(0 0 0)
(0 0 0)
(0 0 0)
(0 0 0)
(0 0 0)
(0 0 0)
(0 0 0)
(0 0 0)
(0 0 0)
(0 0 0)
(0 0 0)
(0 0 0)
(0 0 0)
(0 0 0)
(0 0 0)
(0 0 0)
(0 0 0)
(0 0 0)
(0 0 0)
(0 0 0)
(0 0 0)
(0 0 0)
(0 0 0)
(0 0 0)
(0 0 0)
(0 0 0)
(0 0 0)
(0 0 0)
(0 0 0)
(0 0 0)
(0 0 0)
(0 0 0)
(0 0 0)
(0 0 0)
(0 0 0)
(0 0 0)
(0 0 0)
(0 0 0)
(0 0 0)
(0 0 0)
(0 0 0)
(0 0 0)
(0 0 0)
(0 0 0)
(0 0 0)
(0 0 0)
(0 0 0)
(0 0 0)
(0 0 0)
(0 0 0)
(0 0 0)
(0 0 0)
(0 0 0)
(0 0 0)
(0 0 0)
(0 0 0)
(0 0 0)
(0 0 0)
(0 0 0)
(0 0 0)
(0 0 0)
(0 0 0)
(0 0 0)
(0 0 0)
(0 0 0)
(0 0 0)
(0 0 0)
(0 0 0)
(0 0 0)
(0 0 0)
(0 0 0)
(0 0 0)
(0 0 0)
(0 0 0)
(0 0 0)
(0 0 0)
(0 0 0)
(0 0 0)
(0 0 0)
(0 0 0)
(0 0 0)
(0 0 0)
(0 0 0)
(0 0 0)
(0 0 0)
(0 0 0)
(0 0 0)
(0 0 0)
(0 0 0)
(0 0 0)
(0 0 0)
(0 0 0)
(0 0 0)
(0 0 0)
(0 0 0)
(0 0 0)
(0 0 0)
(0 0 0)
(0 0 0)
(0 0 0)
(0 0 0)
(0 0 0)
(0 0 0)
(0 0 0)
(0 0 0)
(0 0 0)
(0 0 0)
(0 0 0)
(0 0 0)
(0 0 0)
(0 0 0)
(0 0 0)
(0 0 0)
(0 0 0)
(0 0 0)
(0 0 0)
(0 0 0)
(0 0 0)
(0 0 0)
(0 0 0)
(0 0 0)
(0 0 0)
(0 0 0)
(0 0 0)
(0 0 0)
(0 0 0)
(0 0 0)
(0 0 0)
(0 0 0)
(0 0 0)
(0 0 0)
(0 0 0)
(0 0 0)
(0 0 0)
(0 0 0)
(0 0 0)
(0 0 0)
(0 0 0)
(0 0 0)
(0 0 0)
(0 0 0)
(0 0 0)
(0 0 0)
(0 0 0)
(0 0 0)
(0 0 0)
(0 0 0)
(0 0 0)
(0 0 0)
(0 0 0)
(0 0 0)
(0 0 0)
(0 0 0)
(0 0 0)
(0 0 0)
(0 0 0)
(0 0 0)
(0 0 0)
(0 0 0)
(0 0 0)
(0 0 0)
(0 0 0)
(0 0 0)
(0 0 0)
(0 0 0)
(0 0 0)
(0 0 0)
(0 0 0)
(0 0 0)
(0 0 0)
(0 0 0)
(0 0 0)
(0 0 0)
(0 0 0)
(0 0 0)
(0 0 0)
(0 0 0)
(0 0 0)
(0 0 0)
(0 0 0)
(0 0 0)
(0 0 0)
(0 0 0)
(0 0 0)
(0 0 0)
(0 0 0)
(0.00881586 0.00998026 -0.00380957)
(-0.0402623 0.0229854 -0.0172262)
(-0.00674455 0.0464714 0.000560279)
(-0.0429621 0.0624195 1.32363e-05)
(-0.0447176 0.0214068 -0.027265)
(-0.0539771 0.0525404 -0.00895994)
(-0.0312811 0.0308858 -0.0131249)
(-0.0176961 0.0118632 -0.0112681)
(0.0213786 -0.0109028 -0.0064249)
(0.0270967 -0.00615448 -0.00443885)
(0.0424762 0.0256546 0.000358567)
(0.0546745 -0.000554281 -0.00717269)
(0.0762955 0.0400593 0.00913576)
(0.0238574 0.0719892 0.0162906)
(-0.017073 0.076503 0.0138266)
(0.0182474 0.0401108 0.00495138)
(-0.0163621 0.0324308 0.00364332)
(-0.0341811 0.0601598 0.0012844)
(-0.0375835 0.0474951 0.00126423)
(-0.0288249 0.0183022 -0.00215344)
(-0.0169413 0.0150949 0.00168188)
(-0.0335463 0.0227089 -0.00387512)
(-0.0206857 -0.00154346 -0.00734278)
(-0.0292013 0.012281 -0.000261501)
(-0.0318771 0.00197947 -0.0034152)
(-0.0170438 -0.0102237 -0.00626239)
(0.0404431 -0.0156148 -0.00655274)
(0.0162834 -0.0165394 -0.0160359)
(0.0593261 -0.0238555 -0.00512601)
(0.0893494 0.00736209 0.000976271)
(0.0719648 0.00396557 0.0108984)
(0.0961866 -0.0189328 0.00938667)
(0.0555468 -0.0326967 0.00879719)
(0.0028508 -0.0176329 -0.014607)
(-0.0518201 -0.0337177 -0.0282311)
(-0.0169769 -0.0500742 -0.0296876)
(-0.0679486 -0.0731215 -0.0383265)
(-0.0543167 -0.0330922 0.00146436)
(-0.0313876 -0.0291273 -0.00610248)
(-0.0833866 -0.0712899 -0.0195114)
(-0.0464826 -0.070164 -0.00404278)
(-0.0333484 -0.0267862 -0.00806429)
(-0.0287314 -0.0237245 -0.00400858)
(-0.0434849 -0.0488817 0.00369497)
(-0.0350353 -0.0463359 0.000188926)
(-0.024628 -0.016285 -0.00665632)
(-0.0292451 -0.0258842 -0.00658508)
(-0.00675995 -0.0134299 -0.00862415)
(0.0202025 -0.0216315 -0.0208378)
(0.0568235 -0.0380616 -0.00811367)
(0.036212 -0.0285564 -0.0174152)
(0.0709216 -0.0565618 0.00863993)
(0.0335141 -0.0544068 0.00319975)
(0.0526679 -0.0613964 0.0067895)
(0.017748 -0.0487273 0.00198195)
(-0.0240814 -0.0815879 -0.0116085)
(-0.0673023 -0.103369 -0.0350699)
(-0.0192239 -0.0577218 0.00251141)
(-0.0620269 -0.0756102 -0.000561002)
(-0.0761549 -0.0786343 -0.0333209)
(-0.052857 -0.072404 -0.00962854)
(-0.062284 -0.0806978 -0.00902076)
(-0.0603327 -0.0866019 -0.00439919)
(-0.043695 -0.0743771 -0.00617271)
(-0.0410534 -0.0663522 -0.0031333)
(-0.04991 -0.0928542 -0.00266273)
(-0.0449274 -0.0837751 -0.00309213)
(-0.0191623 -0.0408224 -0.00300669)
(-0.00489101 -0.0118649 -0.00716814)
(-0.011869 -0.0535276 -0.00323046)
(0.0174663 -0.0171653 -0.0170854)
(0.0283559 -0.047595 -0.00158716)
(0.00547426 -0.0462349 0.00236381)
(-0.00248001 -0.0235676 -0.00364094)
(-0.0146467 -0.0346676 0.00168262)
(-0.0289644 -0.0518527 0.00550097)
(-0.0562584 -0.0761729 0.00312706)
(-0.0381864 -0.0528135 0.00430393)
(-0.0634332 -0.0707723 0.000951613)
(-0.0736422 -0.0894133 -0.00133077)
(-0.0788589 -0.102207 -0.00290992)
(-0.0951659 -0.0873337 -0.00872512)
(-0.0764234 -0.0857534 -0.0236249)
(-0.049001 -0.105451 -0.0128509)
(-0.0223557 -0.0727665 -0.0133406)
(-0.0192448 -0.0557359 -0.0212985)
(-0.00284527 -0.0334973 -0.0167987)
(0.000944733 -0.0393615 -0.0159901)
(-0.0301494 -0.0244725 -4.57445e-07)
(-0.0497036 -0.0343211 -0.000140602)
(-0.0602117 -0.0330181 -0.00890633)
(-0.0332859 -0.0103882 -0.00963626)
(-0.0667903 -0.0155659 -0.0148228)
(-0.0402635 -0.0182554 -0.0187897)
(-0.0315461 0.00356429 -0.00422352)
(-0.0117578 -0.00918626 -0.0184891)
(0.0058462 0.00611552 -0.0109053)
(0.000435524 0.00661084 -0.0160358)
(-0.0808414 0.019855 -0.031407)
(-0.0209854 0.0414665 -0.00422383)
(-0.0771404 0.0629235 -0.00999464)
(-0.0782232 0.0115662 -0.0391571)
(-0.0273522 0.0343964 -0.00344199)
(-0.0918115 0.050977 -0.022434)
(-0.103972 0.0426201 -0.0398901)
(-0.0876216 0.0083061 -0.0573839)
(-0.103083 -0.00160504 -0.0793221)
(-0.118597 0.0149985 -0.0758514)
(-0.114073 -0.0221122 -0.115085)
(-0.057885 -0.00832927 -0.0548953)
(-0.0976043 -0.047689 -0.143076)
(0.021623 -0.0202767 -0.0272768)
(0.0200415 -0.023477 -0.0467371)
(0.0434867 0.017734 -0.0107009)
(0.0548493 -0.0057127 -0.030174)
(0.0937936 0.0188506 -0.0243221)
(0.0193952 -0.00806978 -0.0390959)
(0.0301259 0.00929746 -0.0223533)
(0.0392704 -0.0141228 -0.0510053)
(0.0785922 -0.0129444 -0.0656144)
(-0.0507551 -0.0206493 -0.0308179)
(-0.053572 -0.0795467 -0.138519)
(-0.0645315 -0.0334241 -0.0465133)
(-0.0881305 -0.108284 -0.171955)
(-0.0680527 -0.0876586 -0.175974)
(-0.0329267 -0.147643 -0.135204)
(-0.0223692 -0.103116 -0.179141)
(-0.0362208 -0.0343428 -0.0294192)
(-0.0254088 -0.087464 -0.1705)
(0.0360682 -0.0246616 -0.0313902)
(0.0168135 -0.0361264 -0.0367212)
(0.0585971 -0.0358494 -0.032845)
(0.0286859 -0.0293001 -0.0568269)
(0.00926296 -0.0397121 -0.0626496)
(0.0419947 -0.0408862 -0.0607111)
(-0.045051 -0.049609 -0.0353774)
(-0.0166013 -0.0338755 -0.0409962)
(0.00233581 -0.0961777 -0.158411)
(0.0124694 -0.0795808 -0.170227)
(0.00200929 -0.056736 -0.157215)
(0.0535468 -0.0599286 -0.0409296)
(0.0218529 -0.0579886 -0.0535465)
(0.000633384 -0.0506325 -0.0774869)
(0.0275608 -0.0607935 -0.0741327)
(-0.00271885 -0.0677589 -0.0872382)
(-0.00812845 -0.015983 -0.0260284)
(-0.00195023 -0.0709988 -0.0548447)
(-0.00603161 -0.0449719 -0.174356)
(0.0125418 -0.0516979 -0.152302)
(0.00474395 -0.0114357 -0.175475)
(0.00189093 -0.0440214 -0.0514216)
(-0.0237192 -0.061473 -0.0871785)
(-0.0442152 -0.0746929 -0.0277172)
(-0.0172961 -0.0412567 -0.0189859)
(-0.0447595 -0.0559805 -0.00192644)
(-0.0258621 -0.0750722 -0.0868192)
(-0.146724 -0.0265537 -0.0810269)
(-0.074721 -0.0655667 -0.103849)
(-0.143076 -0.0402978 -0.119205)
(-0.0142074 -0.0710443 -0.0618587)
(-0.0192789 -0.0516563 -0.0779501)
(0.00228774 -0.0298099 -0.0592679)
(-0.0456779 -0.0580974 -0.216311)
(-0.00399889 -0.035488 -0.166805)
(-0.0325261 -0.0389929 -0.16214)
(0.00536908 -0.0258413 -0.122538)
(0.00986252 -0.0137246 -0.137334)
(-0.0631201 -0.0398051 -0.00584986)
(-0.107442 -0.0518554 -0.114636)
(-0.100056 -0.0293522 -0.0691297)
(-0.0750661 -0.0115553 -0.0654656)
(-0.0982403 -0.0261557 -0.133011)
(-0.0890357 -0.00914285 -0.171848)
(-0.0725891 -0.00683988 -0.154668)
(-0.0612757 -0.00568808 -0.0812529)
(-0.0685332 0.00795971 -0.0702055)
(-0.0891807 -0.0176497 -0.199139)
(-0.062047 -0.0158992 -0.167006)
(-0.0644471 -0.00375631 -0.177674)
(-0.0236815 -0.00456706 -0.131501)
(-0.00909402 0.0047712 -0.0156661)
(-0.0204697 -0.00506968 0.00824363)
(-0.0953417 0.0108308 -0.0404515)
(-0.0439178 0.0315758 -0.000812328)
(-0.115026 0.0317013 -0.0327399)
(-0.104165 0.0015919 -0.0196468)
(-0.0666095 0.00698741 0.0256092)
(-0.147155 -0.00867274 -0.00272001)
(-0.14345 -0.0303076 -0.102404)
(-0.129273 -0.0746299 -0.130204)
(-0.114831 -0.018473 -0.0499003)
(-0.158904 -0.0812261 -0.0628123)
(-0.135809 -0.0994081 -0.0716143)
(-0.113079 -0.0921807 -0.143992)
(-0.115256 -0.0910326 -0.0613535)
(0.0139551 -0.0176372 -0.051935)
(0.00562903 -0.0191176 -0.0463076)
(0.00533871 -0.0168337 -0.0252863)
(0.0199869 -0.0198891 -0.058395)
(0.0256289 -0.0733046 -0.0775333)
(-0.00716762 -0.00859679 -0.0223404)
(-0.0263887 -0.0457832 0.00906587)
(-0.00251878 -0.0306325 -0.0420546)
(-0.0420846 -0.105785 -0.0381552)
(-0.061592 -0.101836 -0.140741)
(-0.0260503 -0.139223 -0.0341215)
(-0.0192939 -0.100382 -0.0965159)
(-0.0913907 -0.161143 -0.0351452)
(-0.0642169 -0.108621 -0.0211587)
(-0.0672324 -0.161653 -0.011854)
(-0.0217516 -0.135725 0.012054)
(-0.0253182 -0.0787554 -0.110708)
(-0.0179211 -0.0521757 0.0289324)
(0.0195258 -0.0301393 -0.0683247)
(0.00582415 -0.0386402 -0.0757142)
(0.0200758 -0.0408065 -0.0801176)
(0.00123692 -0.0341063 -0.061677)
(-0.00205018 -0.042049 -0.0665126)
(-0.0181965 -0.0530031 -0.0736269)
(0.0196198 -0.0692365 -0.112463)
(0.00062484 -0.0483374 -0.0952334)
(0.0138896 -0.0599916 0.0465318)
(0.0117638 -0.0493304 -0.00929843)
(0.00389166 -0.0277436 0.0278905)
(-0.00265715 -0.0605908 -0.0951245)
(-0.0332152 -0.0679173 -0.101462)
(-0.00799411 -0.0536169 -0.0717424)
(-0.0489825 -0.0721559 -0.0771585)
(-0.0694403 -0.0657367 -0.0685035)
(0.0121989 -0.0412492 -0.0740444)
(-0.000416124 0.0087359 -0.122715)
(-0.0342625 -0.0235549 -0.0859534)
(0.000403032 -0.0248745 0.00186667)
(-0.0185881 -5.93596e-05 -0.123887)
(-0.0484347 -0.0665396 -0.0999062)
(-0.0539308 -0.0587763 -0.0621389)
(-0.128162 -0.0363787 -0.0752934)
(-0.101792 -0.070861 -0.107467)
(-0.116593 -0.033118 -0.101133)
(-0.138292 -0.0604393 -0.0504442)
(-0.122306 -0.0397045 -0.0482825)
(-0.102888 -0.0565274 -0.0344594)
(-0.089343 -0.0448285 -0.027527)
(-0.0306331 -0.0263271 -0.218716)
(-0.0439001 -0.0378052 -0.222437)
(-0.0162664 -0.0197313 -0.183227)
(-0.0542608 -0.0327735 -0.276156)
(-0.0460269 -0.0264441 -0.242854)
(-0.0115794 -0.0534526 -0.331057)
(-0.0162594 -0.0201248 -0.241179)
(-0.0197705 0.0115345 -0.15935)
(-0.0762992 -0.0526844 -0.0629734)
(-0.00393909 -0.0296896 0.00402445)
(-0.0487223 -0.0141104 -0.179299)
(-0.0512005 -0.00963798 -0.163464)
(-0.00837052 -0.0285646 -0.0683766)
(-0.018568 -0.0103532 -0.15999)
(-0.0276307 -0.0164575 -0.177856)
(-0.0461944 -0.0266397 -0.23087)
(-0.0363527 -0.0174094 -0.237034)
(0.104512 -0.00103346 -0.57453)
(0.165828 0.011305 -0.760138)
(0.0594492 -0.0978201 -0.448637)
(0.121939 -0.0759058 -0.546279)
(-0.0594361 -0.0244452 0.0938971)
(-0.0717446 -0.0376004 0.260276)
(-0.097159 -0.00726722 0.0248339)
(-0.111425 -0.042134 0.109328)
(-0.173465 -0.0639795 0.0715609)
(-0.123654 -0.0258396 0.103825)
(-0.146666 -0.0908794 0.236064)
(-0.186143 -0.108147 0.141603)
(-0.158739 -0.0809133 0.00512884)
(-0.113103 -0.0705695 -0.00963671)
(-0.103529 -0.0267264 0.0388762)
(-0.139434 -0.080206 0.0433427)
(-0.0821788 -0.0480146 0.0119396)
(-0.0915015 -0.0580852 -0.00371624)
(-0.0573915 -0.0363329 0.0184381)
(0.0029169 -0.0203633 -0.0240083)
(0.00639728 -0.0255593 0.000347928)