/*--------------------------------*- C++ -*----------------------------------*\
| =========                 |                                                 |
| \\      /  F ield         | OpenFOAM: The Open Source CFD Toolbox           |
|  \\    /   O peration     | Version:  5.x                                   |
|   \\  /    A nd           | Web:      www.OpenFOAM.org                      |
|    \\/     M anipulation  |                                                 |
\*---------------------------------------------------------------------------*/
FoamFile
{
    version     2.0;
    format      ascii;
    class       volScalarField;
    location    "7";
    object      p;
}
// * * * * * * * * * * * * * * * * * * * * * * * * * * * * * * * * * * * * * //

dimensions      [0 2 -2 0 0 0 0];

internalField   nonuniform List<scalar> 
10571
(
137.197
143.201
139.615
139.492
139.077
143.843
140.614
139.034
137.22
135.265
151.678
142.793
141.525
138.904
135.05
133.507
158.954
140.957
138.164
133.986
132.004
144.024
137.923
133.861
135.089
132.245
132.848
134.892
135.124
133.985
131.734
130.194
129.149
131.237
139.34
138.062
137.439
131.525
127.01
128.467
137.217
138.157
132.323
131.081
128.006
138.029
136.997
130.342
84.1957
86.654
97.6297
89.2648
82.6302
119.055
72.2912
32.4372
38.0401
85.6244
114.556
125.357
92.2306
48.1395
58.2993
103.546
100.763
99.7707
96.4497
117.854
120.294
104.985
99.3564
119.286
6.4992
6.22978
5.87583
6.46205
8.26146
19.6992
6.21751
5.21891
5.65881
17.833
50.4404
67.6769
8.58883
5.60951
3.95231
8.03858
43.8686
13.2481
7.25697
9.13854
18.7024
35.65
8.62449
9.01015
6.96321
6.94207
6.9985
7.00354
7.25859
6.77685
6.56106
7.23024
7.31725
7.21507
6.76508
7.02569
6.1753
6.98635
6.92478
7.26984
6.54121
6.44816
6.3337
7.13083
7.22521
6.75935
6.89623
7.21945
6.96313
6.93691
6.95466
6.96682
7.08661
6.93317
7.16009
7.13647
7.08466
6.97488
6.90909
6.91116
6.93924
7.17895
7.23298
7.23932
6.83383
6.92022
6.9582
6.92533
7.23885
6.72888
6.84411
6.89683
6.87018
6.90482
6.95269
6.95159
6.94958
6.96467
7.00868
6.95269
6.9617
7.0611
7.02327
6.94368
6.90871
6.9374
6.96209
6.99807
7.01169
6.9804
6.85832
6.88971
6.94239
6.9902
7.02364
6.87003
7.02996
6.89754
6.97792
7.01299
7.00912
6.91796
6.92574
6.91327
6.93929
6.94351
6.95502
6.93965
6.98134
6.92021
6.89718
6.90161
6.98333
6.98557
6.92576
6.92451
6.97171
6.78635
6.86104
6.97743
6.97462
6.94287
6.97694
7.0341
6.88876
7.03586
7.0508
7.03082
6.87798
6.89974
6.85967
6.89066
6.93248
6.94946
6.94596
6.91519
6.87436
6.88585
6.90548
6.99128
6.99429
6.92329
6.87909
7.01629
6.81641
6.87007
6.97035
6.98244
6.92473
6.97725
6.98182
7.03898
7.01494
6.99216
6.84288
6.85406
6.77269
6.8398
6.92225
6.93058
6.90815
6.87576
6.92135
6.9399
6.99323
6.98374
6.90005
6.88347
7.0393
6.95251
6.96315
6.99021
6.90919
6.95377
6.96867
7.03367
6.95369
6.87175
6.82908
6.83022
6.7237
6.80563
6.91082
6.91481
6.85835
6.85338
6.92587
6.94371
6.99668
6.95012
6.89384
6.87328
7.00598
6.97757
6.99103
6.98887
6.86097
6.95013
7.00873
7.04142
6.90975
6.85506
6.84039
6.8415
6.73567
6.79788
6.90334
6.90377
6.82969
6.81261
6.88652
6.9185
6.98903
6.92071
6.90625
6.81899
6.90288
6.93878
7.02069
6.99187
6.80399
6.86648
6.91954
7.08024
6.96264
6.82761
6.86832
6.88359
6.78563
6.81144
6.90522
6.89191
6.79452
6.76337
6.83784
6.89109
6.98318
6.8984
6.89695
6.79818
6.83272
6.8941
7.04662
6.99303
6.82274
6.7986
6.86337
7.09948
7.07414
6.8685
6.90517
6.92027
6.84167
6.84779
6.92329
6.86954
6.77989
6.77474
6.82957
6.88366
6.97899
6.91824
6.8953
6.85453
6.83959
6.88048
7.00425
6.97939
6.87871
6.81314
6.86879
6.98802
7.0206
6.94288
6.946
6.96393
6.88642
6.88806
6.95558
6.90327
6.8312
6.84549
6.85818
6.90719
6.93491
6.89884
6.89916
6.92399
6.88912
6.90577
6.95018
7.00659
6.93273
6.90922
6.91507
6.95982
6.97215
6.96855
6.98891
7.00815
6.94494
6.93722
6.99647
6.96492
6.89998
6.92493
6.909
6.95395
6.92717
6.89833
6.90995
6.96004
6.93774
6.94891
6.91443
7.03822
6.96778
6.98695
6.9645
6.98527
6.98439
7.0054
7.0328
7.02874
7.0084
6.99224
7.03715
6.97505
6.97293
6.98917
6.96536
7.0075
6.92112
6.87909
6.94301
7.00531
6.98285
6.99364
6.90339
7.02261
6.9949
7.02386
7.00506
7.02409
7.01809
7.03008
7.07123
7.06088
7.0569
7.04004
7.07006
7.00887
7.02389
7.02465
7.01975
7.05666
6.99083
6.95371
6.99284
7.04599
7.03361
7.04035
6.93531
7.01002
7.03277
7.05005
7.04679
7.02904
7.01106
7.05701
7.09877
7.08802
7.08804
7.07712
7.09962
7.05484
7.05666
7.05039
7.06668
7.09947
7.05024
7.05228
7.02791
7.07464
7.08131
7.08445
6.99513
6.99719
7.06373
7.08722
7.09032
7.02491
7.01325
7.089
7.11809
7.10269
7.09454
7.10868
7.12567
7.09225
7.07544
7.08183
7.1004
7.13156
7.09564
7.09147
7.06934
7.11443
7.12088
7.11325
7.0553
7.00282
7.08237
7.12347
7.1257
7.03743
7.04
7.1288
7.13932
7.11125
7.09814
7.1336
7.14816
7.10182
7.10483
7.11948
7.11549
7.14891
7.12533
7.10865
7.12733
7.13664
7.14569
7.12215
7.09481
7.04187
7.11649
7.16259
7.14711
7.05683
7.08156
7.1829
7.16171
7.13643
7.13578
7.15332
7.16622
7.12979
7.141
7.15062
7.13162
7.14466
7.15152
7.13109
7.15609
7.14919
7.15177
7.13222
7.11478
7.08987
7.14297
7.15893
7.15507
7.09048
7.11678
7.15895
7.17427
7.16298
7.15761
7.16518
7.17427
7.15345
7.16797
7.15076
7.13953
7.12386
7.16763
7.1477
7.15644
7.14588
7.13814
7.13747
7.12302
7.11397
7.14358
7.14814
7.14928
7.11514
7.13759
7.1497
7.17289
7.17198
7.16783
7.16346
7.17089
7.15817
7.1643
7.13912
7.14086
7.11628
7.15955
7.14651
7.145
7.13374
7.12812
7.13579
7.12008
7.11601
7.14118
7.13934
7.14126
7.11482
7.14976
7.14193
7.16222
7.16856
7.16296
7.15286
7.16146
7.15505
7.15163
7.13606
7.13927
7.13711
7.14095
7.12402
7.13758
7.12705
7.12925
7.1365
7.11851
7.13126
7.1342
7.13174
7.13698
7.14478
7.13693
7.13828
7.14888
7.1564
7.15387
7.14014
7.15325
7.14406
7.14123
7.13662
7.13696
7.15995
7.12506
7.09914
7.14251
7.12764
7.13366
7.14051
7.1241
7.14354
7.13062
7.12801
7.13539
7.20214
7.1249
7.13525
7.1387
7.14034
7.14189
7.13088
7.14708
7.12639
7.12966
7.1318
7.1399
7.15341
7.12342
7.09961
7.14915
7.13148
7.13304
7.13969
7.1374
7.15604
7.13344
7.12807
7.13388
7.23826
7.115
7.12527
7.13369
7.12618
7.1321
7.12819
7.13782
7.10771
7.12578
7.12577
7.13955
7.14206
7.14861
7.12286
7.1518
7.13306
7.12945
7.13808
7.14796
7.15536
7.13546
7.13147
7.13222
7.19488
7.11422
7.1119
7.13158
7.12524
7.12639
7.12839
7.13391
7.10328
7.12424
7.13052
7.14032
7.13511
7.14997
7.13075
7.15137
7.13356
7.12919
7.13893
7.15532
7.1539
7.13258
7.14018
7.13173
7.16895
7.12328
7.11314
7.13324
7.13315
7.12683
7.13255
7.13878
7.11642
7.12616
7.13891
7.14485
7.13487
7.15028
7.13573
7.15088
7.14205
7.13623
7.14387
7.16162
7.15829
7.1319
7.14607
7.13718
7.17738
7.11302
7.13564
7.13797
7.14338
7.13191
7.1387
7.14683
7.13756
7.12542
7.14861
7.14088
7.14023
7.15404
7.13983
7.15422
7.15352
7.14634
7.15146
7.16622
7.15279
7.13248
7.15026
7.14829
7.17222
7.13595
7.15569
7.1428
7.15379
7.13763
7.14491
7.15383
7.15617
7.12562
7.15293
7.14249
7.15366
7.14455
7.1419
7.15712
7.16242
7.15783
7.15906
7.16679
7.14684
7.12902
7.15102
7.16128
7.16397
7.13611
7.15541
7.14647
7.16608
7.14592
7.1444
7.15475
7.17265
7.12714
7.13913
7.14985
7.16703
7.12196
7.12182
7.15036
7.16655
7.16987
7.16495
7.15057
7.1408
7.11714
7.15453
7.17371
7.15205
7.11446
7.15428
7.14504
7.16792
7.15226
7.12548
7.14431
7.15429
7.11731
7.12649
7.14994
7.16529
7.09663
7.087
7.13516
7.16631
7.17909
7.17219
7.11635
7.11635
7.08706
7.16431
7.18656
7.13355
7.08047
7.14504
7.15498
7.1789
7.16835
7.12391
7.12724
7.15153
7.13352
7.14589
7.14969
7.16529
7.08782
7.07768
7.12227
7.16379
7.18533
7.1819
7.08123
7.08216
7.09518
7.18901
7.19923
7.10392
7.07546
7.16548
7.1725
7.18936
7.20117
7.13572
7.12306
7.16697
7.16076
7.16767
7.14643
7.16425
7.10838
7.09419
7.1249
7.16483
7.18861
7.19505
7.07116
7.08925
7.15092
7.20744
7.20778
7.10891
7.14665
7.24386
7.21086
7.21212
7.22638
7.19332
7.13846
7.18365
7.17404
7.1811
7.14255
7.16697
7.14458
7.12543
7.13823
7.16806
7.19412
7.20546
7.0906
7.0884
7.16211
7.19739
7.20927
7.12426
7.17769
7.20998
7.20856
7.2098
7.21432
7.19764
7.16762
7.19499
7.18344
7.18601
7.15065
7.18379
7.18337
7.16605
7.16162
7.17478
7.19855
7.21341
7.14604
7.11416
7.16522
7.19033
7.20666
7.13161
7.15302
7.18907
7.20917
7.20738
7.20503
7.18018
7.20375
7.20143
7.19141
7.19461
7.17543
7.20178
7.20747
7.19419
7.18112
7.18387
7.19662
7.21276
7.22091
7.17988
7.17867
7.18934
7.2023
7.18304
7.15826
7.18661
7.20352
7.20744
7.20294
7.18393
7.22188
7.20451
7.19418
7.19082
7.17798
7.19385
7.21495
7.20593
7.18995
7.18503
7.19335
7.20224
7.23755
7.20472
7.18085
7.19303
7.19639
7.22546
7.18183
7.19082
7.19654
7.20913
7.20347
7.18121
7.20524
7.2063
7.19287
7.18347
7.17458
7.17049
7.21192
7.20188
7.19286
7.17809
7.18185
7.19324
7.2102
7.20269
7.17935
7.1932
7.19247
7.24713
7.19447
7.19539
7.19426
7.21241
7.2048
7.18487
7.19127
7.20795
7.19318
7.1842
7.1839
7.1759
7.20848
7.19487
7.19129
7.17864
7.18473
7.19292
7.20121
7.20442
7.18703
7.19689
7.1951
7.23845
7.19813
7.20152
7.19912
7.21804
7.20649
7.19355
7.19869
7.21003
7.19628
7.19369
7.19813
7.19674
7.2047
7.19365
7.19139
7.18843
7.19378
7.19848
7.20647
7.20122
7.1959
7.20712
7.20315
7.19696
7.19805
7.21033
7.20673
7.21669
7.20511
7.20308
7.21535
7.20844
7.19898
7.20748
7.21533
7.21288
7.20366
7.19941
7.19437
7.19769
7.20259
7.20596
7.20879
7.21275
7.20918
7.22262
7.21446
7.20729
7.2223
7.22529
7.21492
7.20943
7.19985
7.21278
7.22801
7.20331
7.21055
7.21781
7.22277
7.22189
7.20766
7.204
7.19805
7.19864
7.2096
7.21429
7.21
7.22261
7.21781
7.22438
7.22211
7.23451
7.23756
7.23375
7.22
7.20826
7.2028
7.21747
7.2297
7.20914
7.22775
7.22251
7.21881
7.22499
7.21655
7.20948
7.20866
7.19853
7.20474
7.21582
7.215
7.22047
7.21289
7.21226
7.21349
7.23648
7.23322
7.22728
7.22091
7.22556
7.21353
7.21584
7.22532
7.21799
7.22994
7.22209
7.21709
7.22485
7.22756
7.21692
7.2136
7.2025
7.20192
7.21312
7.21839
7.21357
7.20616
7.19996
7.19933
7.23101
7.22505
7.21741
7.21555
7.19959
7.20248
7.20944
7.21999
7.21205
7.21629
7.22385
7.21534
7.22259
7.22845
7.21772
7.21279
7.21269
7.20535
7.2124
7.2127
7.20749
7.20348
7.19719
7.19812
7.22216
7.2199
7.21327
7.20738
7.17127
7.18146
7.20142
7.21594
7.19835
7.19928
7.22465
7.21173
7.22846
7.21377
7.20705
7.20902
7.22461
7.21131
7.22133
7.1963
7.20107
7.20752
7.20205
7.21428
7.21357
7.21843
7.21389
7.20173
7.16236
7.16491
7.19736
7.21289
7.1872
7.18435
7.22405
7.21098
7.22494
7.19735
7.19376
7.20226
7.23468
7.2137
7.22384
7.18445
7.19461
7.21301
7.20636
7.21798
7.20725
7.21956
7.21698
7.19713
7.16931
7.16062
7.19156
7.2083
7.18333
7.17344
7.21845
7.21423
7.22073
7.18853
7.18622
7.1976
7.23427
7.22025
7.22303
7.17899
7.19053
7.21452
7.21073
7.21906
7.20119
7.21663
7.21904
7.19306
7.18649
7.1644
7.18288
7.20213
7.18862
7.16725
7.20723
7.21621
7.21729
7.18718
7.18487
7.19545
7.22398
7.2313
7.22349
7.17833
7.18708
7.21148
7.21317
7.2213
7.19656
7.21042
7.21989
7.18903
7.2042
7.17379
7.17277
7.19519
7.19872
7.16708
7.19343
7.21238
7.2126
7.19112
7.18834
7.19295
7.21159
7.23528
7.22146
7.1806
7.18393
7.20541
7.21081
7.21979
7.19327
7.20414
7.21804
7.18765
7.21717
7.18638
7.16728
7.18755
7.2091
7.17439
7.18076
7.20385
7.20552
7.19849
7.19498
7.19205
7.2006
7.22461
7.2135
7.18701
7.18149
7.19686
7.20946
7.2159
7.19157
7.19841
7.21305
7.19225
7.22339
7.19754
7.17336
7.18191
7.21798
7.1844
7.17509
7.19125
7.19663
7.20723
7.20341
7.19364
7.19209
7.20489
7.20167
7.197
7.18326
7.18956
7.20436
7.20742
7.19215
7.19391
7.20577
7.20012
7.22881
7.20884
7.18511
7.18068
7.22451
7.19434
7.17302
7.17801
7.18607
7.21563
7.21113
7.19691
7.18545
7.18413
7.18554
7.20617
7.18912
7.18426
7.19407
7.19437
7.1955
7.19153
7.19771
7.20803
7.234
7.21999
7.19512
7.1821
7.22998
7.20284
7.17341
7.16677
7.16961
7.22341
7.21774
7.20128
7.18165
7.16943
7.16598
7.21431
7.19836
7.18075
7.18064
7.17841
7.20382
7.19111
7.18995
7.21226
7.23895
7.22729
7.20011
7.18158
7.23562
7.21045
7.17411
7.15211
7.14879
7.23132
7.22418
7.20585
7.17857
7.1548
7.14312
7.22274
7.20626
7.18018
7.16507
7.15985
7.20959
7.19281
7.1831
7.21844
7.2458
7.23411
7.20509
7.17651
7.2428
7.21907
7.17449
7.12811
7.11493
7.24072
7.23231
7.21274
7.1788
7.13224
7.1048
7.23242
7.21525
7.18508
7.15022
7.13306
7.21671
7.19306
7.1765
7.22707
7.25554
7.24334
7.21533
7.17299
7.25257
7.23076
7.17845
7.09267
7.04622
7.25294
7.24351
7.22075
7.17934
7.09207
7.02512
7.24515
7.22684
7.19275
7.13511
7.07866
7.22931
7.19839
7.17065
7.2412
7.26805
7.25529
7.23396
7.16906
7.26576
7.24151
7.18494
7.03982
6.89491
7.26906
7.25848
7.23124
7.17835
7.01946
6.80206
7.2625
7.24545
7.19826
7.1127
6.97805
7.24765
7.21413
7.16933
7.25679
7.28431
7.27046
7.24645
7.16843
7.28348
7.25528
7.18454
6.96843
6.49588
7.28972
7.27813
7.24704
7.16507
6.93199
6.34768
7.2847
7.27489
7.22285
7.09747
6.7756
7.27428
7.23815
7.18685
7.27927
7.30546
7.29003
7.26753
7.1854
7.3069
7.27684
7.18171
6.9218
5.50513
7.31417
7.30222
7.27296
7.14572
6.8697
5.73493
-4.46942
7.31182
7.3115
7.2688
7.09835
6.3487
7.30947
7.27835
7.22318
7.31099
7.3312
7.31827
7.29742
7.21657
7.3354
7.30251
7.22937
6.9416
5.05699
0.0430036
7.34215
7.32963
7.30132
7.21901
6.90183
5.61591
0.371837
7.34102
7.3504
7.32136
7.16165
5.96751
7.35375
7.33478
7.28091
7.3522
7.35721
7.34217
7.33148
7.27733
7.36597
7.33569
7.285
7.09053
5.75698
1.51449
7.37423
7.36052
7.33845
7.27362
7.03282
5.70344
1.7717
7.3667
7.38402
7.37699
7.249
6.36092
2.03969
7.39702
7.3963
7.35288
7.38043
7.38211
7.36591
7.36057
7.32624
7.39958
7.36566
7.29437
7.17004
6.06419
1.69041
7.40958
7.39328
7.35313
7.29942
7.16898
6.0632
1.50055
7.38988
7.38672
7.40197
7.29999
6.66288
7.44133
7.44056
7.40855
7.40144
7.41819
7.39563
7.38039
7.3697
7.43887
7.39322
7.33279
7.26299
6.59391
7.44943
7.42917
7.36339
7.33925
7.26092
6.49432
-2.06276
7.41011
7.36182
7.42844
7.34942
7.22201
7.44577
7.46311
7.45183
7.41262
7.4388
7.42024
7.39342
7.3889
7.46463
7.40771
7.39274
7.34296
7.23706
7.47352
7.45527
7.39892
7.3923
7.32733
7.19413
7.44071
7.39012
7.41462
7.37734
7.39696
7.44163
7.44648
7.46108
7.41588
7.44849
7.43449
7.39421
7.39468
7.44199
7.39444
7.3873
7.38554
7.40723
7.46318
7.44692
7.40662
7.39763
7.36942
7.38719
7.44366
7.39434
7.39893
7.36974
7.42089
7.43687
7.42925
7.4445
7.41539
7.45919
7.42206
7.38543
7.39447
7.43099
7.37903
7.3943
7.40581
7.45255
7.44427
7.42566
7.38468
7.40453
7.38647
7.43028
7.42932
7.3818
7.40093
7.38623
7.42805
7.42634
7.41962
7.43282
7.37758
7.4331
7.40127
7.36024
7.389
7.42036
7.37329
7.39001
7.41357
7.45711
7.43228
7.41491
7.38449
7.39318
7.39081
7.43487
7.41645
7.37098
7.38626
7.3844
7.41953
7.41512
7.40843
7.41539
7.36387
7.43046
7.40178
7.35698
7.38817
7.42127
7.39087
7.39968
7.42129
7.45582
7.42683
7.41182
7.38342
7.3923
7.40206
7.43899
7.40636
7.36514
7.38111
7.38988
7.42323
7.39932
7.39902
7.40925
7.40077
7.44033
7.41864
7.3832
7.40739
7.4296
7.40231
7.41034
7.43248
7.45704
7.42652
7.41169
7.38096
7.40193
7.40978
7.44306
7.39605
7.35636
7.38166
7.39834
7.43253
7.3803
7.3936
7.41084
7.43714
7.45246
7.43571
7.41783
7.43612
7.43989
7.41979
7.41384
7.43307
7.4576
7.43017
7.41728
7.39651
7.39981
7.42303
7.44944
7.39128
7.37087
7.39125
7.41307
7.44431
7.37092
7.39965
7.42365
7.44612
7.45719
7.44152
7.428
7.44254
7.44497
7.42503
7.4189
7.43585
7.46256
7.43645
7.42354
7.40329
7.40667
7.42665
7.45806
7.39686
7.38209
7.39996
7.4251
7.45896
7.38221
7.41461
7.44057
152.11
147.946
148.125
153.424
146.108
148.785
154.692
158.187
167.981
161.601
155.977
162.834
149.929
148.469
145.831
147.518
146.089
146.788
152.597
146.225
148.266
162.957
166.884
148.92
163.318
164.905
176.885
167.345
175.639
163.741
152.583
162.514
148.726
146.928
144.306
143.555
142.094
143.331
144.078
141.324
142.203
143.26
148.228
140.895
141.615
148.356
142.787
145.671
172.567
187.576
194.365
158.473
146.06
171.414
147.031
143.817
142.669
143.098
141.659
141.104
141.64
139.962
139.189
139.617
139.375
137.403
136.578
140.707
145.191
138.991
191.092
202.794
159.942
204.375
198.822
144.555
142.392
149.918
142.169
140.268
139.209
140.277
138.649
137.33
135.478
136.619
136.372
135.68
198.751
182.681
152.867
162.894
148.734
150.122
161.434
143.474
139.599
137.397
136.191
138.234
138.721
136.889
136.418
136.903
139.228
138.812
137.64
137.88
137.644
137.925
137.476
147.034
140.79
140.841
144.722
142.184
138.445
137.581
138.551
137.908
138.578
138.568
137.823
137.385
136.715
137.525
136.54
136.283
135.96
149.187
149.486
152.128
140.77
147.567
143.096
135.54
133.48
135.192
134.13
133.087
155.518
161.044
153.829
146.827
152.484
132.041
132.162
132.119
131.512
130.592
163.389
158.59
143.311
166.361
149.301
148.195
144.006
148.684
141.475
132.365
132.642
132.426
132.834
131.92
132.463
131.9
131.216
156.372
142.715
139.68
140.54
140.554
140.407
140.525
136.495
138.826
138.381
135.96
137.989
133.262
132.379
121.166
133.983
132.926
133.657
123.331
124.222
122.61
135.207
135.592
122.531
121.175
120.675
135.413
119.886
134.099
124.932
132.183
133.166
133.73
121.014
122.906
126.167
128.515
135.078
135.697
135.101
117.305
117.001
118.833
115.545
132.919
114.404
135.703
137.125
136.014
128.923
131.229
131.03
130.448
129.529
117.453
121.293
120.701
138.983
139.548
130.788
131.824
126.525
128.041
126.102
122.929
121.527
123.129
138.762
121.575
140.34
134.612
135.136
122.23
128.398
118.072
120.51
129.045
129.428
128.683
129.019
125.948
126.828
125.811
124.513
135.879
121.443
140.352
138.953
129.495
136.846
132.528
133.752
136.114
129.955
127.317
127.514
127.317
90.9471
13.8642
90.1339
96.2485
90.92
20.3738
15.8503
18.9257
83.8219
83.8516
25.362
26.7709
36.2344
83.873
42.2115
97.8602
46.5198
95.4155
99.7373
107.657
14.9767
17.0579
36.3726
39.7536
81.5481
80.3616
80.5658
43.9878
46.0406
38.5083
45.6284
81.4951
48.7952
111.439
117.983
120.569
74.1159
91.4105
96.5862
91.1804
94.5621
51.5988
47.6159
54.2669
117.201
106.932
87.4541
90.3613
79.6161
100.192
116.581
57.6139
58.1846
87.1493
100.145
73.4001
105.5
95.8379
98.4675
73.7003
77.3062
69.5915
71.7039
121.219
125.048
122.568
74.742
96.9196
110.02
110.75
101.466
98.8664
70.2344
110.146
106.642
72.221
66.7103
62.9478
105.05
97.9916
51.1421
54.5072
51.9764
79.8808
5.94237
6.90193
5.87297
5.21276
5.71857
6.88914
6.99546
6.93146
6.47501
7.19325
6.76031
6.72266
6.54838
8.09243
6.43295
9.09496
6.3009
6.05519
7.25686
7.26549
6.70484
6.751
6.38678
6.31563
12.0741
7.13596
11.0588
6.34521
6.22616
6.436
6.12981
17.3491
6.4328
22.9236
49.9371
51.8464
6.82283
10.0173
9.1307
9.69104
10.961
6.4901
5.95618
5.88871
53.133
47.4531
12.5558
13.9443
15.6533
9.6291
12.1768
5.08382
4.88487
4.38806
43.4378
15.4391
44.98
40.2812
41.4972
15.8521
16.7243
12.4514
13.3044
14.6913
14.8193
21.2405
4.18313
4.23644
4.60264
4.0991
4.02798
38.1931
8.79297
20.7792
14.4315
8.03917
6.94145
6.40064
7.89451
8.73439
5.46779
5.36841
5.57286
4.98516
6.90545
6.91882
6.97371
7.02839
6.98991
6.89976
6.9457
6.90355
6.98516
7.12584
6.8648
6.87562
6.83172
7.20769
6.75596
6.99012
7.03003
6.89786
7.04118
7.10532
6.92688
6.9091
6.9853
7.00781
7.37054
7.17731
7.37244
6.74013
6.68719
6.74592
6.67828
7.32567
6.76574
6.69077
6.54074
6.52402
6.95747
6.93769
6.95511
7.36461
7.38087
6.79849
6.75424
6.7068
6.98246
7.11915
6.75284
6.71005
6.67219
7.32516
7.50966
6.76275
6.74151
7.10447
6.60555
6.70535
6.95205
6.61616
6.90625
6.67877
6.7269
6.69995
6.76165
7.25128
7.29821
7.13118
6.81217
6.9979
7.01141
7.2518
7.18845
6.71424
6.8258
6.71949
6.71622
6.83983
6.80523
6.81127
7.12811
6.86965
6.83365
6.89222
6.78376
6.9368
6.94176
6.9453
6.95127
6.95896
6.94875
6.95323
6.96456
6.9517
6.96056
7.0047
6.94585
6.9435
6.92683
7.07014
6.89103
6.96477
6.95396
6.93614
6.9496
6.9514
6.96155
6.94244
6.95868
6.93764
7.10283
7.06362
7.0791
6.88273
6.88546
6.87644
6.89304
7.0612
6.89088
6.92302
6.96946
6.95575
6.92226
6.94411
6.94087
6.94258
7.00744
6.91197
6.9254
6.92864
6.83569
6.90239
6.92434
6.91568
6.90877
6.90711
6.92308
6.88653
6.91955
6.88579
6.93679
6.92263
6.91543
6.93845
6.97351
6.89875
6.79257
6.82191
6.84271
6.90985
6.82736
6.90575
6.86842
6.88663
6.86248
6.89658
6.86817
6.88948
6.95137
6.93827
6.9638
6.94331
6.94939
6.94512
6.95154
6.95828
6.93473
6.87168
6.95857
7.06403
6.79336
6.9516
7.00399
7.09681
6.85679
6.93595
6.94813
6.83986
6.8536
6.92851
6.88973
6.89949
6.89184
6.83768
6.95468
6.95103
6.96055
6.96636
6.93056
6.90847
6.9446
6.93803
6.9393
6.9229
6.90129
6.91264
6.95112
6.96941
6.93787
6.93493
6.94327
6.99856
6.94214
6.95177
6.94033
6.93029
6.95427
6.92728
6.93653
6.9149
6.93944
6.9184
7.00208
7.00517
6.99003
6.9452
6.9485
6.9403
6.96343
6.96311
6.93519
6.93685
6.9312
6.91386
6.91969
6.91285
6.9169
6.94013
6.95093
6.95183
6.94897
6.96229
6.96317
6.92627
6.92679
6.90374
6.92957
6.91987
6.86384
6.88939
6.91876
6.89652
6.90774
6.90364
6.91546
6.88561
6.90418
6.93876
6.94457
6.96638
6.96251
6.95723
6.88549
6.90048
6.86821
6.83754
6.87439
6.88259
6.87447
6.89604
6.8889
6.89234
6.86772
6.89376
6.87688
6.89231
6.92824
6.94385
6.95901
6.96053
6.96117
6.96098
6.98897
6.97177
6.98497
7.003
7.02095
7.09194
6.93745
7.00766
7.02109
7.05353
6.95028
7.07297
6.9906
6.89921
6.89734
6.90045
6.9675
7.00171
6.94878
6.94843
7.01731
7.00634
6.99701
6.97822
7.02918
7.04697
6.9822
7.06943
7.02487
6.88695
6.8682
6.89173
6.87082
6.88262
6.8631
6.8474
6.855
6.91755
6.92888
6.89831
6.90011
6.9112
6.93746
6.92773
6.92953
6.93806
6.90201
6.92825
6.91697
6.91555
6.89081
6.92229
6.91846
6.94587
6.94527
6.9551
6.938
6.93975
6.93816
6.94326
6.92629
6.92524
6.92214
6.9297
6.91092
6.91668
6.91107
6.91588
6.95559
6.97192
6.97047
6.96306
6.97833
6.97605
6.90775
6.83778
6.87313
6.88055
6.90792
6.801
6.85364
6.91503
6.88046
6.90167
6.9026
6.91686
6.87695
6.90339
6.97821
6.96812
6.98808
6.98773
6.98276
6.8554
6.87555
6.85996
6.77485
6.85454
6.87487
6.87926
6.89166
6.85471
6.88866
6.8536
6.89922
6.86755
6.90641
6.9762
6.98761
7.01082
6.98084
6.99481
6.97762
7.01772
6.98283
7.00144
7.01621
7.01248
7.04102
6.98384
7.01636
6.99607
7.03134
7.00695
6.98791
7.03714
6.89309
6.89465
6.90528
7.02088
7.02593
7.04738
7.02588
7.04145
7.06264
7.03226
6.96765
7.08113
7.03567
6.95061
7.07278
7.02736
6.84922
6.82489
6.83653
6.82105
6.83019
6.81166
6.78987
6.806
6.88017
6.89349
6.86099
6.86122
6.87793
6.91845
6.90994
6.94232
6.93443
6.87399
6.91586
6.91653
6.87634
6.85029
6.90697
6.90731
6.93324
6.93483
6.93611
6.92669
6.92723
6.93137
6.93366
6.92408
6.93336
6.9675
6.98304
6.98111
6.96351
6.98673
6.98277
6.91771
6.81472
6.8847
6.90231
6.94372
6.87258
6.92316
6.92139
6.88518
6.91397
6.91116
6.92266
6.9043
6.91711
6.99287
6.98463
6.99419
6.99855
6.98487
6.88605
6.91629
6.97519
6.88719
6.94377
6.957
7.01002
6.91434
6.88543
6.90811
6.89691
6.93224
6.89907
6.91693
6.97594
6.9703
7.00835
6.98624
6.99932
6.96417
6.99893
6.99148
7.00673
7.00682
6.97512
7.01003
6.96463
6.99376
6.94175
6.97969
6.95181
7.02383
7.02262
7.05024
7.03405
7.03563
7.02479
7.02104
6.92801
7.04367
6.98747
6.90448
7.0009
6.93005
6.79524
6.78459
6.79435
6.75843
6.78624
6.78739
6.74371
6.77496
6.84419
6.86464
6.83275
6.83259
6.85553
6.9031
6.89749
6.92634
6.92079
6.82447
6.89712
6.88708
6.83809
6.80047
6.88421
6.85425
6.92561
6.93069
6.93596
6.91628
6.92329
6.93077
6.93993
6.9491
6.95047
6.95926
6.98568
6.98382
6.95663
6.98363
6.98341
6.91898
6.95897
6.94592
6.93402
6.94988
7.00022
6.98057
6.99198
6.99955
6.97236
7.01721
7.0081
6.98013
6.98947
7.0306
6.97315
6.98081
6.99259
6.99707
7.01189
6.971
6.99119
7.00344
7.01631
6.97652
6.90662
6.95352
6.9591
6.98663
6.88031
6.93822
7.00876
7.02098
7.02239
7.00079
7.007
7.0354
6.98214
6.98675
6.89342
6.98092
6.92003
6.88863
6.94995
6.85393
6.79489
6.81708
6.79351
6.75063
6.77684
6.80839
6.7696
6.78967
6.8261
6.84982
6.83184
6.82567
6.84765
6.89327
6.89181
6.91721
6.91721
6.78294
6.87238
6.82132
6.83131
6.77665
6.8644
6.79222
6.92167
6.92692
6.9359
6.90735
6.91982
6.92208
6.93224
6.94783
6.94071
6.95241
6.97958
6.9798
6.94891
6.9788
6.97088
6.94308
6.96071
6.93305
6.93532
6.94713
6.99372
6.96804
6.99517
6.97988
6.97039
6.98732
7.01745
6.96632
6.97479
6.98951
6.9945
7.00981
6.9945
7.01232
7.02539
7.00949
7.001
7.02053
7.04041
6.98044
6.8601
6.92368
6.9145
6.93925
6.83716
6.89626
6.96651
7.03193
7.048
6.97001
6.97001
7.05702
6.97545
6.97336
6.87877
6.89405
6.93118
6.85964
6.91725
6.85208
6.84089
6.86247
6.8291
6.79337
6.80857
6.85274
6.82005
6.8313
6.82976
6.84901
6.85261
6.83879
6.85498
6.89295
6.89766
6.91983
6.9229
6.78954
6.86099
6.7787
6.86056
6.81492
6.86555
6.78735
6.91515
6.90462
6.9202
6.9025
6.91233
6.89545
6.91157
6.92841
6.91798
6.94627
6.9779
6.96092
6.94324
6.97146
6.94888
6.92024
6.92962
6.90432
6.90274
6.91163
6.96392
6.97162
6.98231
6.94951
6.96865
6.94418
6.948
6.91478
6.92119
6.91075
7.02101
7.03105
7.01772
7.03076
7.05721
7.02929
7.04305
7.04567
7.07683
6.8943
6.80297
6.8547
6.82089
6.85809
6.77265
6.82456
6.8833
7.06639
7.1034
6.98935
6.99659
7.10444
7.01818
7.02397
6.85162
6.9615
7.03559
6.89771
7.0115
6.82332
6.88485
6.90545
6.87762
6.84882
6.85592
6.90082
6.87658
6.88062
6.85234
6.86523
6.88596
6.86936
6.87966
6.90598
6.91739
6.92539
6.92779
6.84087
6.87266
6.80047
6.90368
6.86243
6.87858
6.81175
6.91057
6.88501
6.9032
6.91234
6.91321
6.88532
6.8997
6.90691
6.90155
6.93646
6.96039
6.9302
6.92847
6.94707
6.91158
6.88728
6.89562
6.88333
6.87609
6.884
6.92873
6.9734
6.98902
6.91429
6.99557
6.90094
6.88615
6.87477
6.88318
6.86793
7.05264
7.05604
7.09124
7.05177
7.08666
7.03775
7.14243
7.0461
7.09726
6.84605
6.78074
6.81807
6.79403
6.84423
6.81626
6.83078
6.8579
7.13255
7.1263
7.05308
7.06023
7.06738
7.06682
7.07372
6.97919
7.05883
7.0614
7.05426
7.05248
6.92006
6.92305
6.94048
6.92118
6.90067
6.90338
6.93971
6.92213
6.92375
6.88865
6.89725
6.92553
6.90954
6.91778
6.93239
6.94945
6.93204
6.94139
6.87879
6.88424
6.82119
6.93949
6.8946
6.89879
6.83149
6.92009
6.8914
6.90263
6.93808
6.93194
6.90321
6.91096
6.90269
6.9092
6.92683
6.94836
6.91007
6.93759
6.95135
6.92342
6.87724
6.8851
6.89023
6.88157
6.88928
6.9212
6.99604
6.96502
6.91657
6.96273
6.89121
6.87549
6.88254
6.89126
6.88109
7.01179
6.96944
7.10497
7.02677
7.08411
6.96948
7.04246
6.98968
7.04333
6.85746
6.85053
6.85313
6.85781
6.87737
6.87863
6.87928
6.88578
7.07401
7.00639
7.0417
7.05913
6.94291
7.00795
7.03335
7.04044
7.02952
6.98692
7.01344
7.0039
6.9533
6.95922
6.9802
6.95796
6.94262
6.94299
6.97701
6.96507
6.96283
6.93069
6.93992
6.96702
6.95314
6.9637
6.96912
6.98864
6.95691
6.97035
6.91277
6.92156
6.84678
6.98807
6.93906
6.94756
6.87954
6.94671
6.91983
6.92384
6.97383
6.96274
6.93866
6.94014
6.92272
6.93713
6.95466
6.93609
6.92473
6.965
6.92939
6.92674
6.89982
6.90766
6.92306
6.91624
6.92407
6.90741
6.91522
6.93015
6.91908
6.8855
6.9182
6.90803
6.92098
6.93125
6.92655
6.94805
6.92949
6.99239
6.95248
6.99171
6.93073
6.94368
6.92764
6.95016
6.90814
6.9118
6.91065
6.95197
6.93572
6.93762
6.93848
6.93877
6.96728
6.94305
6.98585
7.01228
6.96813
6.97033
7.00384
6.99751
6.99079
6.9711
6.99627
6.99096
6.98738
7.0038
7.03073
6.99748
6.99177
6.98472
7.01899
7.01915
7.00812
6.97693
6.98821
7.01104
7.00055
7.01199
7.01024
7.02875
6.98067
6.986
6.96972
6.97316
6.92111
7.01735
6.99858
6.99382
6.96116
6.9837
6.95973
6.95727
7.01356
7.00026
6.97981
6.9768
6.96125
6.97927
6.96867
6.93456
6.93937
6.96868
6.94536
6.9466
6.94444
6.95072
6.97247
6.96243
6.97019
6.92009
6.8867
6.91513
6.90507
6.89124
6.96242
6.95594
6.96845
6.97996
6.97789
6.92176
6.92143
6.90958
6.91914
6.92079
6.90305
6.88235
6.91753
6.90761
6.96247
6.95701
6.96111
7.01014
6.98385
6.9728
6.9773
6.98515
6.94042
6.95359
6.97164
7.00815
7.0083
7.01426
7.03306
7.01235
6.99932
7.00222
7.02035
7.01417
7.01682
7.05799
7.07985
7.04104
7.04333
7.03199
7.06214
7.06249
7.05458
7.02307
7.03412
7.05315
7.04362
7.05385
7.04871
7.06456
6.99266
7.00713
7.02553
7.00655
6.99675
7.04395
7.05473
7.01939
7.03242
7.02395
7.00482
6.99662
7.05156
7.03925
7.02293
7.01849
7.01069
7.02467
6.97383
6.94929
6.94911
6.98662
6.96014
6.96022
6.99438
6.99974
7.0236
7.01049
7.01842
6.89862
6.90191
6.94412
6.9107
6.93353
7.01149
7.00093
7.01546
7.03014
7.02266
6.92948
6.94755
6.86585
6.92616
6.91484
6.91517
6.86147
6.94334
6.92741
7.00234
6.98587
6.99419
7.03695
7.01914
6.99542
7.01585
7.02454
6.96839
6.97545
7.05853
7.0689
7.03044
7.06307
7.08092
7.02922
7.03373
7.01739
7.03824
7.03561
7.04211
7.09888
7.10993
7.08002
7.0779
7.07356
7.0936
7.08837
7.08769
7.06211
7.07131
7.08651
7.07855
7.08673
7.08037
7.09456
7.029
7.05066
7.08398
7.03665
7.0684
7.07438
7.10235
7.05677
7.08851
7.06119
7.04491
7.04061
7.08515
7.07808
7.06381
7.06212
7.0567
7.07708
7.00698
6.98692
6.985
7.03254
7.01902
7.01837
7.03951
7.04768
7.07778
7.05983
7.06847
6.95633
6.97173
7.02404
7.00462
7.00358
7.06169
7.04458
7.06246
7.08327
7.06506
6.97267
6.99825
6.86568
6.96691
6.95429
6.96286
6.882
6.99239
6.97896
7.04338
7.01377
7.04596
7.06772
7.06805
7.04607
7.07683
7.06922
6.98511
6.99609
7.04759
7.06986
7.0231
7.02726
7.04673
7.04781
7.02979
7.00762
7.06067
7.01996
7.07215
7.11118
7.11039
7.10305
7.09537
7.09662
7.11066
7.10084
7.10275
7.09244
7.10017
7.10874
7.10419
7.1124
7.10745
7.11933
7.06758
7.08423
7.10883
7.07597
7.09977
7.09776
7.10998
7.09227
7.10604
7.09535
7.08122
7.08275
7.11297
7.11071
7.09614
7.10121
7.09852
7.11697
7.0575
7.05014
7.0503
7.07977
7.07171
7.07717
7.08155
7.09231
7.11713
7.10013
7.11274
7.04247
7.03231
7.07083
7.07191
7.06199
7.10914
7.08408
7.10231
7.1264
7.10038
7.02462
7.05163
6.92113
7.01783
7.00371
7.02702
6.97572
7.04173
7.02855
7.08962
7.07665
7.10132
7.10498
7.10832
7.10254
7.11946
7.10924
7.01231
7.02944
7.01542
7.03053
7.02911
7.00897
7.01909
7.07241
7.01834
7.02545
7.08521
7.02559
7.10305
7.11036
7.11243
7.119
7.10514
7.10983
7.12885
7.11065
7.1186
7.11442
7.12371
7.12827
7.12482
7.13456
7.13065
7.14155
7.09452
7.10406
7.10845
7.10136
7.11067
7.10562
7.10649
7.10309
7.11466
7.12568
7.10981
7.1183
7.13748
7.13997
7.12191
7.13466
7.13421
7.14844
7.10087
7.09338
7.09877
7.11131
7.10903
7.11153
7.11496
7.13078
7.14216
7.12502
7.13498
7.09685
7.08802
7.11428
7.1144
7.10812
7.13741
7.11335
7.11723
7.13655
7.12393
7.07723
7.09985
7.02387
7.06359
7.05066
7.07827
7.06182
7.08353
7.06996
7.12465
7.12572
7.13164
7.14754
7.1405
7.15527
7.14409
7.13899
7.04716
7.06269
7.0098
7.01526
7.04538
7.01505
7.01289
7.09438
7.03925
7.05591
7.1085
7.05147
7.16997
7.12041
7.13165
7.13931
7.12005
7.12867