/*--------------------------------*- C++ -*----------------------------------*\
| =========                 |                                                 |
| \\      /  F ield         | OpenFOAM: The Open Source CFD Toolbox           |
|  \\    /   O peration     | Version:  5.x                                   |
|   \\  /    A nd           | Web:      www.OpenFOAM.org                      |
|    \\/     M anipulation  |                                                 |
\*---------------------------------------------------------------------------*/
FoamFile
{
    version     2.0;
    format      ascii;
    class       surfaceScalarField;
    location    "7";
    object      phi;
}
// * * * * * * * * * * * * * * * * * * * * * * * * * * * * * * * * * * * * * //

dimensions      [0 3 -1 0 0 0 0];

internalField   nonuniform List<scalar> 
29271
(
-5.1195e-06
1.18498e-06
-4.76471e-07
4.42725e-06
-6.36197e-06
1.63297e-06
9.17203e-07
3.83302e-06
-1.63627e-05
-1.02795e-06
-1.79728e-06
4.99468e-07
1.01349e-06
1.7675e-05
-1.85971e-05
-1.08753e-06
1.105e-06
-1.60785e-06
2.39371e-06
1.77938e-05
-1.28122e-05
-5.6015e-07
-3.70629e-07
2.88964e-06
9.6696e-06
1.18376e-06
-1.59513e-05
-3.01489e-06
-3.53352e-06
1.99284e-06
3.13685e-06
1.737e-05
-1.68123e-05
-3.58026e-06
-2.08243e-06
1.59146e-06
3.58737e-06
1.72961e-05
-1.77421e-05
-4.04904e-06
-9.82791e-07
4.19758e-07
4.77456e-06
1.75796e-05
-1.88586e-05
-5.99777e-06
-9.11509e-07
3.3211e-07
5.79063e-06
1.96451e-05
-1.44952e-05
-1.48973e-06
3.10705e-06
1.2227e-05
6.66673e-07
-6.36966e-06
1.27569e-06
1.77769e-06
3.28788e-06
-1.84745e-05
-9.65363e-06
-1.60621e-06
9.29985e-06
-2.63018e-06
2.30647e-05
-1.67838e-05
1.04266e-07
-5.95603e-06
5.47998e-06
-4.42718e-07
1.75983e-05
-1.80351e-05
-3.09971e-06
-7.41964e-06
5.10801e-06
4.38018e-06
1.90663e-05
-1.74875e-05
-5.94226e-06
-4.58932e-06
2.85072e-06
5.07021e-06
2.00981e-05
-1.81082e-05
-4.81866e-06
-2.21301e-06
5.31152e-06
1.96362e-05
1.92138e-07
-1.35332e-05
-3.07672e-06
9.25042e-06
-1.00282e-06
4.01406e-06
4.34829e-06
-1.85532e-05
-1.23123e-05
-2.55309e-07
1.3337e-05
-1.28364e-06
1.90675e-05
-1.96898e-05
-2.82738e-06
-1.52871e-05
1.11998e-05
1.691e-06
2.49135e-05
-1.96581e-05
8.00419e-06
3.04032e-08
2.61915e-05
-3.41809e-06
-1.11499e-05
-6.86677e-06
-1.89677e-06
-1.89059e-06
1.06262e-05
-1.17682e-05
-1.95131e-06
3.41994e-06
4.90897e-06
5.38764e-06
-1.80656e-05
-2.77838e-06
1.10032e-06
-1.71877e-06
1.66465e-05
4.81597e-06
-4.37245e-06
2.47946e-06
-4.6124e-07
2.33537e-06
-3.89655e-06
1.05178e-06
-1.93914e-07
3.07674e-06
-2.98541e-06
-1.0643e-06
5.5648e-07
3.47621e-06
-1.4236e-06
1.67616e-06
-1.66384e-05
-2.51533e-06
2.92339e-06
1.59777e-05
-1.06915e-06
-1.52892e-05
1.81689e-06
-1.32592e-06
3.14384e-06
1.27236e-05
-7.18805e-06
-3.94121e-07
-6.57662e-08
7.47007e-07
6.54343e-06
3.57495e-07
-7.14018e-07
-1.53351e-06
-2.06843e-05
2.10704e-06
-6.01639e-07
2.14265e-05
-4.90182e-06
1.0786e-06
0.000101786
-1.94766e-05
-2.08683e-05
-2.56782e-05
-2.51107e-05
-2.19579e-06
-2.41994e-06
-1.20941e-06
-1.42165e-06
-8.83865e-07
-4.42739e-07
4.83218e-07
1.26165e-06
-5.51302e-06
5.15195e-06
7.58388e-05
-1.66046e-05
-1.54193e-05
-2.15891e-05
-1.72873e-05
-3.53684e-06
-2.58336e-06
-1.90087e-06
-1.45821e-06
-2.17806e-07
6.16725e-06
5.3583e-05
-1.47685e-06
-9.3483e-07
-6.80427e-07
-5.87233e-07
2.96219e-07
-1.02191e-07
-1.75402e-07
-1.62509e-05
-1.34107e-05
-1.70032e-05
-1.47199e-05
-1.1511e-05
-1.08152e-06
1.96628e-06
1.04623e-05
-1.46217e-06
8.37584e-09
1.75303e-07
1.19147e-06
8.96203e-07
-2.23571e-05
4.18426e-06
-1.30305e-06
-8.86302e-07
1.9466e-05
-1.58039e-06
3.68938e-06
5.74147e-05
-1.55153e-05
-1.06769e-05
-1.78664e-05
-1.36374e-05
-1.29497e-06
-1.6954e-06
1.4807e-06
7.60603e-07
-3.86121e-06
1.86563e-06
8.5329e-05
-1.84511e-05
-1.61636e-05
-2.56879e-05
-1.94592e-05
-6.47433e-07
-6.63332e-07
0.000109352
1.60461e-07
-4.9001e-08
1.40514e-06
4.10895e-07
1.10877e-06
7.96869e-07
-2.51615e-05
-2.54224e-05
-3.04954e-05
-2.84894e-05
-2.10486e-05
-3.06657e-06
-4.80872e-07
5.77505e-06
1.81736e-05
-2.5216e-06
-1.66372e-07
-5.95295e-07
4.15739e-07
3.96394e-06
-1.09641e-06
2.65802e-06
5.81475e-07
4.82712e-05
1.07735e-06
1.19267e-06
1.4281e-06
1.49753e-06
7.17127e-07
5.03381e-07
8.67951e-07
-1.31638e-05
-1.03077e-05
-1.47317e-05
-1.69022e-05
7.05209e-06
-2.13321e-08
0.000103065
6.9564e-06
2.6632e-06
6.06751e-06
3.91531e-07
7.29248e-07
7.01191e-07
-2.8763e-05
-2.52109e-05
-3.57945e-05
-3.33127e-05
-3.34778e-05
9.4699e-06
-5.45822e-07
3.09425e-05
-1.4968e-05
9.69713e-07
-4.45084e-06
1.84423e-05
-4.26832e-06
8.97176e-07
-1.74033e-06
5.6494e-06
-1.17438e-05
-1.41552e-06
1.82455e-06
1.35784e-06
9.95556e-06
-3.81739e-06
8.76309e-07
-2.11365e-06
5.00308e-06
-2.6231e-06
3.66179e-08
-4.70602e-08
2.67334e-06
-4.89901e-06
-1.54582e-06
-2.75707e-07
6.67724e-06
-5.92917e-07
1.30407e-06
-1.62869e-05
-9.01721e-07
9.75295e-07
1.55022e-05
-7.97664e-09
-1.15979e-05
4.42696e-07
-2.69295e-07
1.03679e-06
1.03956e-05
-6.78912e-06
-1.66606e-07
-6.46942e-08
6.74335e-07
6.00514e-06
3.4095e-07
2.20317e-06
2.21842e-06
-2.15109e-05
1.2716e-07
-1.62342e-06
1.85855e-05
2.48908e-07
2.48298e-06
0.000111853
-2.26789e-06
-2.671e-06
-2.53087e-07
-2.72277e-07
-4.35001e-06
-1.93317e-06
-5.33934e-07
-5.18059e-07
-4.35856e-06
2.62247e-06
8.6749e-05
-3.46902e-06
-2.78342e-06
-1.30827e-06
-1.36447e-06
-2.88928e-06
9.26934e-07
6.31222e-05
-1.9104e-06
-1.55328e-06
-1.32345e-06
-1.24444e-06
-2.38534e-06
-1.89834e-06
-1.62025e-06
-1.02285e-05
-3.62653e-09
-5.69524e-07
8.05941e-06
-1.56395e-06
-3.97032e-07
-4.1894e-07
2.30622e-06
2.84552e-06
-1.87869e-05
-6.97353e-07
-2.12194e-06
3.13335e-06
1.56273e-05
-4.46582e-07
2.71262e-06
5.64169e-05
-4.34058e-08
3.42496e-07
3.63681e-07
5.51995e-07
-6.09209e-06
-9.03527e-07
9.45005e-05
-3.54684e-06
-4.33917e-06
0.000141956
-1.13138e-05
-1.79078e-06
-3.81693e-06
-9.60303e-06
-1.03728e-06
-2.32097e-06
-1.77966e-05
4.64183e-07
6.87216e-07
-2.85168e-06
1.595e-05
-5.7348e-06
8.37576e-08
-5.56973e-07
6.28221e-07
7.16103e-06
-1.58124e-06
-4.24392e-06
5.47531e-07
4.84328e-05
9.13302e-07
9.8671e-07
1.03077e-06
9.29472e-07
7.71916e-07
7.18356e-07
8.96868e-07
-3.62797e-06
1.30373e-06
0.000109432
-8.80889e-06
-1.81674e-06
-3.51321e-06
1.14571e-06
1.84532e-06
1.95757e-06
-2.49205e-05
-1.8944e-06
-8.23616e-07
1.96713e-05
-2.50691e-05
5.36447e-06
-1.8263e-06
2.15455e-05
-6.83651e-06
7.82242e-07
-1.281e-06
7.69184e-06
-9.85849e-06
4.77013e-07
-1.78694e-06
7.63949e-07
1.17082e-05
-5.20243e-06
-3.89175e-06
2.67714e-06
6.41388e-06
-2.52392e-06
7.50851e-07
-1.20101e-07
1.9552e-06
-8.51971e-06
-1.19611e-06
-1.09641e-06
1.07627e-05
-1.81972e-08
1.5039e-06
-1.57585e-05
-1.77614e-06
3.78068e-07
1.56709e-05
-4.59051e-07
-1.04976e-05
1.71448e-06
-1.17775e-06
8.93175e-07
9.5267e-06
-4.71787e-06
-1.19797e-07
-5.46007e-07
5.49168e-07
4.12127e-06
7.13236e-07
1.46921e-06
3.10329e-07
-1.666e-05
-2.13659e-07
-2.22012e-06
1.73143e-05
-2.61364e-06
5.06347e-06
0.000115492
-3.89974e-07
-8.39951e-07
-3.07193e-06
-3.45651e-06
1.13501e-06
-8.72348e-08
4.74821e-07
1.47047e-07
-8.05962e-06
7.20318e-06
9.99e-05
-1.3913e-06
-1.20708e-06
-6.5439e-06
-5.76595e-06
-1.00315e-06
7.67851e-06
5.72198e-05
-8.83148e-07
-7.45701e-07
-2.68796e-06
-2.17739e-06
-7.16754e-07
-1.62546e-06
3.86555e-09
-5.53841e-06
-4.42323e-07
1.89025e-06
3.25902e-06
-3.01e-06
-1.65692e-07
-3.4306e-07
3.47409e-06
1.23535e-06
-1.2944e-05
-9.61301e-07
2.14123e-07
1.59774e-06
1.08581e-05
-1.16898e-06
2.40854e-06
6.15497e-05
-7.09566e-07
-7.88116e-07
1.43877e-07
4.49153e-08
-5.87944e-06
4.0457e-06
0.000102368
-8.52253e-07
8.54806e-07
0.000151569
-5.95894e-07
-4.48286e-06
-4.2084e-06
1.18199e-06
-1.25348e-07
4.14276e-07
-1.71992e-05
-1.03699e-06
-1.21486e-06
4.90024e-07
1.81088e-05
-8.40615e-06
1.13865e-08
-1.88769e-07
6.16901e-07
9.12601e-06
-1.15938e-06
-2.99357e-06
-7.65703e-08
5.35698e-05
-4.1232e-07
-2.94062e-07
5.14667e-08
3.33033e-08
3.04706e-07
1.36086e-07
5.22549e-07
-1.22219e-06
1.7599e-06
0.000103999
-8.76404e-07
1.13801e-06
2.452e-07
2.04937e-06
1.14611e-06
2.24492e-06
-2.12458e-05
-1.85392e-06
5.50555e-07
2.21818e-05
-1.75368e-05
1.11311e-07
1.81342e-06
1.56841e-05
-7.86367e-06
-3.38452e-08
6.63293e-07
7.12223e-06
-1.48759e-05
-2.67108e-07
-1.23365e-06
3.03626e-07
1.78329e-05
-8.2627e-06
-2.00104e-06
1.19173e-06
8.97702e-06
-1.17447e-06
2.58557e-07
1.22952e-08
9.03613e-07
-1.00524e-05
-1.02084e-06
1.80973e-06
9.26355e-06
-1.63122e-06
1.71127e-06
-1.33482e-05
-1.31361e-06
3.26862e-06
1.13132e-05
-1.01367e-06
-7.98483e-06
6.68118e-07
-1.02057e-06
2.3821e-06
6.96885e-06
-3.69825e-06
-7.08786e-07
1.3242e-06
1.58567e-06
1.43247e-06
6.46937e-08
-1.99904e-06
1.47752e-06
-1.80133e-05
-2.29601e-06
2.85264e-06
1.79782e-05
-8.66159e-06
2.00135e-05
0.000130029
-6.64757e-06
-6.94593e-06
-6.66416e-06
-5.78013e-06
1.12569e-06
1.20471e-06
-6.43631e-07
-1.53766e-06
-1.0762e-05
1.5094e-05
9.27573e-05
-3.79697e-06
-2.36519e-06
-6.41648e-07
9.5297e-07
-6.76454e-07
8.42597e-06
4.80535e-05
-3.01233e-06
-2.83716e-06
-1.86761e-06
-1.36137e-06
-1.83364e-06
9.88401e-07
5.78467e-07
2.08339e-06
-1.0839e-06
1.2898e-06
-2.9658e-06
-3.70846e-06
-2.83692e-07
-9.40545e-07
4.84894e-06
1.02711e-06
-1.01077e-05
-1.17108e-06
-6.32012e-07
1.16521e-06
9.7185e-06
-1.05552e-05
6.46174e-06
8.98631e-05
1.99352e-07
5.52757e-07
-2.74762e-06
-2.21105e-06
-1.64987e-05
1.29124e-05
0.000110494
-4.48967e-06
-2.43154e-06
0.000160696
-4.95085e-06
-6.54742e-07
-3.12091e-06
-2.95917e-07
-5.77254e-07
-6.78854e-07
-1.37385e-05
-4.77394e-06
-3.45725e-06
7.07443e-06
1.04056e-05
-9.61464e-06
1.7013e-07
-5.88599e-07
5.82202e-07
1.04658e-05
-1.01488e-06
-9.52317e-06
-3.64678e-07
7.88566e-05
5.57989e-07
6.69722e-07
-2.35548e-06
-2.59774e-06
-3.86419e-07
-3.04459e-06
-1.78076e-06
-4.78377e-06
3.32978e-07
0.000127382
-3.90799e-06
-5.66599e-06
-5.81625e-06
4.57465e-07
-5.78468e-08
-5.52671e-07
-2.29356e-05
-1.3729e-06
-1.33978e-06
1.8433e-05
-1.77605e-05
-4.04438e-06
1.0206e-06
2.07843e-05
-6.89937e-06
6.98342e-07
-1.035e-06
6.84243e-06
-2.05443e-05
-4.84369e-07
-4.745e-07
-5.53312e-07
2.23895e-05
-9.70783e-06
-1.01828e-06
1.14264e-06
9.58347e-06
-1.18858e-06
6.42694e-07
-3.80838e-07
9.26726e-07
-8.64948e-06
-1.30744e-06
1.75802e-06
8.1989e-06
-1.76121e-06
2.24453e-06
-9.40368e-06
-2.53282e-06
2.82855e-06
8.62462e-06
-4.33808e-07
-5.99518e-06
2.00711e-06
-1.46695e-06
-5.50343e-08
5.94387e-06
-5.26005e-07
-6.88294e-07
1.13566e-06
-8.38794e-08
-1.45624e-07
3.0814e-07
-2.03214e-06
2.46052e-06
-1.60746e-05
-1.24408e-06
2.04317e-06
1.48472e-05
-6.64233e-06
1.61408e-05
0.000124178
-3.51187e-06
-1.30765e-06
-4.0568e-07
3.97433e-07
3.92685e-07
-9.88707e-07
1.1266e-06
6.49405e-07
-1.23584e-07
7.82772e-06
7.34449e-05
7.80783e-07
1.37371e-06
1.26856e-06
1.54293e-06
1.51424e-06
2.68258e-06
3.63051e-05
8.2047e-07
5.778e-07
2.31134e-06
7.25786e-07
2.03782e-07
1.36049e-06
1.42831e-06
3.32293e-06
-1.8112e-06
4.40137e-07
2.83564e-06
-3.27327e-06
-1.89765e-07
4.47312e-09
6.39945e-08
1.23539e-07
-5.98453e-06
-1.37952e-06
1.14523e-06
6.21883e-06
-5.28182e-07
-8.40163e-06
-2.78305e-06
1.29753e-06
3.08236e-06
7.33297e-06
-1.09603e-05
1.27736e-05
0.000102439
-8.90763e-07
-6.67095e-07
1.79244e-06
1.5169e-06
-1.34299e-05
1.1796e-05
0.000108995
-2.29134e-08
5.86867e-07
0.000145826
-1.80265e-06
7.10514e-07
-6.58617e-07
2.26398e-07
3.85204e-06
1.23085e-06
-1.04942e-05
-3.06098e-06
6.44603e-07
5.76038e-06
7.12731e-06
-2.89176e-08
-2.83125e-08
-1.29177e-08
7.00341e-08
-4.81035e-09
-1.14662e-05
-9.23955e-07
1.46834e-06
1.98186e-07
1.31474e-05
-2.42384e-06
-1.40105e-05
3.50249e-07
0.000101804
-2.03188e-06
-1.06658e-06
-6.49921e-07
7.45202e-07
1.79457e-06
2.18952e-06
2.5058e-06
-4.36338e-06
1.89112e-06
0.000128888
-4.24959e-06
-2.41393e-06
-2.97849e-06
1.63409e-06
3.48894e-06
3.27086e-06
-1.67705e-05
-4.38844e-06
-7.77522e-08
1.74602e-05
-2.33308e-05
-1.49215e-06
3.02407e-06
2.17989e-05
-4.73725e-06
-1.63569e-06
1.33068e-06
5.39251e-06
-2.3424e-05
-2.83618e-07
-1.15289e-06
6.5209e-07
2.60995e-05
-9.02793e-06
-1.46442e-06
2.03768e-06
8.45466e-06
-7.02718e-07
8.6614e-07
-2.50297e-07
8.68744e-08
-8.32181e-06
-2.65539e-06
2.26599e-06
8.71121e-06
-1.11983e-06
3.47122e-06
-8.97531e-06
-2.52689e-06
2.11127e-07
8.93968e-06
-7.29891e-07
-5.48435e-06
1.25977e-06
-4.45121e-07
5.8186e-07
4.81773e-06
-8.91602e-07
-7.61515e-07
1.37691e-06
7.98009e-07
-2.03953e-07
-3.17847e-07
-2.37476e-06
1.50985e-06
-1.45483e-05
-1.21516e-06
1.60424e-06
1.50241e-05
-8.05051e-06
1.47573e-05
0.000111551
-1.58866e-07
-7.39205e-07
-3.01998e-07
-1.467e-06
1.81793e-06
1.2726e-06
2.59619e-06
2.90078e-06
-3.95477e-07
1.02385e-05
5.74844e-05
-1.99654e-07
-4.11961e-07
-5.94354e-07
-7.27063e-07
-6.70047e-07
6.97622e-06
3.3306e-05
-2.8554e-07
-7.07737e-07
-3.65407e-07
-2.15271e-07
-6.88397e-07
-7.05996e-07
-7.34133e-07
3.40284e-06
-2.45316e-06
-2.03843e-06
1.8139e-06
-1.3952e-06
4.06544e-07
1.19092e-07
2.29667e-06
-1.53975e-06
1.2556e-07
-1.40812e-06
-6.16733e-06
-9.64562e-07
1.17812e-06
5.95378e-06
-8.46187e-07
-7.86037e-06
-1.11399e-06
-1.86728e-07
8.68202e-07
9.13907e-06
-1.08114e-05
1.1901e-05
0.000107975
1.82165e-06
1.59614e-06
2.53434e-06
2.17968e-06
-1.05803e-05
1.28509e-05
0.000106151
-6.00574e-09
4.69427e-06
0.000122595
9.17115e-07
-8.726e-07
1.08009e-06
3.70116e-06
5.9522e-06
4.16103e-06
-7.14561e-06
-2.54803e-06
2.1973e-07
2.52515e-06
6.94276e-06
-4.52433e-07
-5.44287e-07
8.63153e-07
-1.01101e-06
6.06658e-07
5.37921e-07
-1.48426e-05
-7.46979e-07
-5.23606e-08
1.61041e-07
1.56044e-05
-1.23521e-07
-1.41691e-05
2.40953e-06
0.000112252
9.01486e-07
1.89502e-06
1.92508e-06
2.42861e-06
2.17119e-06
2.12214e-06
1.76899e-06
-3.06687e-06
2.90653e-06
0.000127266
-3.16166e-06
-2.20544e-06
-3.06043e-06
2.98647e-06
2.95597e-06
2.94932e-06
-2.05016e-05
-3.22407e-06
3.49017e-06
2.18629e-05
-1.6579e-05
-6.40102e-06
4.05547e-06
2.0134e-06
1.69111e-05
-1.13194e-06
-5.57161e-07
-1.54358e-07
1.84346e-06
-7.55562e-06
4.27883e-07
-3.54987e-07
9.89225e-06
-2.99503e-05
1.32928e-06
-3.03492e-06
1.51085e-06
3.30516e-05
-8.11424e-06
-2.30373e-06
2.16511e-06
8.25286e-06
4.779e-07
8.01818e-07
-5.24839e-07
-7.5488e-07
-9.11006e-06
-2.0941e-06
1.76545e-06
9.43872e-06
-3.23958e-08
2.66406e-06
-8.64283e-06
-2.7224e-06
4.61449e-07
8.27211e-06
2.34656e-07
-3.78403e-06
2.52873e-06
-2.0262e-06
7.1291e-07
2.33393e-06
1.36768e-06
-2.30089e-07
-3.48342e-07
1.80091e-08
-1.88824e-06
1.08098e-06
-1.82048e-06
5.29308e-07
-1.61242e-05
-1.4442e-06
1.63977e-06
1.72198e-05
-8.77569e-06
1.63406e-05
9.81337e-05
-1.10833e-06
-2.23369e-06
-1.12522e-06
-1.52531e-06
2.68086e-06
2.66946e-06
2.99012e-06
3.50429e-06
-5.38476e-06
1.15622e-05
4.46369e-05
-1.25996e-06
-6.11183e-07
-5.45933e-07
3.11443e-07
-1.91493e-06
6.03218e-06
2.43077e-05
6.2456e-07
5.71987e-07
1.35967e-06
1.05258e-06
-1.67601e-06
-1.7199e-06
-7.1668e-07
1.42887e-06
-7.14621e-07
-1.7862e-06
1.19067e-06
-2.03365e-06
2.27224e-06
1.7962e-07
8.44521e-07
4.37924e-08
-3.11953e-07
-3.02822e-06
-5.40889e-06
-5.89811e-07
1.01264e-06
4.98606e-06
-3.11405e-07
-1.09258e-05
-7.9095e-07
-6.05959e-07
-1.13331e-07
1.27474e-05
-7.63478e-06
1.15562e-05
0.000114739
1.3863e-06
1.16929e-06
1.72579e-06
1.37431e-06
-6.3298e-06
1.35458e-05
0.000102863
-3.01512e-07
5.28761e-06
9.87671e-05
1.82383e-06
9.55271e-07
1.38301e-06
4.38274e-06
5.89576e-06
4.10325e-06
-7.52589e-06
-4.44414e-07
-1.63046e-06
4.96819e-07
8.80244e-06
-4.82612e-07
6.20827e-07
1.34887e-06
-3.20017e-07
-1.21422e-06
4.71464e-08
-1.59769e-05
-1.1059e-06
-4.23839e-07
2.87323e-07
1.6419e-05
8.00312e-07
-1.2485e-05
1.62138e-06
0.000123574
1.66107e-06
2.22255e-06
2.10814e-06
2.19793e-06
1.01779e-06
1.22108e-06
6.68786e-07
-3.1489e-06
2.47635e-06
0.000129949
-3.21227e-06
-2.17672e-06
-3.08887e-06
2.66707e-06
2.21636e-06
2.64439e-06
-2.35417e-05
-2.03779e-06
5.00793e-06
2.27103e-05
-1.56834e-05
-1.17897e-06
1.78438e-06
7.60737e-07
1.43172e-05
-2.79959e-06
1.04906e-06
-1.79734e-06
7.82699e-07
2.76517e-06
-1.20752e-05
1.04781e-06
-1.18866e-06
1.38375e-05
-3.58853e-05
1.71651e-06
-3.8123e-06
2.26266e-06
3.81948e-05
-8.75603e-06
-3.53312e-06
2.55465e-06
9.73449e-06
8.63915e-07
2.28614e-07
-2.2726e-07
-8.65269e-07
-9.80752e-06
-1.64774e-06
1.16279e-06
1.02925e-05
6.16309e-07
2.22488e-06
-8.3179e-06
-3.15798e-06
-3.01135e-07
8.93583e-06
4.65482e-07
-1.35007e-06
3.42955e-06
-3.00696e-06
-9.44265e-08
5.56426e-07
1.72551e-06
3.03174e-07
-1.89736e-06
-8.37169e-07
-1.57545e-06
2.2813e-06
-1.29979e-06
4.95902e-07
-1.84317e-05
-1.75614e-06
1.3219e-06
1.96698e-05
-1.30813e-05
1.47416e-05
8.55701e-05
-6.20086e-07
-1.14697e-06
7.75527e-08
-5.07724e-07
3.03507e-06
3.07359e-06
3.32948e-06
3.66245e-06
-1.4141e-05
6.05669e-06
3.72469e-05
4.02865e-07
6.86948e-07
8.22249e-07
4.80879e-07
-2.08577e-06
-4.81112e-06
1.56535e-05
1.66777e-06
1.63319e-06
1.25089e-06
1.58938e-06
-1.07907e-06
-2.33635e-06
-1.31565e-06
2.99666e-06
1.49221e-06
-1.74155e-06
-2.87872e-06
-1.95437e-06
3.70671e-06
2.41312e-07
3.70031e-07
-2.32791e-06
-1.99015e-06
-4.85149e-06
-5.20667e-07
4.91851e-07
4.8803e-06
-2.46614e-07
-1.43414e-05
-8.14071e-07
-4.25058e-07
9.53404e-08
1.57318e-05
-6.62857e-06
9.70697e-06
0.00012269
8.92769e-07
5.23513e-07
1.17808e-06
1.11753e-06
-4.76582e-06
1.31193e-05
9.39374e-05
2.07951e-06
3.97067e-06
7.22646e-05
1.51012e-06
1.6236e-06
5.14763e-07
2.40816e-06
3.82865e-06
9.9007e-07
-9.63303e-06
3.31301e-06
1.26883e-06
-1.38487e-06
8.51557e-06
-1.55365e-07
3.09007e-06
-1.49392e-06
1.24576e-06
-3.01276e-06
3.26212e-07
-1.68277e-05
1.84729e-07
-1.09493e-06
-5.59105e-07
1.7688e-05
6.08947e-07
-9.57205e-06
8.93917e-07
0.000133228
1.53851e-06
1.86765e-06
2.16243e-06
1.77918e-06
2.30209e-07
7.88098e-07
3.65613e-07
-3.04049e-06
1.11908e-06
0.000137261
-2.73727e-06
-2.04203e-06
-2.22222e-06
2.57486e-06
2.59065e-08
2.55796e-06
-2.27443e-05
-1.6949e-06
4.77237e-06
2.0597e-05
-1.10728e-05
-1.48957e-06
6.80991e-07
1.18814e-05
-1.5064e-05
1.05936e-06
-6.81194e-07
1.55798e-05
-4.10325e-05
4.47692e-07
-2.66036e-06
6.29362e-07
4.37349e-05
-1.11378e-05
-4.11978e-06
2.20793e-06
1.30497e-05
7.58871e-07
-4.72681e-07
3.7356e-07
-6.5975e-07
-1.09139e-05
5.45652e-07
-1.0664e-06
1.14347e-05
1.27003e-06
7.00663e-07
-1.02374e-05
-2.23121e-06
-1.37064e-06
1.18686e-05
1.58852e-07
-5.11227e-08
3.05106e-06
-2.78339e-06
-2.58329e-07
-1.1707e-07
1.74268e-06
-1.67981e-07
-1.80114e-06
1.74498e-07
-2.20749e-06
2.25943e-06
-1.66856e-07
5.01292e-07
-2.09659e-05
-2.02993e-06
7.96261e-07
2.18651e-05
-1.76926e-05
8.30816e-06
8.01005e-05
7.56068e-07
-1.06846e-07
6.30739e-07
1.04145e-07
3.29123e-06
3.12478e-06
3.45948e-06
3.59442e-06
-2.01249e-05
1.02241e-06
3.51549e-05
1.18089e-06
4.38478e-07
1.43991e-06
4.42647e-07
-2.27662e-06
-1.3121e-05
1.3803e-05
5.28564e-07
1.55265e-06
2.34725e-07
1.37214e-06
-2.22433e-06
-2.20759e-06
-2.13299e-06
3.10933e-07
2.89708e-06
-4.68222e-06
-8.02416e-07
-5.11201e-06
-4.21909e-07
1.39226e-08
5.51999e-06
-8.70013e-07
-1.69335e-05
-7.55138e-07
-4.00755e-08
2.16874e-07
1.83818e-05
-6.08821e-06
6.19383e-06
0.000128064
4.15964e-07
4.9031e-07
8.00447e-07
1.12137e-06
-1.12076e-05
9.55141e-06
9.05277e-05
-2.72484e-07
5.36791e-07
5.0573e-05
-2.14144e-07
-8.19108e-09
-8.85544e-09
-1.3768e-06
1.60888e-07
-1.45414e-06
-1.0171e-05
4.7337e-06
1.99536e-06
-4.64925e-06
7.81871e-06
-1.87551e-05
1.59143e-06
-2.25673e-06
-8.55116e-07
1.96598e-05
6.15677e-07
-8.43733e-06
5.90788e-07
0.000138416
1.84129e-06
1.58723e-06
2.72342e-06
1.49147e-06
2.21646e-07
6.12332e-07
3.74964e-07
-2.4639e-06
-1.02546e-06
0.000143097
-1.57518e-06
-2.29391e-06
-1.41318e-06
2.34823e-06
-8.40356e-07
2.54144e-06
-1.95004e-05
-7.36035e-07
1.55795e-06
1.67514e-05
-1.09328e-05
3.21677e-06
-4.7009e-07
8.1861e-06
-1.58123e-05
8.63921e-07
-2.66626e-07
1.58058e-05
-4.61428e-05
-3.79911e-08
-1.12982e-06
-1.23657e-06
4.75218e-05
-1.51466e-05
-1.8707e-06
2.56049e-07
1.67613e-05
4.75392e-07
-1.19083e-06
9.77442e-07
-2.62006e-07
-1.15535e-05
4.12265e-06
-3.99003e-06
1.14209e-05
1.94489e-06
-2.84139e-06
-1.35038e-05
8.80692e-07
-1.09132e-06
1.46109e-05
-1.7378e-07
-1.45301e-07
1.3234e-06
-1.92884e-06
7.05124e-08
8.5401e-07
2.62017e-06
-9.751e-07
-1.52429e-06
1.18664e-06
-3.10787e-06
1.80044e-06
1.55576e-06
6.36928e-08
-2.24909e-05
-1.89826e-06
1.37902e-08
2.27559e-05
-1.79192e-05
1.37884e-06
8.34823e-05
6.18501e-07
2.09822e-07
1.95606e-07
-6.08736e-08
3.20541e-06
2.69755e-06
3.21302e-06
3.07952e-06
-1.94098e-05
-8.77104e-07
3.65113e-05
8.15668e-07
-2.23621e-07
7.94274e-07
-3.75088e-07
-2.20166e-06
-6.06299e-06
1.08698e-05
-1.29374e-06
2.65081e-07
-1.54722e-06
2.50245e-07
-2.03937e-06
-2.11432e-06
-1.73257e-06
9.54238e-07
2.08761e-06
-3.91509e-06
-1.32842e-06
-5.72876e-06
1.80693e-07
-2.72978e-08
5.57537e-06
-1.17511e-06
-1.98387e-05
-2.32131e-07
3.6338e-07
-3.16509e-07
2.1199e-05
-6.00973e-06
6.15321e-07
0.000132461
-3.09737e-08
4.6138e-07
6.73999e-07
1.27199e-06
-1.59024e-05
4.30848e-06
9.52348e-05
-8.16466e-07
-9.47499e-07
3.58236e-05
-6.44254e-07
-5.28286e-07
-2.73181e-07
-1.84581e-06
-4.85402e-07
-1.67503e-06
-5.99449e-06
3.30309e-06
1.21729e-06
-3.67046e-06
4.32811e-06
-2.01141e-05
2.62524e-06
-2.84348e-06
-8.6738e-07
2.00049e-05
1.19481e-06
-8.9896e-06
2.11533e-07
0.000140958
2.09723e-06
1.24671e-06
2.71848e-06
1.09622e-06
-2.8794e-07
2.92078e-07
-3.11601e-07
-3.33696e-06
-1.0733e-06
0.000145539
-1.68943e-06
-2.48291e-06
-1.55274e-06
1.95015e-06
-6.2283e-07
1.6854e-06
-1.58226e-05
-2.36623e-06
-3.68699e-07
1.4273e-05
-6.15949e-06
1.71846e-06
5.86451e-07
3.85457e-06
-1.59699e-05
5.42143e-07
-5.3347e-07
1.61728e-05
-4.81531e-05
5.25454e-07
-1.23816e-06
3.09179e-07
4.74833e-05
-1.75172e-05
1.09162e-07
1.13238e-07
1.72948e-05
2.89009e-08
-1.73841e-06
1.48529e-06
2.24222e-07
-1.1161e-05
6.10809e-06
-5.76067e-06
1.08136e-05
2.05647e-06
-5.27249e-06
-1.49456e-05
3.68707e-06
-4.71005e-07
1.49455e-05
-4.16546e-07
-2.14741e-06
-8.94958e-07
-6.08516e-07
6.29632e-07
3.4378e-06
3.42843e-06
-1.88213e-06
-9.80952e-07
2.3172e-06
-3.80289e-06
9.20334e-07
3.39207e-06
-1.16246e-06
-2.29422e-05
-9.60239e-07
-1.54044e-06
2.32133e-05
-1.56931e-05
-2.28544e-06
9.24145e-05
1.09311e-07
-5.19799e-07
6.27889e-07
-7.24709e-07
2.83756e-06
2.16648e-06
2.30984e-06
2.23978e-06
-1.56432e-05
-8.32842e-07
4.12406e-05
-2.06249e-07
-1.49385e-06
-5.1267e-07
-1.73355e-06
-2.14815e-06
4.20597e-06
5.09866e-06
-2.83329e-06
-5.82342e-07
-3.09404e-06
-5.61149e-07
-1.46331e-06
-2.0206e-06
-1.37515e-06
1.83612e-06
1.96206e-06
-3.47059e-06
-2.47573e-06
-5.12914e-06
1.73661e-06
-1.32218e-06
4.71471e-06
-2.72994e-08
-2.26517e-05
9.71507e-07
-3.50626e-07
-2.17763e-06
2.42357e-05
-8.5557e-06
-5.99695e-06
0.000140547
5.95563e-07
5.96028e-07
1.31543e-06
1.67485e-06
-1.47562e-05
-3.66539e-06
0.000104268
-8.3231e-07
7.83191e-08
2.85692e-05
-3.92547e-07
-6.84051e-07
-1.46135e-07
-7.9707e-07
3.28057e-07
-8.50153e-07
-3.14189e-06
2.36346e-06
7.19883e-07
-2.47943e-06
1.70566e-06
-1.92896e-05
2.6244e-06
-2.87234e-06
-8.63567e-07
1.78844e-05
2.51662e-06
-8.40058e-06
-3.78816e-07
0.000141671
1.59948e-06
7.73518e-07
2.17427e-06
1.67077e-07
-1.1287e-06
-5.16554e-07
-9.99762e-07
-2.43346e-06
-2.13107e-06
0.000143652
-1.41542e-06
-1.32282e-06
-8.71834e-07
5.71987e-07
-2.62159e-06
4.47089e-08
-1.36478e-05
-1.24127e-06
-4.52627e-07
1.29865e-05
-2.14301e-06
1.30244e-06
-2.76886e-07
1.11745e-06
-1.68684e-05
-3.77749e-07
-3.2665e-07
1.7194e-05
-4.66305e-05
9.22711e-07
-1.01189e-06
8.83245e-07
4.37054e-05
-1.62652e-05
1.32042e-06
-2.82816e-07
1.52276e-05
-4.67065e-07
-2.01636e-06
1.76372e-06
7.19711e-07
-1.03409e-05
6.81532e-06
-6.24802e-06
9.77355e-06
2.25181e-06
-6.17018e-06
-1.48371e-05
5.05758e-06
-1.13899e-06
1.48369e-05
-3.2277e-07
-4.72913e-06
-2.41143e-06
7.13021e-07
6.35709e-07
6.1146e-06
3.96953e-06
-2.55448e-06
-4.57245e-07
3.07755e-06
-3.94313e-06
-9.22154e-08
4.3557e-06
-2.61111e-06
-2.34471e-05
1.04938e-06
-3.01032e-06
2.36635e-05
-1.15757e-05
-4.67099e-06
0.000105034
7.81059e-07
-1.13778e-06
1.1196e-06
-1.05392e-06
1.34722e-06
8.89917e-07
5.31538e-07
1.14915e-06
-1.0304e-05
-6.20434e-06
5.09911e-05
-4.88133e-07
-1.84327e-06
-5.58499e-07
-1.92788e-06
-1.80754e-06
5.58255e-06
2.91672e-06
-3.45184e-06
-7.0356e-07
-3.55385e-06
-6.83399e-07
-8.92169e-07
-1.72061e-06
-8.9165e-07
3.07411e-06
1.92581e-06
-3.30067e-06
-3.50679e-06
-4.42946e-06
2.60548e-06
-2.69122e-06
4.51519e-06
1.02094e-06
-2.56592e-05
2.51606e-06
-1.02231e-06
-3.60531e-06
2.67498e-05
-7.60621e-06
-1.24934e-05
0.000151282
1.00216e-06
8.3882e-07
1.96272e-06
8.89556e-07
-8.34608e-06
-1.36811e-05
0.000112484
2.84622e-08
-3.31742e-07
2.82755e-05
2.41629e-07
-1.91444e-08
3.02149e-07
-8.90543e-07
-6.82369e-07
-1.11828e-06
-5.98145e-07
2.19742e-06
9.32944e-07
-2.40065e-06
-1.03106e-07
-1.62346e-05
3.54086e-06
-2.90738e-06
-1.3646e-06
1.41564e-05
2.80927e-06
-4.98243e-06
-6.61313e-07
0.000138937
6.13329e-07
-1.02369e-06
8.97037e-08
-1.09623e-06
-1.41683e-06
-4.85927e-07
-7.95826e-07
-8.15821e-07
-3.88133e-06
0.000138131
-4.60153e-08
1.46533e-07
5.46791e-07
-2.21461e-06
-3.66362e-06
-3.21385e-06
-1.3453e-05
2.17916e-07
-1.9206e-06
1.40081e-05
-4.52405e-07
1.50714e-06
-1.21325e-06
1.58508e-07
-1.73268e-05
-2.90728e-06
2.14768e-06
1.74251e-05
-3.99011e-05
8.2294e-07
-2.67937e-07
3.35612e-07
3.51292e-05
-1.42411e-05
3.73465e-06
-2.3229e-06
1.28293e-05
-9.62676e-07
-2.06675e-06
1.82676e-06
1.20266e-06
-9.27091e-06
6.56552e-06
-6.2592e-06
8.96459e-06
2.23169e-06
-5.95591e-06
-1.48774e-05
5.12456e-06
-1.6917e-06
1.51688e-05
-1.22424e-08
-7.27191e-06
-2.80185e-06
1.45637e-06
5.1038e-08
8.5786e-06
3.70724e-06
-2.81957e-06
-1.47951e-07
3.22216e-06
-3.32019e-06
-6.41692e-07
5.47469e-06
-2.3471e-06
-2.36279e-05
2.18746e-06
-5.23655e-06
2.35494e-05
-4.78311e-06
-8.26663e-06
0.00011827
1.28778e-06
-8.78551e-07
1.41536e-06
-4.15122e-07
-7.47775e-07
-1.75259e-07
-1.15401e-06
4.82123e-07
-3.31837e-06
-1.2687e-05
6.48421e-05
1.38701e-07
-1.43062e-06
2.23053e-07
-1.5599e-06
-1.19931e-06
2.41961e-06
7.16781e-06
-3.18323e-06
-3.57951e-07
-3.25006e-06
-3.82025e-07
-1.73756e-07
-1.17261e-06
-2.70123e-07
3.88441e-06
1.97809e-06
-3.25696e-06
-3.80485e-06
-4.87169e-06
2.90079e-06
-3.49292e-06
5.46382e-06
3.40087e-06
-2.71988e-05
5.10427e-06
-2.62695e-06
-5.3253e-06
2.6646e-05
-1.02908e-06
-1.46099e-05
0.00015904
5.00154e-07
-1.41401e-06
9.00528e-07
-3.72508e-07
2.49816e-07
-1.85436e-05
0.000117062
1.07152e-06
-1.66228e-06
3.2794e-05
1.07548e-06
8.58456e-07
9.29824e-07
-1.3377e-06
-1.30468e-06
-1.47968e-06
5.67726e-07
2.20774e-06
1.26174e-06
-2.61051e-06
-3.55167e-07
-1.13726e-05
2.01499e-06
-1.76679e-06
-1.53234e-06
8.98826e-06
3.66844e-06
1.75609e-06
-2.12807e-07
0.00012496
1.77599e-08
-1.36354e-06
1.07129e-06
-1.3185e-06
-5.01089e-07
2.58877e-07
-3.41554e-07
7.77106e-07
-3.39149e-06
0.000127987
1.44607e-06
1.73215e-06
1.8366e-06
-3.20297e-06
-2.97549e-06
-2.86611e-06
-1.56028e-05
1.36824e-06
-2.98844e-06
1.63378e-05
-2.29017e-08
1.69523e-06
-1.71909e-06
4.67614e-08
-1.6963e-05
-2.90234e-06
4.91997e-06
1.47326e-05
-3.1817e-05
-2.30622e-06
2.73378e-06
-1.65564e-06
2.96535e-05
-1.13644e-05
4.05557e-06
-2.95375e-06
1.02626e-05
-1.41873e-06
-2.01019e-06
1.79792e-06
1.631e-06
-8.95639e-06
5.73939e-06
-6.09659e-06
9.31359e-06
2.1707e-06
-5.07285e-06
-1.56102e-05
4.40905e-06
-2.15407e-06
1.62574e-05
1.30864e-07
-9.54391e-06
-2.63686e-06
1.81691e-06
-5.9327e-07
1.08263e-05
2.85948e-06
-2.73672e-06
-7.41228e-08
2.98088e-06
-2.11137e-06
-9.18143e-07
6.36043e-06
-1.09478e-06
-2.33429e-05
1.36791e-06
-6.35265e-06
2.3062e-05
5.88167e-07
-1.29154e-05
0.000128173
2.09286e-06
2.12883e-07
2.67067e-06
9.56501e-07
-1.39197e-06
-8.27938e-07
-1.12187e-06
-1.67254e-07
2.2484e-06
-1.45466e-05
7.86081e-05
6.63456e-07
-1.13664e-06
8.61238e-07
-1.26762e-06
-5.48366e-07
-1.07315e-07
1.50722e-05
-2.49207e-06
1.61679e-07
-2.60991e-06
3.40895e-08
3.85581e-07
-6.88185e-07
2.08496e-07
3.73647e-06
2.10523e-06
-3.21159e-06
-3.17847e-06
-5.92033e-06
2.06109e-06
-1.69164e-06
5.55088e-06
1.92066e-06
-2.49185e-05
5.74906e-06
-1.76438e-06
-3.47045e-06
2.24837e-05
2.13464e-06
-1.46341e-05
0.000158696
-3.62742e-08
-7.12907e-07
7.64254e-07
-8.65618e-08
5.16085e-06
-1.57654e-05
0.000115255
1.68463e-06
-1.71521e-06
3.75661e-05
1.60844e-06
1.49084e-06
1.39999e-06
-1.5242e-06
-1.03001e-06
-1.63304e-06
1.85362e-07
2.21102e-06
1.54816e-06
-2.74221e-06
4.82296e-07
-7.3351e-06
-9.96015e-07
-7.07551e-07
1.20873e-06
6.43962e-06
1.39031e-06
9.55165e-06
6.69275e-07
0.000101748
5.58252e-07
-1.67791e-06
8.37836e-07
-1.77388e-06
1.89263e-07
-6.60844e-08
2.89627e-07
1.83742e-06
-1.9638e-06
0.000118644
2.73829e-06
2.49803e-06
2.81349e-06
-1.68555e-06
-1.65306e-06
-1.45492e-06
-1.76388e-05
2.13765e-06
-2.12484e-06
1.77482e-05
-2.06736e-07
1.71388e-06
-1.96077e-06
4.53625e-07
-1.20879e-05
-1.35476e-06
4.72519e-06
9.38674e-06
-2.80628e-05
-3.3178e-06
4.09317e-06
-2.13615e-06
2.74598e-05
-9.69409e-06
2.96211e-06
-2.97734e-06
9.70932e-06
-1.83385e-06
-1.93308e-06
1.72979e-06
2.03714e-06
-9.79301e-06
4.35773e-06
-4.68896e-06
1.01242e-05
2.30667e-06
-3.94565e-06
-1.71175e-05
3.71975e-06
-3.05818e-06
1.80949e-05
1.03602e-07
-1.18459e-05
-2.57184e-06
2.02794e-06
-8.08171e-07
1.30944e-05
1.45753e-06
-2.36539e-06
-1.28699e-07
2.40485e-06
-4.3426e-07
-9.34028e-07
5.2901e-06
-7.75397e-07
-2.25625e-05
1.12619e-06
-4.96234e-06
2.1884e-05
2.61725e-06
-1.48402e-05
0.000133467
3.26643e-06
1.28221e-06
3.54876e-06
2.16569e-06
-1.06728e-06
-1.02901e-06
-9.16106e-07
-3.21917e-07
5.60696e-06
-1.49862e-05
8.9769e-05
1.01587e-06
-8.96401e-07
1.40655e-06
-6.90441e-07
8.9001e-08
-1.48633e-06
2.35135e-05
-1.65603e-06
6.39901e-07
-1.71331e-06
4.44138e-07
7.37168e-07
-3.62942e-07
4.74079e-07
2.72138e-06
2.24845e-06
-3.13999e-06
-1.74084e-06
-4.00414e-06
3.31788e-07
1.32916e-06
2.3432e-06
-1.88738e-06
-2.05927e-05
2.29485e-06
8.36124e-07
3.80373e-07
1.89688e-05
1.63778e-06
-1.4561e-05
0.000155775
-1.84547e-07
-1.75447e-07
5.49132e-07
8.14447e-07
6.23838e-06
-1.21209e-05
0.000107789
1.90509e-06
-1.39573e-06
4.07433e-05
1.80718e-06
1.79438e-06
1.63998e-06
-1.56639e-06
-9.06934e-07
-1.70269e-06
-9.43186e-07
2.191e-06
1.66325e-06
-2.75558e-06
1.7496e-06
-5.742e-06
-1.28854e-06
-2.77075e-07
2.65347e-06
5.14004e-06
-4.85891e-07
6.30923e-06
-3.68865e-08
8.06825e-05
1.20265e-06
-1.33766e-06
1.43062e-06
-1.48224e-06
2.05046e-07