/*--------------------------------*- C++ -*----------------------------------*\
| =========                 |                                                 |
| \\      /  F ield         | OpenFOAM: The Open Source CFD Toolbox           |
|  \\    /   O peration     | Version:  5.x                                   |
|   \\  /    A nd           | Web:      www.OpenFOAM.org                      |
|    \\/     M anipulation  |                                                 |
\*---------------------------------------------------------------------------*/
FoamFile
{
    version     2.0;
    format      ascii;
    class       volVectorField;
    location    "7";
    object      U;
}
// * * * * * * * * * * * * * * * * * * * * * * * * * * * * * * * * * * * * * //

dimensions      [0 1 -1 0 0 0 0];

internalField   nonuniform List<vector> 
10571
(
(-0.177445 0.155524 1.15642)
(0.0535935 0.0353186 0.827746)
(0.0232896 -0.113928 1.23438)
(-0.105096 0.0463545 1.21297)
(-0.0200939 0.018513 0.731615)
(0.139665 0.195632 1.2022)
(0.0993083 0.277012 1.23441)
(0.0491626 0.312306 1.16654)
(0.163237 0.415301 1.28816)
(-0.0330771 0.13359 1.22858)
(0.363059 -0.160979 1.99494)
(0.792128 -0.0258715 1.9091)
(0.265364 -0.0416148 1.17503)
(0.555525 0.282846 1.13933)
(0.439594 0.431308 1.12773)
(0.121814 0.347693 1.33346)
(0.147514 -0.110588 0.770028)
(1.02218 0.230054 1.44444)
(1.02076 0.376128 1.28237)
(0.820959 0.392489 1.31106)
(0.00690974 0.160341 1.24167)
(0.20891 -0.150193 0.928379)
(0.131115 -0.268011 1.42291)
(0.0674846 -0.075345 0.645512)
(-0.142332 0.00842324 0.846054)
(-0.0726336 0.0579662 0.445776)
(-0.212902 0.127833 0.951112)
(-0.138121 0.114463 0.960773)
(-0.0118346 0.0286002 0.396052)
(0.175339 0.047824 1.23024)
(-0.101 -0.00238468 2.02328)
(-0.122514 0.122923 1.43011)
(-0.0393136 0.102544 0.994049)
(-0.0700161 0.155662 0.929287)
(0.00646941 0.0273275 0.449433)
(-0.176076 -0.279697 1.09145)
(-0.0737053 0.0794497 1.13478)
(-0.0404776 0.129972 1.68849)
(0.0263558 0.129769 2.18779)
(-0.0484629 0.403387 1.1281)
(-0.0185258 0.0864568 0.27922)
(-0.191983 0.174298 0.934842)
(0.233514 0.130515 2.23567)
(0.779429 0.0745429 1.69491)
(0.133582 -0.269688 1.57046)
(-0.201407 -0.0114938 0.520747)
(0.124059 -0.00572158 0.772608)
(0.201039 0.0269224 0.590522)
(-0.0213162 0.00625092 0.724596)
(-0.14093 0.00496262 0.849828)
(-0.179825 0.0602557 1.31557)
(-0.0582353 0.031812 0.887545)
(-0.0285573 0.047582 0.543264)
(-0.278489 -0.293113 1.50632)
(0.0234189 0.124653 0.661916)
(-0.0798921 0.215797 0.463814)
(-0.234511 0.156566 0.3894)
(-0.352185 -0.0403796 0.872928)
(-0.0407184 0.0882627 0.602311)
(-0.395497 0.38285 1.21686)
(-0.044867 0.117753 0.642386)
(-0.116113 0.0317263 0.519713)
(-0.307152 -0.0586764 0.631574)
(-0.268808 -0.139205 1.18647)
(-0.0521283 0.159089 0.581239)
(-0.180839 0.140146 0.719167)
(-0.237673 0.0951715 0.821659)
(-0.388855 -0.443497 1.46285)
(0.190375 -0.478098 3.65552)
(-0.178474 0.00122456 0.797641)
(-0.165525 0.084723 0.872693)
(-0.430582 0.181416 1.01823)
(-0.102895 0.009768 0.635491)
(-0.0694749 -0.0924937 1.41675)
(-0.15855 -0.00552494 1.48957)
(-0.155775 0.0679057 0.878586)
(-0.0879153 0.0473148 0.125575)
(-0.0690049 -0.259579 1.01883)
(0.0424311 0.140644 1.97859)
(-0.112782 0.232408 1.93192)
(-0.292962 0.246645 1.39514)
(-0.0799066 0.155884 0.251809)
(-0.034343 0.0547785 0.970709)
(-0.0978829 0.249362 1.05115)
(0.0475428 0.124921 0.979142)
(-0.0445215 0.0891414 1.95287)
(-0.280056 0.0115627 2.89945)
(-0.102495 0.0897617 1.01098)
(-0.0328955 0.146235 0.790662)
(0.00558148 0.0314595 0.904308)
(-0.155272 0.122454 1.90196)
(-0.254684 0.0610958 1.26788)
(-0.160864 0.033336 1.68082)
(0.0504475 -0.0690561 0.849206)
(-0.0147249 0.0687634 1.03708)
(-0.235077 0.215089 1.22529)
(-0.0359272 -0.00115562 -0.0767953)
(-0.0562911 0.131175 0.64072)
(-0.163218 0.0994288 0.455458)
(-0.0813256 0.0847966 0.18954)
(0.0611337 0.0291849 -0.147725)
(-0.110215 0.191015 0.833481)
(-0.0148938 0.424763 1.58748)
(-0.247573 0.225194 0.894792)
(-0.175542 0.265021 0.526719)
(0.0185032 0.0191244 -0.290251)
(-0.0805761 0.0605163 1.0587)
(-0.102079 0.123162 0.87186)
(-0.0447399 0.264058 1.20905)
(-0.271864 0.278682 1.12196)
(-0.378369 0.0152688 1.71909)
(-0.215765 0.519985 0.0391589)
(-0.069202 0.111295 0.724653)
(-0.0162868 -0.0216075 1.14002)
(-0.372943 0.0833576 1.65977)
(-0.21622 -0.174971 0.582299)
(-0.115032 0.247937 1.60406)
(-0.0626357 -0.0484422 0.647963)
(0.184692 0.0193817 0.711052)
(-0.0242828 0.0712689 0.632341)
(-0.0817647 0.000539963 0.0941407)
(-0.0648784 0.118521 0.613296)
(-0.223057 0.116047 0.384631)
(-0.148228 0.07995 0.239248)
(0.0277401 0.0650529 -0.121053)
(-0.200649 0.183509 0.684618)
(-0.164455 0.247195 1.17391)
(-0.0886883 0.0209379 0.810457)
(0.0671254 -0.0396996 0.40695)
(0.111705 0.109043 -0.228406)
(0.00783468 0.00786506 -0.00250955)
(-0.0151704 0.222524 0.843674)
(-0.00340472 0.258815 0.304076)
(-0.161724 0.319123 0.897353)
(-0.238919 0.23862 1.03674)
(-0.203578 0.156546 1.5816)
(0.0730482 0.285086 0.269256)
(-0.00227526 0.00134982 -0.000325979)
(-0.0429132 0.127922 0.424636)
(-0.145644 0.0967048 0.992179)
(-0.323783 0.172547 1.25364)
(-0.339298 -0.0110965 0.725824)
(-0.184512 0.222602 1.67086)
(0.216605 -0.00828097 0.223767)
(0.169285 0.0897029 0.99163)
(-0.131361 0.0889793 0.840349)
(-0.10428 0.00436523 0.066334)
(-0.121726 0.111137 0.611672)
(-0.260467 0.0951929 0.395627)
(-0.0651115 0.0808262 0.22886)
(0.061075 0.0614455 -0.000333086)
(-0.0921599 0.174533 0.633663)
(-0.224849 0.214792 1.18442)
(-0.0385177 0.0508881 0.662636)
(0.0194669 -0.0407758 0.385088)
(-0.0876313 0.150407 -0.101663)
(-0.14631 -0.0116429 -0.0520925)
(0.0158532 0.191958 0.889945)
(0.0766483 0.0913092 0.363546)
(-0.178053 0.294491 1.04045)
(-0.198406 0.284364 1.11709)
(-0.137373 0.297074 1.50341)
(0.0906927 0.225222 0.312858)
(-0.0610304 0.0398098 -0.00771077)
(0.0159122 -0.0212756 0.612914)
(-0.187633 0.111674 1.0877)
(-0.331725 0.148578 1.34989)
(-0.144754 0.362204 0.931003)
(-0.116307 0.222531 1.11484)
(0.0337099 0.0312447 0.122323)
(0.0280552 0.201548 0.451894)
(-0.0313689 0.20272 1.24485)
(-0.109878 0.0915426 0.728737)
(-0.105906 -0.00356992 -0.0964668)
(-0.108463 0.0801996 0.678824)
(-0.205926 0.0415728 0.36373)
(-0.186723 -0.00585832 0.128669)
(-0.0566106 0.0195667 -0.0740964)
(-0.0342555 0.137419 0.735244)
(-0.225735 0.227836 1.09055)
(-0.0631565 0.0424332 0.502635)
(-0.120792 -0.130822 0.322742)
(-0.146837 0.0696784 -0.110672)
(-0.0124544 -0.0191056 -0.121939)
(0.0398823 0.119639 0.727753)
(0.0535541 0.021871 0.519636)
(-0.0805276 0.316656 1.1591)
(-0.179584 0.337249 1.09117)
(-0.000542883 0.361237 1.24009)
(-0.0458957 -0.0318798 0.352253)
(-0.0172411 -0.061756 -0.00188508)
(0.10019 -0.0725251 0.631097)
(-0.131852 0.0900274 1.2534)
(-0.338706 0.128206 1.38142)
(-0.0985302 0.430261 1.02509)
(-0.000449941 0.0838254 0.860739)
(0.189496 -0.0220231 0.192169)
(-0.0516512 0.137714 0.653516)
(-0.124486 0.171538 1.44655)
(-0.137681 0.156073 0.833367)
(-0.0171734 -0.00224763 -0.128456)
(-0.0857376 0.0432906 0.725255)
(-0.191803 -0.0328316 0.367568)
(-0.2664 -0.0215653 0.0382962)
(-0.137289 -0.0344178 -0.064649)
(-0.0583956 0.0891766 0.835641)
(-0.246045 0.177686 0.897703)
(-0.206811 -0.137125 0.402373)
(-0.251357 -0.259159 0.213737)
(-0.0906199 -0.197387 -0.12425)
(0.0342045 -0.137799 -0.126114)
(0.0116478 0.104081 0.692365)
(0.0508804 0.021164 0.657851)
(-0.0371887 0.307423 1.19596)
(-0.191753 0.334111 1.02855)
(0.0750734 0.0990216 0.97375)
(0.143941 -0.225644 0.442834)
(0.157419 -0.191392 0.0170602)
(0.0342355 -0.0810538 0.66762)
(-0.0624447 0.0404 1.38116)
(-0.299991 0.120907 1.41297)
(-0.0978849 0.40745 0.96034)
(-0.0158836 -0.055341 0.852154)
(-0.0455388 0.0820342 0.774168)
(-0.0055421 0.0501622 1.66895)
(-0.115273 0.217977 1.07727)
(0.0925257 0.003078 -0.101802)
(0.0514728 -0.0966614 0.825416)
(-0.0965445 -0.096894 0.481609)
(-0.245196 0.0101432 -0.00762294)
(-0.1326 -0.0128125 -0.0763499)
(-0.0866725 0.0348185 0.94895)
(-0.26604 0.0320172 0.798173)
(-0.348579 -0.202963 0.363148)
(-0.297272 -0.213465 0.141658)
(-0.0665748 -0.263942 -0.0546755)
(-0.0347174 0.103647 0.75725)
(0.0740751 0.0336869 0.771086)
(0.0132869 0.236805 1.27355)
(-0.218876 0.234747 0.918121)
(-0.111493 -0.252958 0.639454)
(0.0482663 -0.381205 0.322329)
(-0.0998469 -0.0817996 0.753361)
(-0.0684283 -0.00684347 1.43618)
(-0.250891 0.090389 1.48064)
(-0.0631535 0.211123 0.800263)
(0.0729439 -0.169742 0.788673)
(-0.025937 0.0691782 0.794811)
(0.0417473 -0.154382 1.84613)
(0.0567978 0.174071 1.48049)
(0.195259 0.00799404 -0.0505975)
(0.233879 -0.282305 0.841498)
(0.165243 -0.132298 0.627098)
(-0.171152 0.0388163 0.0122416)
(-0.116952 0.0502723 -0.110658)
(-0.0734469 -0.0380459 0.997718)
(-0.255331 -0.0872267 0.80513)
(-0.364701 -0.143929 0.354634)
(-0.266421 0.0115393 0.143135)
(-0.0972691 -0.216298 -0.0547057)
(0.000702651 0.00926891 0.823986)
(0.115316 -0.00778348 0.900587)
(0.0720512 0.128745 1.31431)
(-0.281709 0.112123 0.910369)
(-0.223027 -0.220821 0.420334)
(0.00607467 -0.272218 0.20829)
(-0.183284 -0.121568 0.787984)
(-0.0966164 -0.0986815 1.47021)
(-0.252528 0.0155331 1.5105)
(-0.169214 0.0279203 0.637093)
(0.0218716 -0.12658 0.428206)
(-0.0171766 0.0725419 0.805144)
(0.00528185 -0.107284 1.89381)
(0.0790825 0.0482728 1.60824)
(0.27309 0.0130908 0.0155594)
(0.340273 -0.371728 0.805101)
(0.38013 -0.108893 0.66027)
(-0.0518546 0.0482258 0.118583)
(-0.0711457 0.121802 -0.141563)
(0.0303806 -0.15884 1.01458)
(-0.238422 -0.0996084 0.854513)
(-0.307126 -0.0563264 0.366144)
(-0.205834 0.166891 0.0775162)
(-0.120285 -0.195631 -0.106329)
(-0.00388115 -0.239019 0.70285)
(0.0552952 -0.0923917 1.02905)
(-0.00492337 0.0180383 1.35002)
(-0.303963 0.027282 0.988082)
(-0.173735 -0.00208201 0.310712)
(-0.00744833 -0.165626 0.103418)
(-0.219866 -0.137073 0.728064)
(-0.0869291 -0.210646 1.50452)
(-0.24406 -0.172768 1.54077)
(-0.0929902 0.0263644 0.560093)
(0.0533529 -0.106565 0.131777)
(0.0253856 0.0658952 0.877569)
(-0.0312095 -0.110053 1.80361)
(0.126201 -0.0494779 1.42409)
(0.317493 0.0141362 0.0868056)
(0.378165 -0.386521 0.733033)
(0.460421 -0.112412 0.650885)
(0.0508614 0.0165923 0.238161)
(-0.0253056 0.172566 -0.155407)
(0.184917 -0.24959 1.03264)
(-0.179681 -0.0496642 0.969461)
(-0.219366 -0.0715242 0.443157)
(-0.119582 0.189486 0.0235717)
(-0.121704 -0.183349 -0.166765)
(-0.0580934 -0.339787 0.630834)
(0.00515656 -0.203111 1.16295)
(-0.0375956 -0.100803 1.46235)
(-0.231177 -0.132116 1.11857)
(-0.051294 0.0255498 0.284716)
(0.0216924 -0.14664 0.0186213)
(-0.282721 -0.115403 0.609626)
(-0.0186891 -0.310514 1.47493)
(-0.175868 -0.358161 1.50681)
(0.0269889 -0.0289908 0.578054)
(0.0859718 -0.130083 0.014511)
(0.201106 0.0736179 0.889605)
(-0.162394 -0.188152 1.45886)
(0.307827 -0.15404 1.24321)
(0.328917 0.0125193 0.157281)
(0.356523 -0.367213 0.660985)
(0.452673 -0.118027 0.65595)
(0.0996021 -0.0319585 0.347669)
(0.00301252 0.196411 -0.136095)
(0.182195 -0.383401 1.04104)
(-0.0636816 -0.0672836 1.13408)
(-0.094821 -0.145782 0.591986)
(-0.0163198 0.13929 0.0397642)
(-0.105591 -0.184076 -0.197075)
(-0.0782447 -0.384602 0.73419)
(-0.208236 -0.401595 1.18515)
(0.0489611 -0.197074 1.58237)
(-0.0815125 -0.268484 1.18902)
(0.0749997 -0.0432039 0.326934)
(0.0660231 -0.148231 -0.0114135)
(-0.14977 -0.192958 0.386167)
(0.0847691 -0.282532 1.43457)
(-0.0266623 -0.378604 1.41537)
(0.121319 -0.131957 0.691609)
(0.0943815 -0.142036 -0.00862343)
(0.388759 0.0915491 0.784473)
(0.134524 -0.122375 1.19832)
(0.304742 -0.163576 0.971103)
(0.32356 0.00949708 0.219705)
(0.303408 -0.346013 0.660903)
(0.384351 -0.130881 0.699198)
(0.12046 -0.0620155 0.44751)
(0.0100029 0.198894 -0.0967071)
(0.0274838 -0.47289 1.02731)
(0.0233653 -0.151128 1.24782)
(0.00128388 -0.163698 0.730591)
(0.0683895 0.0739826 0.115969)
(-0.0777415 -0.189792 -0.176052)
(-0.0295166 -0.250881 0.864524)
(-0.170507 -0.416505 1.05192)
(0.0701784 -0.28243 1.60412)
(0.00765447 -0.31508 1.18385)
(0.141332 -0.0762867 0.378109)
(0.0944458 -0.14849 0.00784539)
(0.0782369 -0.0665284 0.264572)
(0.192699 -0.195117 1.21864)
(0.1398 -0.226882 1.28226)
(0.169333 -0.102392 0.764518)
(0.0987626 -0.141755 0.024943)
(0.312898 0.139749 0.569051)
(0.28333 -0.0578606 1.08864)
(0.265343 -0.111875 0.87647)
(0.313384 0.00550274 0.277895)
(0.23198 -0.258299 0.728063)
(0.303821 -0.174117 0.774203)
(0.147984 -0.0672452 0.549362)
(0.00206441 0.176055 -0.0379328)
(0.0373734 -0.400059 0.975514)
(0.0407445 -0.198551 1.32074)
(0.056412 -0.177372 0.856412)
(0.121835 0.0180066 0.208139)
(-0.038814 -0.191838 -0.110536)
(0.0326872 0.0818656 0.403506)
(0.129606 0.0124043 0.862046)
(0.0315832 -0.320614 1.58719)
(0.0215062 -0.325269 1.14522)
(0.163056 -0.0684541 0.416504)
(0.105794 -0.144894 0.0529179)
(0.12947 0.0594292 0.210331)
(0.0901987 -0.150549 0.93133)
(0.122998 -0.0954171 1.19871)
(0.145971 -0.0695122 0.792691)
(0.0993895 -0.134468 0.0768902)
(0.0181065 0.0636068 0.271385)
(0.278585 -0.025953 1.06569)
(0.243539 -0.0880584 0.936767)
(0.2963 0.00674842 0.333674)
(0.0861413 -0.134222 0.755657)
(0.240628 -0.15488 0.863493)
(0.183643 -0.0429678 0.651431)
(-0.0146963 0.138132 0.0391183)
(0.0494732 -0.117023 0.875253)
(0.00626605 -0.217078 1.34566)
(0.0841156 -0.1824 0.943498)
(0.137545 -0.0300529 0.293666)
(-0.0189605 -0.197973 -0.0221873)
(-0.013958 0.137415 0.230239)
(0.112266 0.137706 0.779393)
(-0.0625018 -0.303888 1.55673)
(-0.00655614 -0.313782 1.04194)
(0.168175 -0.0680574 0.44776)
(0.119649 -0.150186 0.109643)
(0.130702 0.185466 0.175329)
(-0.0407785 -0.09887 0.755428)
(0.0598431 -0.0921424 1.08086)
(0.0918129 -0.116871 0.78246)
(0.100983 -0.132634 0.132986)
(-0.0425884 0.117127 0.157403)
(0.299948 -0.0339575 1.06636)
(0.24879 -0.0895772 1.03694)
(0.261255 0.0105316 0.379647)
(0.0140992 -0.0273409 0.755433)
(0.215436 -0.0920379 0.929269)
(0.198484 -0.0339679 0.765445)
(-0.0302993 0.101127 0.136286)
(-0.0771787 -0.00150793 0.752478)
(0.000715083 -0.227932 1.33713)
(0.10648 -0.153641 1.00266)
(0.129471 -0.0700215 0.368402)
(-0.0082413 -0.204294 0.0915637)
(-0.0810614 0.114523 0.41586)
(-0.219213 0.0716711 0.693269)
(-0.130955 -0.286476 1.42629)
(-0.042245 -0.206711 0.920738)
(0.168363 -0.0923191 0.471121)
(0.137531 -0.172892 0.176806)
(0.141277 0.258789 0.193378)
(-0.0294079 0.00671571 0.622611)
(0.0192503 -0.155851 0.920664)
(0.0901235 -0.244029 0.739033)
(0.114082 -0.142829 0.195396)
(0.160836 0.135648 0.112096)
(0.334335 -0.0336131 1.08059)
(0.263163 -0.100896 1.11489)
(0.227166 0.00967582 0.412991)
(0.0479872 -0.0454507 0.666001)
(0.211394 -0.0663383 0.949563)
(0.204998 -0.0491122 0.880875)
(-0.0313139 0.0696082 0.242896)
(-0.125476 0.0896167 0.758327)
(0.0173239 -0.227585 1.32268)
(0.116085 -0.130865 1.02476)
(0.129483 -0.097897 0.448054)
(-0.00909082 -0.193515 0.228506)
(-0.0106033 0.121978 0.635128)
(-0.209473 0.103672 0.521967)
(-0.0939067 -0.255207 1.29461)
(0.00510374 -0.10795 0.856803)
(0.157355 -0.125788 0.466535)
(0.150807 -0.210563 0.251963)
(0.148156 0.282067 0.258882)
(0.022365 0.0876889 0.52248)
(0.0110099 -0.163089 0.821298)
(0.0961175 -0.275408 0.68675)
(0.135011 -0.160931 0.253029)
(0.26545 0.128005 0.131991)
(0.301887 -0.0134034 1.07526)
(0.240395 -0.0628376 1.16379)
(0.215406 0.00754909 0.458387)
(0.075798 -0.0423605 0.575557)
(0.19092 -0.0768886 0.97957)
(0.178129 -0.072849 0.966635)
(-0.0212099 0.0460156 0.359543)
(-0.0625925 0.0893281 0.817348)
(0.0524173 -0.195033 1.30578)
(0.122242 -0.11761 1.01705)
(0.143709 -0.113402 0.52669)
(0.0201597 -0.138494 0.39048)
(0.00497789 0.119488 0.605614)
(-0.0917445 0.124777 0.460421)
(-0.0815025 -0.136716 1.15341)
(0.0806978 -0.0827596 0.77446)
(0.124434 -0.140689 0.451475)
(0.121443 -0.239746 0.330445)
(0.122894 0.243176 0.338946)
(0.00843558 0.125804 0.476639)
(-0.0371139 -0.118068 0.754115)
(0.0946659 -0.201349 0.657602)
(0.149892 -0.191734 0.296876)
(0.258143 0.115472 0.214595)
(0.218422 0.0792225 1.05916)
(0.154894 -0.0967964 1.15066)
(0.20514 0.00607861 0.537473)
(0.0565153 -0.0253123 0.533353)
(0.109349 -0.0973401 0.999754)
(0.131031 -0.10634 1.00078)
(-0.0102634 0.0203228 0.484735)
(0.0131485 0.0305382 0.868729)
(0.107822 -0.146665 1.22854)
(0.148979 -0.112981 1.00791)
(0.164257 -0.127772 0.596165)
(0.0564954 -0.104605 0.561975)
(-0.000549667 0.0944191 0.514511)
(-0.0993607 0.101899 0.453005)
(-0.112816 -0.00418785 0.974114)
(0.0804306 -0.0842229 0.706542)
(0.0230047 -0.090312 0.44217)
(0.0620122 -0.0998975 0.419081)
(0.0570345 0.187526 0.417363)
(-0.0513564 0.14554 0.489564)
(-0.110407 -0.0523887 0.672634)
(0.0803039 -0.0898331 0.54569)
(0.0776974 -0.106308 0.347311)
(0.200852 0.123387 0.341861)
(0.0568916 0.0257835 1.11431)
(0.0622632 -0.0934603 0.801869)
(0.183425 0.00677422 0.643518)
(0.0465275 -0.0574755 0.571576)
(0.0333327 -0.103126 0.985169)
(0.122134 -0.128267 0.979949)
(0.00976763 -0.00105109 0.619968)
(-0.0397605 -0.0621239 0.826155)
(0.0718758 -0.130607 1.12015)
(0.173421 -0.132029 0.974492)
(0.161481 -0.139468 0.675807)
(-0.0126264 -0.0845755 0.716204)
(-0.00758765 0.0605125 0.524024)
(-0.176494 0.0345827 0.493113)
(-0.15378 0.0573976 0.794206)
(-0.00592994 -0.0491634 0.653402)
(-0.0732519 -0.00961477 0.405975)
(-0.0348666 0.0737023 0.381701)
(0.0299637 0.148779 0.477215)
(-0.103377 0.139636 0.552249)
(-0.147366 -0.00255283 0.616205)
(-0.0926917 0.0122171 0.461126)
(-0.0554218 0.0830475 0.365576)
(0.0844964 0.142384 0.537944)
(-0.112788 -0.0246298 1.16705)
(0.063882 0.00790397 0.719191)
(0.159052 0.00731926 0.74915)
(0.0680522 -0.0945612 0.696155)
(0.0441533 -0.119833 0.939084)
(0.118423 -0.120258 0.975223)
(0.0408714 -0.00427396 0.756464)
(-0.0866917 -0.0880735 0.747641)
(-0.0326532 -0.114386 0.969193)
(0.158549 -0.151559 0.909586)
(0.0903809 -0.10348 0.760625)
(-0.0423065 -0.0762847 0.811975)
(-0.0100041 0.0561925 0.645892)
(-0.197859 -0.0128761 0.536984)
(-0.168534 0.035014 0.663032)
(-0.0719687 0.0022967 0.580444)
(-0.0739712 0.0130674 0.342424)
(-0.0495794 0.0661386 0.307267)
(0.0451039 0.100829 0.509237)
(-0.0956846 0.0809512 0.633621)
(-0.147985 0.0228899 0.591953)
(-0.13999 0.0455067 0.437607)
(-0.062639 0.0894009 0.300045)
(0.0474363 0.112439 0.717207)
(-0.161976 -0.00502991 1.13518)
(0.0310352 0.0198716 0.775517)
(0.159868 0.0083806 0.840111)
(0.0649933 -0.0935033 0.795589)
(0.0211471 -0.165649 0.907305)
(0.115643 -0.0813986 1.00366)
(0.0462766 0.0109732 0.873282)
(-0.107684 -0.0323163 0.707797)
(-0.107402 -0.104239 0.821368)
(0.0798549 -0.117961 0.858194)
(-0.0382103 -0.00966422 0.804888)
(-0.0655908 -0.0430337 0.831579)
(0.00627825 0.0944687 0.793378)
(-0.18954 -0.0388701 0.578053)
(-0.140237 -0.0422337 0.585203)
(-0.0641822 0.0270533 0.499552)
(-0.0509304 0.0221876 0.301371)
(-0.0316274 0.0604153 0.259616)
(0.0669675 0.0593764 0.522266)
(-0.0264394 -0.0301236 0.710115)
(-0.126834 0.0333004 0.583526)
(-0.135802 0.0375867 0.404911)
(-0.0532355 0.0784214 0.248227)
(-0.00686138 0.070107 0.913887)
(-0.110893 0.0107376 1.04233)
(0.00948116 0.00442499 0.822935)
(0.171451 0.00677204 0.933985)
(0.0479597 -0.0850856 0.881171)
(-0.00292289 -0.156617 0.891332)
(0.0957848 -0.0537388 1.05045)
(0.0189355 0.0319646 0.96252)
(-0.147202 -0.00446828 0.701932)
(-0.147935 -0.112636 0.724193)
(-0.0469031 -0.0436413 0.807909)
(-0.109792 0.048694 0.77988)
(-0.0583083 0.0794563 0.725286)
(0.0144724 0.157084 0.868133)
(-0.129974 -0.00215372 0.647804)
(-0.0739067 -0.105101 0.547393)
(-0.0206844 0.0278956 0.450416)
(-0.0272084 0.0326779 0.290023)
(-0.0207374 0.0695461 0.240071)
(0.0993468 0.0494984 0.52014)
(0.065785 -0.124102 0.732804)
(-0.0708373 0.0175887 0.596586)
(-0.117206 0.0315744 0.356486)
(-0.0441986 0.0751311 0.230056)
(0.0224753 -0.0131624 1.00409)
(-0.0606705 0.0475191 0.969917)
(-0.00842252 0.00224768 0.818104)
(0.170079 0.00431566 1.02056)
(0.0300932 -0.0774158 0.956699)
(-0.00645201 -0.1171 0.864934)
(0.0726233 -0.0306916 1.07613)
(0.009134 0.0470344 1.00957)
(-0.185083 0.0062067 0.718821)
(-0.166161 -0.130281 0.680539)
(-0.135908 -0.0294871 0.763932)
(-0.105929 0.0500775 0.734101)
(0.00985768 0.0989673 0.576368)
(0.0145933 0.21736 0.889447)
(-0.043662 0.0478215 0.716727)
(-0.0104062 -0.102553 0.537894)
(0.0233818 0.0283111 0.443038)
(0.000696567 0.0449913 0.295338)
(-0.0125769 0.0632285 0.244917)
(0.134442 0.0809503 0.495842)
(0.143209 -0.161078 0.706901)
(0.0628896 -0.0281603 0.632697)
(-0.0871416 0.0284557 0.335881)
(-0.0351401 0.0665027 0.23088)
(0.115293 -0.0157857 0.95707)
(-0.0190734 0.0801221 0.962415)
(-0.0353892 0.0346882 0.787546)
(0.143207 0.0048485 1.08056)
(0.0180459 -0.0839026 1.03317)
(-0.00526272 -0.0800612 0.860878)
(0.0264085 0.012397 1.09558)
(-0.0308633 0.0206925 1.05196)
(-0.197178 0.0194993 0.737018)
(-0.155958 -0.147777 0.670327)
(-0.156208 -0.0784929 0.726211)
(-0.0303646 0.0196778 0.625914)
(0.0591391 0.0402859 0.496252)
(0.0143267 0.204978 0.897816)
(0.080378 0.0195343 0.734649)
(0.0253628 -0.0386163 0.54282)
(0.0517607 0.0661568 0.446001)
(0.0268776 0.0586648 0.305512)
(-0.00363166 0.0483472 0.260816)
(0.147453 0.128545 0.460978)
(0.17075 -0.140828 0.663929)
(0.144715 -0.0644812 0.663639)
(-0.0367221 0.039178 0.362961)
(-0.0271818 0.0547666 0.242529)
(0.169043 -0.0593316 0.726524)
(0.0149996 0.0953316 1.02939)
(-0.0253647 0.0589517 0.8212)
(0.102634 0.0040822 1.11369)
(-0.0103748 -0.0311532 1.11124)
(-0.029447 -0.0568392 0.869217)
(-0.0212405 0.0318945 1.11453)
(-0.0431454 -0.00153514 1.08302)
(-0.169734 0.0636046 0.756009)
(-0.120685 -0.14832 0.665398)
(-0.10149 -0.118873 0.677874)
(0.0293981 0.0201479 0.546028)
(0.0772211 0.0246814 0.45247)
(0.0310281 0.0878196 0.765549)
(0.151387 0.00528014 0.707058)
(0.0205862 0.0532043 0.540614)
(0.0659034 0.127171 0.441953)
(0.0430616 0.0674284 0.319441)
(0.007198 0.0403864 0.286178)
(0.135706 0.15556 0.443003)
(0.142902 -0.0975242 0.62947)
(0.160037 -0.0923654 0.694461)
(0.0107322 0.0413402 0.420478)
(-0.0182321 0.0406614 0.264887)
(0.13074 0.0468809 0.594956)
(0.154303 0.0434679 1.20796)
(-0.0097167 0.0557795 0.889288)
(0.0724032 0.00216307 1.12703)
(-0.0521381 0.0372532 1.13022)
(-0.0479479 -0.0501457 0.872485)
(-0.0386214 0.0302206 1.12773)
(-0.0179835 0.0147833 1.09352)
(-0.0772856 0.154368 0.813714)
(-0.0695276 -0.100822 0.637261)
(-0.00289379 -0.0843803 0.595566)
(0.0453462 0.05286 0.496323)
(0.0835732 0.0491717 0.446091)
(0.0177368 0.153869 0.528428)
(0.144351 0.0798244 0.660476)
(-0.00169242 0.109647 0.526653)
(0.0659873 0.161649 0.432808)
(0.0515245 0.0694016 0.343891)
(0.0204042 0.0359227 0.325892)
(0.122264 0.165177 0.451348)
(0.0857341 -0.0201371 0.613991)
(0.141181 -0.0968214 0.718255)
(0.0323652 0.0361199 0.494139)
(-0.00313185 0.0182069 0.304201)
(0.0709303 0.0897764 0.58996)
(0.297779 0.0094506 1.33799)
(0.0651818 0.00186891 0.997083)
(0.0494774 0.000577434 1.13079)
(-0.05658 0.0554102 1.07601)
(-0.052733 -0.0304206 0.888997)
(-0.059727 0.0307036 1.12372)
(-0.0534965 0.0416627 1.07844)
(0.0318471 0.170539 0.872655)
(0.0158659 -0.0140153 0.584593)
(0.0501059 -0.011041 0.529903)
(0.0264446 0.078223 0.462912)
(0.0659584 0.0925634 0.458276)
(0.0192785 0.212633 0.423825)
(0.122848 0.153698 0.603129)
(-0.0039445 0.132602 0.500862)
(0.0620961 0.173491 0.432181)
(0.0582616 0.06038 0.38334)
(0.0365902 0.0253823 0.381443)
(0.0937984 0.163765 0.491274)
(0.0328564 0.0730221 0.617542)
(0.0855911 -0.0898635 0.74188)
(0.0221701 0.0157491 0.58154)
(0.0199821 -0.0124513 0.366879)
(0.128195 0.125623 0.663315)
(0.37022 -0.0424048 1.39551)
(0.252573 -0.0726497 1.17727)
(0.0389735 -0.00186945 1.132)
(-0.0547608 0.0559283 1.01106)
(-0.0771279 -0.0162463 0.925231)
(-0.0887973 0.0278228 1.11452)
(-0.0785942 -0.0143324 1.0244)
(0.113019 0.12542 0.889801)
(0.0913899 0.0674145 0.535815)
(0.0683783 0.0456321 0.488358)
(-0.000675571 0.0729116 0.441388)
(0.0367624 0.115044 0.476946)
(0.0179012 0.186909 0.395653)
(0.0950481 0.215676 0.538735)
(0.00467387 0.150759 0.481536)
(0.0585977 0.17269 0.441717)
(0.0642494 0.0472042 0.432589)
(0.0520351 0.00871982 0.450354)
(0.0293584 0.145879 0.563348)
(-0.0139762 0.125667 0.629537)
(-0.00987033 -0.0748531 0.759205)
(-0.00771474 -0.0205575 0.66404)
(0.0414164 -0.0402359 0.449901)
(0.190846 0.144912 0.758258)
(0.373477 -0.0502335 1.37161)
(0.343309 -0.10411 1.36476)
(0.0304436 -0.00392189 1.13305)
(-0.0483629 0.0474049 0.94279)
(-0.0854461 -0.00219332 0.966262)
(-0.0964031 0.0220586 1.1085)
(0.00461054 -0.0195751 0.943723)
(0.158748 0.14853 0.799525)
(0.126649 0.128562 0.494182)
(0.0796528 0.0706671 0.455815)
(-0.0193754 0.0505312 0.439537)
(0.0213549 0.08277 0.521011)
(0.0166932 0.141368 0.39122)
(0.0387831 0.24221 0.498933)
(0.00166654 0.179355 0.46562)
(0.0492301 0.16021 0.46035)
(0.0623007 0.0382401 0.480887)
(0.067654 -0.0100952 0.520427)
(-0.0428681 0.131362 0.654198)
(-0.0614647 0.144213 0.64633)
(-0.105393 -0.0538303 0.757619)
(-0.0430366 -0.0574781 0.718125)
(0.0564992 -0.0573587 0.539552)
(0.179761 0.152778 0.823076)
(0.348546 0.00495445 1.30748)
(0.356206 -0.127235 1.51218)
(0.0305062 -0.00694766 1.15706)
(-0.0236167 -0.00318885 0.9591)
(-0.0652397 0.0167829 1.01245)
(-0.102764 0.00273151 1.11443)
(0.0345014 -0.0651118 0.881956)
(0.0788086 0.217296 0.516695)
(0.132892 0.161878 0.447236)
(0.0985498 0.0715986 0.421902)
(-0.021247 0.0256273 0.454676)
(-0.00737182 0.00243891 0.574634)
(0.0147202 0.0876385 0.390229)
(0.000173347 0.203427 0.49581)
(-0.011342 0.200811 0.447735)
(0.0394529 0.153361 0.469183)
(0.0477411 0.0366597 0.518278)
(0.0747436 -0.0269423 0.577452)
(-0.0871451 0.101083 0.76011)
(-0.110663 0.142304 0.664705)
(-0.162721 -0.0313503 0.733911)
(-0.0712818 -0.0837024 0.733277)
(0.0645088 -0.0661317 0.621511)
(0.15466 0.161771 0.893411)
(0.295956 0.0556217 1.2847)
(0.35903 -0.132257 1.57505)
(0.030678 -0.0111522 1.17737)
(0.083627 -0.022533 0.883783)
(-0.0550536 0.016506 1.04105)
(-0.0946715 -0.00847044 1.15558)
(-0.00834873 -0.0849432 0.903784)
(0.0126257 0.138558 0.364755)
(0.131983 0.1708 0.39981)
(0.127334 0.0723548 0.404814)
(-0.00450134 0.00993948 0.479296)
(-0.0599937 -0.0651567 0.540685)
(0.00639085 0.00879868 0.377057)
(0.0286488 0.117491 0.539938)
(-0.0114712 0.201998 0.432492)
(0.0394333 0.151014 0.472127)
(0.029037 0.0477561 0.542709)
(0.0731516 -0.02928 0.615297)
(-0.130392 0.0465209 0.872573)
(-0.156647 0.127539 0.670405)
(-0.188841 -0.00410421 0.698392)
(-0.0824132 -0.0849934 0.72964)
(0.0633977 -0.0631786 0.694965)
(0.145376 0.174216 0.93799)
(0.245164 0.122459 1.29718)
(0.285487 -0.0664648 1.69783)
(0.0505627 -0.00947495 1.19371)
(-0.0354523 0.0852344 0.621306)
(-0.00939205 -0.0152216 1.03653)
(-0.0621702 -0.0909636 1.10344)
(0.009377 -0.101209 0.993319)
(-0.00451468 0.0570746 0.340202)
(0.1272 0.161107 0.373815)
(0.155863 0.0722803 0.419273)
(0.0222552 0.0257771 0.516984)
(-0.0543281 -0.0777682 0.481411)
(-0.0049336 -0.0857406 0.352415)
(0.0878106 0.0155202 0.579595)
(0.0204604 0.157662 0.425748)
(0.0435436 0.137431 0.474941)
(0.0174716 0.0744413 0.560692)
(0.0607273 -0.00523672 0.639405)
(-0.130823 -0.0205247 0.984572)
(-0.18637 0.0963203 0.679483)
(-0.197291 0.0336476 0.69072)
(-0.061352 -0.0471343 0.734967)
(0.0515483 -0.0423003 0.761586)
(0.10612 0.165688 0.981219)
(-0.0292791 0.0829824 1.39741)
(0.200286 -0.0975835 1.68417)
(0.0788812 0.0121663 1.16025)
(-0.097787 0.0909689 0.499951)
(0.0573509 0.0845982 0.904279)
(0.114468 0.0367878 1.04032)
(0.0292968 -0.066934 1.06372)
(0.00498225 -0.0181233 0.382902)
(0.115332 0.115655 0.389536)
(0.15581 0.084543 0.453442)
(0.0532739 0.093824 0.574802)
(0.0151102 0.0191869 0.481157)
(-0.0137487 -0.162339 0.34038)
(0.121837 -0.116338 0.545822)
(0.0902904 0.0259918 0.436131)
(0.0522019 0.106656 0.487821)
(0.016833 0.112083 0.585184)
(0.0346956 0.0385096 0.659216)
(-0.105786 -0.102812 1.05223)
(-0.170263 0.0639989 0.703362)
(-0.185167 0.0826971 0.714637)
(-0.0314916 0.0381996 0.752908)
(0.0287048 -0.00795261 0.823679)
(-0.094266 0.0735024 1.17616)
(-0.250454 -0.0767777 1.34021)
(0.0487738 -0.102737 1.28062)
(0.229774 0.0258562 1.0423)
(-0.0385166 0.0277143 0.506594)
(0.0832731 0.138093 0.664873)
(0.331116 0.218033 0.959954)
(0.128748 0.063221 1.10619)
(0.0188141 -0.0643236 0.4496)
(0.0960963 0.0322554 0.446007)
(0.0994771 0.115991 0.503057)
(0.069588 0.180296 0.619944)
(0.074323 0.140387 0.522401)
(-0.0174534 -0.204948 0.380579)
(0.11164 -0.222007 0.471901)
(0.126353 -0.081049 0.451003)
(0.0744283 0.0615517 0.518937)
(0.0283859 0.138103 0.624845)
(0.0147456 0.100114 0.690729)
(-0.11858 -0.172109 1.03648)
(-0.0629148 -0.00170508 0.711771)
(-0.147219 0.10373 0.736253)
(-0.0205824 0.0875503 0.776444)
(-0.000723819 0.037423 0.882597)
(-0.19722 0.0513507 1.37757)
(-0.14182 0.00389736 1.10889)
(0.0136936 -0.0313833 1.07495)
(0.188522 0.0139818 0.927184)
(0.00572195 -0.012677 0.532947)
(0.0605484 0.0494296 0.58132)
(0.229575 0.231234 0.730866)
(0.193697 0.150213 1.12824)
(0.027003 -0.0791683 0.510547)
(0.07156 -0.0105915 0.497017)
(0.0220139 0.129423 0.55723)
(0.0764476 0.236341 0.65435)
(0.126658 0.250927 0.581839)
(-0.0220899 -0.187817 0.478921)
(0.0441626 -0.237121 0.448458)
(0.132059 -0.149591 0.457294)
(0.104275 0.0228615 0.557876)
(0.0464714 0.124623 0.688729)
(0.00986423 0.15037 0.766061)
(-0.00996515 -0.185564 0.984563)
(0.0944959 -0.0965696 0.691124)
(-0.0524204 0.0717066 0.75694)
(-0.0200646 0.0762195 0.830022)
(-0.0230485 0.0761321 0.937403)
(-0.235896 -0.0295818 1.48538)
(-0.0430857 0.0705455 0.990679)
(0.0211823 0.00121155 1.02022)
(0.0888197 0.0185274 0.694587)
(0.0140944 -0.0202874 0.543207)
(0.0265954 -0.00770511 0.560921)
(0.064667 0.151925 0.570168)
(0.161207 0.209862 1.04381)
(0.0140608 -0.0642742 0.569996)
(0.037084 -0.0169632 0.548034)
(-0.0346647 0.106303 0.609561)
(0.0814108 0.235193 0.681365)
(0.175453 0.319252 0.667951)
(-0.0119982 -0.0962731 0.608615)
(-0.00945815 -0.192584 0.497725)
(0.125861 -0.164474 0.455705)
(0.129581 -0.0147397 0.605197)
(0.0640057 0.0486708 0.791536)
(0.01646 0.139911 0.884961)
(-0.0577644 -0.280956 0.738862)
(0.184803 -0.152695 0.618353)
(0.0593133 0.00797273 0.795717)
(0.00101861 0.0252327 0.910629)
(-0.026571 0.087774 0.993175)
(-0.145376 -0.115092 1.31663)
(0.0475265 0.0379673 0.980547)
(0.026646 0.00803044 1.01913)
(0.13537 0.013075 0.600731)