/*--------------------------------*- C++ -*----------------------------------*\
| =========                 |                                                 |
| \\      /  F ield         | OpenFOAM: The Open Source CFD Toolbox           |
|  \\    /   O peration     | Version:  5.x                                   |
|   \\  /    A nd           | Web:      www.OpenFOAM.org                      |
|    \\/     M anipulation  |                                                 |
\*---------------------------------------------------------------------------*/
FoamFile
{
    version     2.0;
    format      ascii;
    class       volVectorField;
    location    "7";
    object      Us;
}
// * * * * * * * * * * * * * * * * * * * * * * * * * * * * * * * * * * * * * //

dimensions      [0 1 -1 0 0 0 0];

internalField   nonuniform List<vector> 
10571
(
(-0.0672929 0.00463292 -0.163308)
(-0.0627445 0.0693248 -0.0635684)
(-0.116438 0.0833415 -0.151924)
(-0.0782116 0.0573488 -0.166552)
(-0.0197011 0.0218139 -0.166284)
(-0.0851252 0.187946 -0.0715055)
(-0.169676 0.16057 -0.128746)
(-0.124596 0.0853121 -0.150949)
(-0.0409425 0.0578046 -0.167225)
(0.00487894 0.0585881 -0.161991)
(-0.00857786 0.0704115 -0.00970953)
(-0.117912 0.164686 -0.00384269)
(-0.184494 0.140768 -0.12138)
(-0.110255 0.126564 -0.149638)
(-0.0403611 0.108193 -0.167769)
(0.0266907 0.101909 -0.157353)
(-0.0146197 0.0480251 -0.00239179)
(-0.162494 0.204382 -0.0978153)
(-0.100347 0.192118 -0.132894)
(-0.03019 0.171003 -0.150747)
(-0.035114 0.125506 -0.14868)
(-0.0178899 -0.00467571 -0.00252091)
(-0.161333 0.0723137 -0.0538727)
(-0.107735 0.0682854 -0.0909195)
(-0.0566775 0.00694669 -0.0845039)
(-0.0815105 0.0763749 -0.0184641)
(-0.135503 0.0932563 -0.0388302)
(-0.0796928 0.0540658 -0.0674508)
(-0.0165571 0.0239326 -0.112863)
(-0.131431 0.153264 0.0302953)
(-0.193424 0.156608 0.11497)
(-0.139386 0.127262 0.0145312)
(-0.0695833 0.0968937 -0.0505701)
(-0.0139107 0.0534891 -0.0651144)
(-0.011046 0.0629559 0.049697)
(-0.216903 0.216605 0.0544466)
(-0.212697 0.172263 0.123229)
(-0.175994 0.163327 0.0774521)
(-0.093221 0.129776 0.071977)
(-0.0226988 0.0796695 -0.032654)
(-0.0187577 0.0588924 0.0546407)
(-0.189157 0.162518 0.137332)
(-0.194522 0.182108 0.167305)
(-0.0867162 0.120634 0.0344227)
(-0.048256 0.101597 -0.00167251)
(-0.0753165 -0.00250448 0.0420498)
(-0.184646 0.11764 0.101649)
(-0.136342 0.105342 0.0192007)
(-0.0682347 -0.000649194 -0.0458739)
(-0.093359 0.0830288 0.0934189)
(-0.186705 0.105509 0.0537001)
(-0.119661 0.0710865 -0.0526087)
(-0.0394729 0.0221218 -0.133825)
(-0.146368 0.132779 0.222146)
(-0.185908 0.190359 0.09699)
(-0.158287 0.163253 -0.0407461)
(-0.105127 0.131178 -0.133784)
(-0.0276112 0.0686877 -0.111709)
(-0.00681653 0.0630073 0.155897)
(-0.200865 0.227175 0.240656)
(-0.184136 0.181763 0.155664)
(-0.18988 0.175028 0.0546648)
(-0.152268 0.147195 0.032595)
(-0.0542955 0.102228 0.0658191)
(-0.029632 0.0670609 0.197202)
(-0.156484 0.124831 0.222574)
(-0.21555 0.167964 0.187051)
(-0.190174 0.158446 0.163747)
(-0.0666805 0.093688 0.236154)
(-0.101622 0.0289114 0.235608)
(-0.172462 0.081462 0.232467)
(-0.185386 0.106877 0.210062)
(-0.0762142 0.00897185 -0.131069)
(-0.109502 0.0625715 0.183088)
(-0.153273 0.085239 0.0255133)
(-0.119605 0.0656425 -0.13198)
(-0.0537787 0.0438694 -0.237815)
(-0.135985 0.0714241 0.297538)
(-0.163595 0.169742 0.105972)
(-0.133991 0.132668 -0.0736075)
(-0.0802097 0.114812 -0.196902)
(-0.0261761 0.0948614 -0.270904)
(-0.000299617 0.0689282 0.240502)
(-0.114917 0.165246 0.364763)
(-0.129118 0.164375 0.219684)
(-0.167587 0.156537 0.0581947)
(-0.132134 0.141047 0.0253748)
(-0.0531 0.134825 0.0173362)
(-0.0266935 0.0849578 0.332241)
(-0.0900839 0.0737409 0.338639)
(-0.200862 0.146179 0.241162)
(-0.191241 0.150319 0.16794)
(-0.0883118 0.128241 0.204665)
(-0.0425002 -0.00214034 0.333796)
(-0.0978708 0.0755748 0.38947)
(-0.198549 0.133744 0.303023)
(0 0 0)
(0 0 0)
(0 0 0)
(-1.82468e-14 3.84536e-14 -3.1118e-13)
(0.0356651 0.0464344 -0.557381)
(0 0 0)
(-1.0791e-14 9.19567e-14 -2.90864e-13)
(0 0 0)
(0.0271592 0.125849 -0.533542)
(0.027867 0.0854843 -0.502207)
(-0.0447966 0.0832762 0.377177)
(-0.108746 0.149093 0.370293)
(-0.0695589 0.133294 0.344334)
(0.0838644 -0.163704 0.332815)
(0 0 0)
(0.0478864 0.212341 -0.520088)
(-0.0652264 0.106097 0.472742)
(-0.0583126 0.0355418 0.397519)
(-0.115874 0.103005 0.340528)
(0 0 0)
(0 0 0)
(-0.0604518 0.0391365 0.343508)
(0 0 0)
(0 0 0)
(0 0 0)
(0 0 0)
(0 0 0)
(0 0 0)
(0 0 0)
(0 0 0)
(0 0 0)
(0 0 0)
(0 0 0)
(0 0 0)
(0.0022332 0.00744752 -0.00262193)
(0 0 0)
(0 0 0)
(0 0 0)
(0 0 0)
(-0.058735 0.123912 -0.451256)
(0.022262 0.155678 -0.477332)
(-0.00281788 0.000872833 -0.000663821)
(0 0 0)
(0 0 0)
(0 0 0)
(0 0 0)
(0 0 0)
(0 0 0)
(0 0 0)
(0 0 0)
(0 0 0)
(0 0 0)
(0 0 0)
(0 0 0)
(0 0 0)
(0 0 0)
(0 0 0)
(0 0 0)
(0 0 0)
(3.32579e-14 6.03206e-14 -2.594e-13)
(0 0 0)
(0 0 0)
(0 0 0)
(0 0 0)
(0 0 0)
(-0.0451793 0.149257 -0.360414)
(0.012742 0.148415 -0.423063)
(0.106014 0.150859 -0.435332)
(0 0 0)
(0 0 0)
(0 0 0)
(0 0 0)
(0 0 0)
(0 0 0)
(0 0 0)
(0 0 0)
(0 0 0)
(0 0 0)
(0 0 0)
(0 0 0)
(0 0 0)
(0 0 0)
(0 0 0)
(0 0 0)
(0 0 0)
(0 0 0)
(0 0 0)
(0 0 0)
(0 0 0)
(0 0 0)
(0 0 0)
(0 0 0)
(0 0 0)
(0 0 0)
(0 0 0)
(0 0 0)
(0 0 0)
(0 0 0)
(0 0 0)
(0 0 0)
(0 0 0)
(0 0 0)
(0 0 0)
(0 0 0)
(0 0 0)
(0 0 0)
(0 0 0)
(0 0 0)
(0 0 0)
(0 0 0)
(0 0 0)
(0 0 0)
(0 0 0)
(0 0 0)
(0 0 0)
(0 0 0)
(0 0 0)
(0 0 0)
(0 0 0)
(0 0 0)
(0 0 0)
(0 0 0)
(0 0 0)
(0 0 0)
(0 0 0)
(0 0 0)
(0 0 0)
(0 0 0)
(0 0 0)
(0 0 0)
(0 0 0)
(0 0 0)
(0 0 0)
(0 0 0)
(0 0 0)
(0 0 0)
(0 0 0)
(0 0 0)
(0 0 0)
(0 0 0)
(0 0 0)
(0 0 0)
(0 0 0)
(0 0 0)
(0 0 0)
(0 0 0)
(0 0 0)
(0 0 0)
(0 0 0)
(0 0 0)
(0 0 0)
(0 0 0)
(0 0 0)
(0 0 0)
(0 0 0)
(0 0 0)
(0 0 0)
(0 0 0)
(0 0 0)
(0 0 0)
(0 0 0)
(0 0 0)
(0 0 0)
(0 0 0)
(0 0 0)
(0 0 0)
(0 0 0)
(0 0 0)
(0 0 0)
(0 0 0)
(0 0 0)
(0 0 0)
(0 0 0)
(0 0 0)
(0 0 0)
(0 0 0)
(0 0 0)
(0 0 0)
(0 0 0)
(0 0 0)
(0 0 0)
(0 0 0)
(0 0 0)
(0 0 0)
(0 0 0)
(0 0 0)
(0 0 0)
(0 0 0)
(0 0 0)
(0 0 0)
(0 0 0)
(0 0 0)
(0 0 0)
(0 0 0)
(0 0 0)
(0 0 0)
(0 0 0)
(0 0 0)
(0 0 0)
(0 0 0)
(0 0 0)
(0 0 0)
(0 0 0)
(0 0 0)
(0 0 0)
(0 0 0)
(0 0 0)
(0 0 0)
(0 0 0)
(0 0 0)
(0 0 0)
(0 0 0)
(0 0 0)
(0 0 0)
(0 0 0)
(0 0 0)
(0 0 0)
(0 0 0)
(0 0 0)
(0 0 0)
(0 0 0)
(0 0 0)
(0 0 0)
(0 0 0)
(0 0 0)
(0 0 0)
(0 0 0)
(0 0 0)
(0 0 0)
(0 0 0)
(0 0 0)
(0 0 0)
(0 0 0)
(0 0 0)
(0 0 0)
(0 0 0)
(0 0 0)
(0 0 0)
(0 0 0)
(0 0 0)
(0 0 0)
(0 0 0)
(0 0 0)
(0 0 0)
(0 0 0)
(0 0 0)
(0 0 0)
(0 0 0)
(0 0 0)
(0 0 0)
(0 0 0)
(0 0 0)
(0 0 0)
(0 0 0)
(0 0 0)
(0 0 0)
(0 0 0)
(0 0 0)
(0 0 0)
(0 0 0)
(0 0 0)
(0 0 0)
(0 0 0)
(0 0 0)
(0 0 0)
(0 0 0)
(0 0 0)
(0 0 0)
(0 0 0)
(0 0 0)
(0 0 0)
(0 0 0)
(0 0 0)
(0 0 0)
(0 0 0)
(0 0 0)
(0 0 0)
(0 0 0)
(0 0 0)
(0 0 0)
(0 0 0)
(0 0 0)
(0 0 0)
(0 0 0)
(0 0 0)
(0 0 0)
(0 0 0)
(0 0 0)
(0 0 0)
(0 0 0)
(0 0 0)
(0 0 0)
(0 0 0)
(0 0 0)
(0 0 0)
(0 0 0)
(0 0 0)
(0 0 0)
(0 0 0)
(0 0 0)
(0 0 0)
(0 0 0)
(0 0 0)
(0 0 0)
(0 0 0)
(0 0 0)
(0 0 0)
(0 0 0)
(0 0 0)
(0 0 0)
(0 0 0)
(0 0 0)
(0 0 0)
(0 0 0)
(0 0 0)
(0 0 0)
(0 0 0)
(0 0 0)
(0 0 0)
(0 0 0)
(0 0 0)
(0 0 0)
(0 0 0)
(0 0 0)
(0 0 0)
(0 0 0)
(0 0 0)
(0 0 0)
(0 0 0)
(0 0 0)
(0 0 0)
(0 0 0)
(0 0 0)
(0 0 0)
(0 0 0)
(0 0 0)
(0 0 0)
(0 0 0)
(0 0 0)
(0 0 0)
(0 0 0)
(0 0 0)
(0 0 0)
(0 0 0)
(0 0 0)
(0 0 0)
(0 0 0)
(0 0 0)
(0 0 0)
(0 0 0)
(0 0 0)
(0 0 0)
(0 0 0)
(0 0 0)
(0 0 0)
(0 0 0)
(0 0 0)
(0 0 0)
(0 0 0)
(0 0 0)
(0 0 0)
(0 0 0)
(0 0 0)
(0 0 0)
(0 0 0)
(0 0 0)
(0 0 0)
(0 0 0)
(0 0 0)
(0 0 0)
(0 0 0)
(0 0 0)
(0 0 0)
(0 0 0)
(0 0 0)
(0 0 0)
(0 0 0)
(0 0 0)
(0 0 0)
(0 0 0)
(0 0 0)
(0 0 0)
(0 0 0)
(0 0 0)
(0 0 0)
(0 0 0)
(0 0 0)
(0 0 0)
(0 0 0)
(0 0 0)
(0 0 0)
(0 0 0)
(0 0 0)
(0 0 0)
(0 0 0)
(0 0 0)
(0 0 0)
(0 0 0)
(0 0 0)
(0 0 0)
(0 0 0)
(0 0 0)
(0 0 0)
(0 0 0)
(0 0 0)
(0 0 0)
(0 0 0)
(0 0 0)
(0 0 0)
(0 0 0)
(0 0 0)
(0 0 0)
(0 0 0)
(0 0 0)
(0 0 0)
(0 0 0)
(0 0 0)
(0 0 0)
(0 0 0)
(0 0 0)
(0 0 0)
(0 0 0)
(0 0 0)
(0 0 0)
(0 0 0)
(0 0 0)
(0 0 0)
(0 0 0)
(0 0 0)
(0 0 0)
(0 0 0)
(0 0 0)
(0 0 0)
(0 0 0)
(0 0 0)
(0 0 0)
(0 0 0)
(0 0 0)
(0 0 0)
(0 0 0)
(0 0 0)
(0 0 0)
(0 0 0)
(0 0 0)
(0 0 0)
(0 0 0)
(0 0 0)
(0 0 0)
(0 0 0)
(0 0 0)
(0 0 0)
(0 0 0)
(0 0 0)
(0 0 0)
(0 0 0)
(0 0 0)
(0 0 0)
(0 0 0)
(0 0 0)
(0 0 0)
(0 0 0)
(0 0 0)
(0 0 0)
(0 0 0)
(0 0 0)
(0 0 0)
(0 0 0)
(0 0 0)
(0 0 0)
(0 0 0)
(0 0 0)
(0 0 0)
(0 0 0)
(0 0 0)
(0 0 0)
(0 0 0)
(0 0 0)
(0 0 0)
(0 0 0)
(0 0 0)
(0 0 0)
(0 0 0)
(0 0 0)
(0 0 0)
(0 0 0)
(0 0 0)
(0 0 0)
(0 0 0)
(0 0 0)
(0 0 0)
(0 0 0)
(0 0 0)
(0 0 0)
(0 0 0)
(0 0 0)
(0 0 0)
(0 0 0)
(0 0 0)
(0 0 0)
(0 0 0)
(0 0 0)
(0 0 0)
(0 0 0)
(0 0 0)
(0 0 0)
(0 0 0)
(0 0 0)
(0 0 0)
(0 0 0)
(0 0 0)
(0 0 0)
(0 0 0)
(0 0 0)
(0 0 0)
(0 0 0)
(0 0 0)
(0 0 0)
(0 0 0)
(0 0 0)
(0 0 0)
(0 0 0)
(0 0 0)
(0 0 0)
(0 0 0)
(0 0 0)
(0 0 0)
(0 0 0)
(0 0 0)
(0 0 0)
(0 0 0)
(0 0 0)
(0 0 0)
(0 0 0)
(0 0 0)
(0 0 0)
(0 0 0)
(0 0 0)
(0 0 0)
(0 0 0)
(0 0 0)
(0 0 0)
(0 0 0)
(0 0 0)
(0 0 0)
(0 0 0)
(0 0 0)
(0 0 0)
(0 0 0)
(0 0 0)
(0 0 0)
(0 0 0)
(0 0 0)
(0 0 0)
(0 0 0)
(0 0 0)
(0 0 0)
(0 0 0)
(0 0 0)
(0 0 0)
(0 0 0)
(0 0 0)
(0 0 0)
(0 0 0)
(0 0 0)
(0 0 0)
(0 0 0)
(0 0 0)
(0 0 0)
(0 0 0)
(0 0 0)
(0 0 0)
(0 0 0)
(0 0 0)
(0 0 0)
(0 0 0)
(0 0 0)
(0 0 0)
(0 0 0)
(0 0 0)
(0 0 0)
(0 0 0)
(0 0 0)
(0 0 0)
(0 0 0)
(0 0 0)
(0 0 0)
(0 0 0)
(0 0 0)
(0 0 0)
(0 0 0)
(0 0 0)
(0 0 0)
(0 0 0)
(0 0 0)
(0 0 0)
(0 0 0)
(0 0 0)
(0 0 0)
(0 0 0)
(0 0 0)
(0 0 0)
(0 0 0)
(0 0 0)
(0 0 0)
(0 0 0)
(0 0 0)
(0 0 0)
(0 0 0)
(0 0 0)
(0 0 0)
(0 0 0)
(0 0 0)
(0 0 0)
(0 0 0)
(0 0 0)
(0 0 0)
(0 0 0)
(0 0 0)
(0 0 0)
(0 0 0)
(0 0 0)
(0 0 0)
(0 0 0)
(0 0 0)
(0 0 0)
(0 0 0)
(0 0 0)
(0 0 0)
(0 0 0)
(0 0 0)
(0 0 0)
(0 0 0)
(0 0 0)
(0 0 0)
(0 0 0)
(0 0 0)
(0 0 0)
(0 0 0)
(0 0 0)
(0 0 0)
(0 0 0)
(0 0 0)
(0 0 0)
(0 0 0)
(0 0 0)
(0 0 0)
(0 0 0)
(0 0 0)
(0 0 0)
(0 0 0)
(0 0 0)
(0 0 0)
(0 0 0)
(0 0 0)
(0 0 0)
(0 0 0)
(0 0 0)
(0 0 0)
(0 0 0)
(0 0 0)
(0 0 0)
(0 0 0)
(0 0 0)
(0 0 0)
(0 0 0)
(0 0 0)
(0 0 0)
(0 0 0)
(0 0 0)
(0 0 0)
(0 0 0)
(0 0 0)
(0 0 0)
(0 0 0)
(0 0 0)
(0 0 0)
(0 0 0)
(0 0 0)
(0 0 0)
(0 0 0)
(0 0 0)
(0 0 0)
(0 0 0)
(0 0 0)
(0 0 0)
(0 0 0)
(0 0 0)
(0 0 0)
(0 0 0)
(0 0 0)
(0 0 0)
(0 0 0)
(0 0 0)
(0 0 0)
(0 0 0)
(0 0 0)
(0 0 0)
(0 0 0)
(0 0 0)
(0 0 0)
(0 0 0)
(0 0 0)
(0 0 0)
(0 0 0)
(0 0 0)
(0 0 0)
(0 0 0)
(0 0 0)
(0 0 0)
(0 0 0)
(0 0 0)
(0 0 0)
(0 0 0)
(0 0 0)
(0 0 0)
(0 0 0)
(0 0 0)
(0 0 0)
(0 0 0)
(0 0 0)
(0 0 0)
(0 0 0)
(0 0 0)
(0 0 0)
(0 0 0)
(0 0 0)
(0 0 0)
(0 0 0)
(0 0 0)
(0 0 0)
(0 0 0)
(0 0 0)
(0 0 0)
(0 0 0)
(0 0 0)
(0 0 0)
(0 0 0)
(0 0 0)
(0 0 0)
(0 0 0)
(0 0 0)
(0 0 0)
(0 0 0)
(0 0 0)
(0 0 0)
(0 0 0)
(0 0 0)
(0 0 0)
(0 0 0)
(0 0 0)
(0 0 0)
(0 0 0)
(0 0 0)
(0 0 0)
(0 0 0)
(0 0 0)
(0 0 0)
(0 0 0)
(0 0 0)
(0 0 0)
(0 0 0)
(0 0 0)
(0 0 0)
(0 0 0)
(0 0 0)
(0 0 0)
(0 0 0)
(0 0 0)
(0 0 0)
(0 0 0)
(0 0 0)
(0 0 0)
(0 0 0)
(0 0 0)
(0 0 0)
(0 0 0)
(0 0 0)
(0 0 0)
(0 0 0)
(0 0 0)
(0 0 0)
(0 0 0)
(0 0 0)
(0 0 0)
(0 0 0)
(0 0 0)
(0 0 0)
(0 0 0)
(0 0 0)
(0 0 0)
(0 0 0)
(0 0 0)
(0 0 0)
(0 0 0)
(0 0 0)
(0 0 0)
(0 0 0)
(0 0 0)
(0 0 0)
(0 0 0)
(0 0 0)
(0 0 0)
(0 0 0)
(0 0 0)
(0 0 0)
(0 0 0)
(0 0 0)
(0 0 0)
(0 0 0)
(0 0 0)
(0 0 0)
(0 0 0)
(0 0 0)
(0 0 0)
(0 0 0)
(0 0 0)
(0 0 0)
(0 0 0)
(0 0 0)
(0 0 0)
(0 0 0)
(0 0 0)
(0 0 0)
(0 0 0)
(0 0 0)
(0 0 0)
(0 0 0)
(0 0 0)
(0 0 0)
(0 0 0)
(0 0 0)
(0 0 0)
(0 0 0)
(0 0 0)
(0 0 0)
(0 0 0)
(0 0 0)
(0 0 0)
(0 0 0)
(0 0 0)
(0 0 0)
(0 0 0)
(0 0 0)
(0 0 0)
(0 0 0)
(0 0 0)
(0 0 0)
(0 0 0)
(0 0 0)
(0 0 0)
(0 0 0)
(0 0 0)
(0 0 0)
(0 0 0)
(0 0 0)
(0 0 0)
(0 0 0)
(0 0 0)
(0 0 0)
(0 0 0)
(0 0 0)
(0 0 0)
(0 0 0)
(0 0 0)
(0 0 0)
(0 0 0)
(0 0 0)
(0 0 0)
(0 0 0)
(0 0 0)
(0 0 0)
(0 0 0)
(0 0 0)
(0 0 0)
(0 0 0)
(0 0 0)
(0 0 0)
(0 0 0)
(0 0 0)
(0 0 0)
(0 0 0)
(0 0 0)
(0 0 0)
(0 0 0)
(0 0 0)
(0 0 0)
(0 0 0)
(0 0 0)
(0 0 0)
(0 0 0)
(0 0 0)
(0 0 0)
(0 0 0)
(0 0 0)
(0 0 0)
(0 0 0)
(0 0 0)
(0 0 0)
(0 0 0)
(0 0 0)
(0 0 0)
(0 0 0)
(0 0 0)
(0 0 0)
(0 0 0)
(0 0 0)
(0 0 0)
(0 0 0)
(0 0 0)
(0 0 0)
(0 0 0)
(0 0 0)
(0 0 0)
(0 0 0)
(0 0 0)
(0 0 0)
(0 0 0)
(0 0 0)
(0 0 0)
(0 0 0)
(0 0 0)
(0 0 0)
(0 0 0)
(0 0 0)
(0 0 0)
(0 0 0)
(0 0 0)
(0 0 0)
(0 0 0)
(0 0 0)
(0 0 0)
(0 0 0)
(0 0 0)
(0 0 0)
(0 0 0)
(0 0 0)
(0 0 0)
(0 0 0)
(0 0 0)
(0 0 0)
(0 0 0)
(0 0 0)
(0 0 0)
(0 0 0)
(0 0 0)
(0 0 0)
(0 0 0)
(0 0 0)
(0 0 0)
(0 0 0)
(0 0 0)
(0 0 0)
(0 0 0)
(0 0 0)
(0 0 0)
(0 0 0)
(0 0 0)
(0 0 0)
(0 0 0)
(0 0 0)
(0 0 0)
(0 0 0)
(0 0 0)
(0 0 0)
(0 0 0)
(0 0 0)
(0 0 0)
(0 0 0)
(0 0 0)
(0 0 0)
(0 0 0)
(0 0 0)
(0 0 0)
(0 0 0)
(0 0 0)
(0 0 0)
(0 0 0)
(0 0 0)
(0 0 0)
(0 0 0)
(0 0 0)
(0 0 0)
(0 0 0)
(0 0 0)
(0 0 0)
(0 0 0)
(0 0 0)
(0 0 0)
(0 0 0)
(0 0 0)
(0 0 0)
(0 0 0)
(0 0 0)
(0 0 0)
(0 0 0)
(0 0 0)
(0 0 0)
(0 0 0)
(0 0 0)
(0 0 0)
(0 0 0)
(0 0 0)
(0 0 0)
(0 0 0)
(0 0 0)
(0 0 0)
(0 0 0)
(0 0 0)
(0 0 0)
(0 0 0)
(0 0 0)
(0 0 0)
(0 0 0)
(0 0 0)
(0 0 0)
(0 0 0)
(0 0 0)
(0 0 0)
(0 0 0)
(0 0 0)
(0 0 0)
(0 0 0)
(0 0 0)
(0 0 0)
(0 0 0)
(0 0 0)
(0 0 0)
(0 0 0)
(0 0 0)
(0 0 0)
(0 0 0)
(0 0 0)
(0 0 0)
(0 0 0)
(0 0 0)
(0 0 0)
(0 0 0)
(0 0 0)
(0 0 0)
(0 0 0)
(0 0 0)
(0 0 0)
(0 0 0)
(0 0 0)
(0 0 0)
(0 0 0)
(0 0 0)
(0 0 0)
(0 0 0)
(0 0 0)
(0 0 0)
(0 0 0)
(0 0 0)
(0 0 0)
(0 0 0)
(0 0 0)
(0 0 0)
(0 0 0)
(0 0 0)
(0 0 0)
(0 0 0)
(0 0 0)
(0 0 0)
(0 0 0)
(0 0 0)
(0 0 0)
(0 0 0)
(0 0 0)
(0 0 0)
(0 0 0)
(0 0 0)
(0 0 0)
(0 0 0)
(0 0 0)
(0 0 0)
(0 0 0)
(0 0 0)
(0 0 0)
(0 0 0)
(0 0 0)
(0 0 0)
(0 0 0)
(0 0 0)
(0 0 0)
(0 0 0)
(0 0 0)
(0 0 0)
(0 0 0)
(0 0 0)
(0 0 0)
(0 0 0)
(0 0 0)
(0 0 0)
(0 0 0)
(0 0 0)
(0 0 0)
(0 0 0)
(0 0 0)
(0 0 0)
(0 0 0)
(0 0 0)
(0 0 0)
(0 0 0)
(0 0 0)
(0 0 0)
(0 0 0)
(0 0 0)
(0 0 0)
(0 0 0)
(0 0 0)
(0 0 0)
(0 0 0)
(0 0 0)
(0 0 0)
(0 0 0)
(0 0 0)
(0 0 0)
(0 0 0)
(0 0 0)
(0 0 0)
(0 0 0)
(0 0 0)
(0 0 0)
(0 0 0)
(0 0 0)
(0 0 0)
(0 0 0)
(0 0 0)
(0 0 0)
(0 0 0)
(0 0 0)
(0 0 0)
(0 0 0)
(0 0 0)
(0 0 0)
(0 0 0)
(0 0 0)
(0 0 0)
(0 0 0)
(0 0 0)
(0 0 0)
(0 0 0)
(0 0 0)
(0 0 0)
(0 0 0)
(0 0 0)
(0 0 0)
(0 0 0)
(0 0 0)
(0 0 0)
(0 0 0)
(0 0 0)
(0 0 0)
(0 0 0)
(0 0 0)
(0 0 0)
(0 0 0)
(0 0 0)
(0 0 0)
(0 0 0)
(0 0 0)
(0 0 0)
(0 0 0)
(0 0 0)
(0 0 0)
(0 0 0)
(0 0 0)
(0 0 0)
(0 0 0)
(0 0 0)
(0 0 0)
(0 0 0)
(0 0 0)
(0 0 0)
(0 0 0)
(0 0 0)
(0 0 0)
(0 0 0)
(0 0 0)
(0 0 0)
(0 0 0)
(0 0 0)
(0 0 0)
(0 0 0)
(0 0 0)
(0 0 0)
(0 0 0)
(0 0 0)
(0 0 0)
(0 0 0)
(0 0 0)
(0 0 0)
(0 0 0)
(0 0 0)
(0 0 0)
(0 0 0)
(0 0 0)
(0 0 0)
(0 0 0)
(0 0 0)
(0 0 0)
(0 0 0)
(0 0 0)
(0 0 0)
(0 0 0)
(0 0 0)
(0 0 0)
(0 0 0)
(0 0 0)
(0 0 0)
(0 0 0)
(0 0 0)
(0 0 0)
(0 0 0)
(0 0 0)
(0 0 0)
(0 0 0)
(0 0 0)
(0 0 0)
(0 0 0)
(0 0 0)
(0 0 0)
(0 0 0)
(0 0 0)
(0 0 0)
(0 0 0)
(0 0 0)
(0 0 0)
(0 0 0)
(0 0 0)
(0 0 0)
(0 0 0)
(0 0 0)
(0 0 0)
(0 0 0)
(0 0 0)
(0 0 0)
(0 0 0)
(0 0 0)
(0 0 0)
(0 0 0)
(0 0 0)
(0 0 0)
(0 0 0)
(0 0 0)
(0 0 0)
(0 0 0)
(0 0 0)
(0 0 0)
(0 0 0)
(0 0 0)
(0 0 0)
(0 0 0)
(0 0 0)
(0 0 0)
(0 0 0)
(0 0 0)
(0 0 0)
(0 0 0)
(0 0 0)
(0 0 0)
(0 0 0)
(0 0 0)
(0 0 0)
(0 0 0)
(0 0 0)
(0 0 0)
(0 0 0)
(0 0 0)
(0 0 0)
(0 0 0)
(0 0 0)
(0 0 0)
(0 0 0)
(0 0 0)
(0 0 0)
(0 0 0)
(0 0 0)
(0 0 0)
(0 0 0)
(0 0 0)
(0 0 0)
(0 0 0)
(0 0 0)
(0 0 0)
(0 0 0)
(0 0 0)
(0 0 0)
(0 0 0)
(0 0 0)
(0 0 0)
(0 0 0)
(0 0 0)
(0 0 0)
(0 0 0)
(0 0 0)
(0 0 0)
(0 0 0)
(0 0 0)
(0 0 0)
(0 0 0)
(0 0 0)
(0 0 0)
(0 0 0)
(0 0 0)
(0 0 0)
(0 0 0)
(0 0 0)
(0 0 0)
(0 0 0)
(0 0 0)
(0 0 0)
(0 0 0)
(0 0 0)
(0 0 0)
(0 0 0)
(0 0 0)
(0 0 0)
(0 0 0)
(0 0 0)
(0 0 0)
(0 0 0)
(0 0 0)
(0 0 0)
(0 0 0)
(0 0 0)
(0 0 0)
(0 0 0)
(0 0 0)
(0 0 0)
(0 0 0)
(0 0 0)
(0 0 0)
(0 0 0)
(0 0 0)
(0 0 0)
(0 0 0)
(0 0 0)
(0 0 0)
(0 0 0)
(0 0 0)
(0 0 0)
(0 0 0)
(0 0 0)
(0 0 0)
(0 0 0)
(0 0 0)
(0 0 0)
(0 0 0)
(0 0 0)
(0 0 0)
(0 0 0)
(0 0 0)
(0 0 0)
(0 0 0)
(0 0 0)
(0 0 0)
(0 0 0)
(0 0 0)
(0 0 0)
(0 0 0)
(0 0 0)
(0 0 0)
(0 0 0)
(0 0 0)
(0 0 0)
(0 0 0)
(0 0 0)
(0 0 0)
(0 0 0)
(0 0 0)
(0 0 0)
(0 0 0)
(0 0 0)
(0 0 0)
(0 0 0)
(0 0 0)
(0 0 0)
(0 0 0)
(0 0 0)
(0 0 0)
(0 0 0)
(0 0 0)
(0 0 0)
(0 0 0)
(0 0 0)
(0 0 0)
(0 0 0)
(0 0 0)
(0 0 0)
(0 0 0)
(0 0 0)
(0 0 0)
(0 0 0)
(0 0 0)
(0 0 0)
(0 0 0)
(0 0 0)
(0 0 0)
(0 0 0)
(0 0 0)
(0 0 0)
(0 0 0)
(0 0 0)
(0 0 0)
(0 0 0)
(0 0 0)
(0 0 0)
(0 0 0)
(0 0 0)
(0 0 0)
(0 0 0)
(0 0 0)
(0 0 0)
(0 0 0)
(0 0 0)
(0 0 0)
(0 0 0)
(0 0 0)
(0 0 0)
(0 0 0)
(0 0 0)
(0 0 0)
(0 0 0)
(0 0 0)
(0 0 0)
(0 0 0)
(0 0 0)
(0 0 0)
(0 0 0)
(0 0 0)
(0 0 0)
(0 0 0)
(0 0 0)
(0 0 0)
(0 0 0)
(0 0 0)
(0 0 0)
(0 0 0)
(0 0 0)
(0 0 0)
(0 0 0)
(0 0 0)
(0 0 0)
(0 0 0)
(0 0 0)
(0 0 0)
(0 0 0)
(0 0 0)
(0 0 0)
(0 0 0)
(0 0 0)
(0 0 0)
(0 0 0)
(0 0 0)
(0 0 0)
(0 0 0)
(0 0 0)
(0 0 0)
(0 0 0)
(0 0 0)
(0 0 0)
(0 0 0)
(0 0 0)
(0 0 0)
(0 0 0)
(0 0 0)
(0 0 0)
(0 0 0)
(0 0 0)
(0 0 0)
(0 0 0)
(0 0 0)
(0 0 0)
(0 0 0)
(0 0 0)
(0 0 0)
(0 0 0)
(0 0 0)
(0 0 0)
(0 0 0)
(0 0 0)
(0 0 0)
(0 0 0)
(0 0 0)
(0 0 0)
(0 0 0)
(0 0 0)
(0 0 0)
(0 0 0)
(0 0 0)
(0 0 0)
(0 0 0)
(0 0 0)
(0 0 0)
(0 0 0)
(0 0 0)
(0 0 0)
(0 0 0)
(0 0 0)
(0 0 0)
(0 0 0)
(0 0 0)
(0 0 0)
(0 0 0)
(0 0 0)
(0 0 0)
(0 0 0)
(0 0 0)
(0 0 0)
(0 0 0)
(0 0 0)
(0 0 0)
(0 0 0)
(0 0 0)
(0 0 0)
(0 0 0)
(0 0 0)
(0 0 0)
(0 0 0)
(0 0 0)
(0 0 0)
(0 0 0)
(0 0 0)
(0 0 0)
(0 0 0)
(0 0 0)
(0 0 0)
(0 0 0)
(0 0 0)
(0 0 0)
(0 0 0)
(0 0 0)
(0 0 0)
(0 0 0)
(0 0 0)
(0 0 0)
(0 0 0)
(0 0 0)
(0 0 0)
(0 0 0)
(0 0 0)
(0 0 0)
(0 0 0)
(0 0 0)
(0 0 0)
(0 0 0)
(0 0 0)
(0 0 0)
(0 0 0)
(0 0 0)
(0 0 0)
(0 0 0)
(0 0 0)
(0 0 0)
(0 0 0)
(0 0 0)
(0 0 0)
(0 0 0)
(0 0 0)
(0 0 0)
(0 0 0)
(0 0 0)
(0 0 0)
(0 0 0)
(0 0 0)
(0 0 0)
(0 0 0)
(0 0 0)
(0 0 0)
(0 0 0)
(0 0 0)
(0 0 0)
(0 0 0)
(0 0 0)
(0 0 0)
(0 0 0)
(0 0 0)
(0 0 0)
(0 0 0)
(0 0 0)
(0 0 0)
(0 0 0)
(0 0 0)
(0 0 0)
(0 0 0)
(0 0 0)
(0 0 0)
(0 0 0)
(0 0 0)
(0 0 0)
(0 0 0)
(0 0 0)
(0 0 0)
(0 0 0)
(0 0 0)
(0 0 0)
(0 0 0)
(0 0 0)
(0 0 0)
(0 0 0)
(0 0 0)
(0 0 0)
(0 0 0)
(0 0 0)
(0 0 0)
(0 0 0)
(0 0 0)
(0 0 0)
(0 0 0)
(0 0 0)
(0 0 0)
(0 0 0)
(0 0 0)
(0 0 0)
(0 0 0)
(0 0 0)
(0 0 0)
(0 0 0)
(0 0 0)
(0 0 0)
(0 0 0)
(0 0 0)
(0 0 0)
(0 0 0)
(0 0 0)
(0 0 0)
(0 0 0)
(0 0 0)
(0 0 0)
(0 0 0)
(0 0 0)
(0 0 0)
(0 0 0)
(0 0 0)
(0 0 0)
(0 0 0)
(0 0 0)
(0 0 0)
(0 0 0)
(0 0 0)
(0 0 0)
(0 0 0)
(0 0 0)
(0 0 0)
(0 0 0)
(0 0 0)
(0 0 0)
(0 0 0)
(0 0 0)
(0 0 0)
(0 0 0)
(0 0 0)
(0 0 0)
(0 0 0)
(0 0 0)
(0 0 0)
(0 0 0)
(0 0 0)
(0 0 0)
(0 0 0)
(0 0 0)
(0 0 0)
(0 0 0)
(0 0 0)
(0 0 0)
(0 0 0)
(0 0 0)
(0 0 0)
(0 0 0)
(0 0 0)
(0 0 0)
(0 0 0)
(0 0 0)
(0 0 0)
(0 0 0)
(0 0 0)
(0 0 0)
(0 0 0)
(0 0 0)
(0 0 0)
(0 0 0)
(0 0 0)
(0 0 0)
(0 0 0)
(0 0 0)
(0 0 0)
(0 0 0)
(0 0 0)
(0 0 0)
(0 0 0)
(0 0 0)
(0 0 0)
(0 0 0)
(0 0 0)
(0 0 0)
(0 0 0)
(0 0 0)
(0 0 0)
(0 0 0)
(0 0 0)
(0 0 0)
(0 0 0)
(0 0 0)
(0 0 0)
(0 0 0)
(0 0 0)
(0 0 0)
(0 0 0)
(0 0 0)
(0 0 0)
(0 0 0)
(0 0 0)
(0 0 0)
(0 0 0)
(0 0 0)
(0 0 0)
(0 0 0)
(0 0 0)
(0 0 0)
(0 0 0)
(0 0 0)
(0 0 0)
(-0.0141971 0.0207536 -0.0256427)
(-0.0202229 -0.00380853 -0.0198175)
(-0.0400519 0.0214065 -0.030335)
(-0.0443582 0.0225082 -0.0371482)
(-0.00497211 -0.00274148 -0.0197744)
(-0.0196353 0.0137161 -0.0447228)
(-0.0238402 0.0125046 -0.0329058)
(-0.00690752 0.0047019 -0.0121269)
(-0.013577 0.0428634 -0.00814971)
(-0.0216969 0.0436455 -0.0112716)
(-0.033822 0.0646872 -0.0256256)
(-0.0217449 0.0793722 -0.0119288)
(-0.0571765 0.0978534 -0.0258483)
(-0.05357 0.0605972 -0.0496875)
(-0.0563867 0.0510272 -0.0467837)
(-0.0833154 0.0798925 -0.0331618)
(-0.074623 0.0592486 -0.023454)
(-0.0525243 0.0405478 -0.043351)
(-0.0368077 0.039396 -0.0403677)
(-0.0628135 0.0551402 -0.0397207)
(-0.0406953 0.0459835 -0.0537587)
(-0.0154205 0.0257638 -0.0205695)
(-0.00640891 0.0169127 -0.0105925)
(-0.0279801 0.0473813 -0.039191)
(-0.0130892 0.0292935 -0.0156732)
(-0.00175716 0.0215202 -0.0150864)
(-0.0100283 0.0470697 -0.001868)
(-0.00293019 0.00393653 -0.00166897)
(-0.0158392 0.0474282 0.00317262)
(-0.0297996 0.101281 0.0033358)
(-0.0768005 0.100166 -0.00412128)
(-0.0460361 0.094672 0.00636007)
(-0.0718899 0.0967393 0.00432308)
(-0.0992344 0.0966573 -0.0203298)
(-0.0831198 0.0759603 -0.0130463)
(-0.103064 0.103135 -0.0129181)
(-0.0848293 0.0798048 -0.00852568)
(-0.0671849 0.0628955 -0.0218805)
(-0.0444991 0.0553573 -0.043461)
(-0.0685595 0.0690139 -0.0163839)
(-0.0458598 0.0692229 -0.0447742)
(-0.0295254 0.0535115 -0.0534705)
(-0.0100037 0.0478564 -0.0342811)
(-0.0227657 0.0583083 -0.0400611)
(-0.0103169 0.0433536 -0.0286762)
(-0.00198767 0.0357462 -0.0194303)
(-0.0085281 0.0156768 -0.0130387)
(-0.00854499 0.0124592 -0.0228164)
(-0.000759793 0.00496122 0.000296393)
(-0.0161632 0.0428563 0.0073079)
(-0.000980925 0.0260757 0.0054519)
(-0.0304918 0.0757919 0.00581959)
(-0.0494507 0.0811831 0.00601873)
(-0.00651338 0.0458295 0.00375536)
(-0.0125987 0.058611 0.00259868)
(-0.0967773 0.104268 -0.00827929)
(-0.0820688 0.0926413 -0.00626656)
(-0.0670131 0.104173 -0.0028689)
(-0.089151 0.119192 -0.0106939)
(-0.0713795 0.0876327 -0.0179484)
(-0.0465279 0.0919899 -0.0674407)
(-0.0725699 0.0989087 -0.00699834)
(-0.0420321 0.0957222 -0.023621)
(-0.0235572 0.0772206 -0.0507114)
(-0.0101428 0.0540583 -0.0396544)
(-0.0267469 0.0661247 -0.0111023)
(-0.0153411 0.0327115 -0.00545788)
(-0.0114361 0.024547 -0.0185859)
(-0.00820977 0.0355475 -0.0305719)
(-0.00535963 0.0224733 -0.0209287)
(0.00166973 0.00721506 0.000311043)
(4.76166e-05 0.0178841 0.00332186)
(0.00423211 0.0323085 0.00271494)
(0.00361856 0.00583577 -0.00192379)
(0.015105 0.00631907 0.00147476)
(-0.0268043 0.0693023 0.00987728)
(-0.0750294 0.104537 0.0022668)
(0.00109938 0.0139453 0.00942147)
(-0.0390083 0.0250909 0.00764238)
(-0.0789086 0.100828 -0.00371158)
(-0.0473585 0.0850454 -0.0101186)
(-0.0617786 0.024096 0.00244009)
(-0.0445181 0.0179318 5.26622e-05)
(-0.0355053 0.046958 -0.00528089)
(-0.0159863 0.0157729 -0.00258557)
(-0.0311864 0.0121115 -0.00155696)
(-0.0195595 0.00817968 -0.00803259)
(-0.00577893 0.00487962 -0.00419894)
(0.00703667 -0.00156976 -0.00257687)
(0.00421273 -0.00623866 -0.000119624)
(-0.0116536 -0.00815076 0.000882331)
(-0.0054431 -0.00427218 -0.00350265)
(-0.0372829 -0.0116519 -0.00110848)
(-0.0439141 -0.00531329 -0.00692887)
(-0.0234074 -0.00472599 -0.00764501)
(-0.0300958 -0.00443482 -0.0173032)
(-0.0829803 0.0547183 -0.122562)
(-0.101909 0.0577143 -0.138444)
(-0.0730532 0.0123266 -0.152866)
(-0.0976486 0.0519153 -0.148086)
(-0.0882048 0.0279404 -0.149583)
(-0.0698557 0.0164449 -0.144269)
(-0.103524 0.0592807 -0.137641)
(-0.0878733 0.037723 -0.151981)
(-0.0647825 0.0169545 -0.174376)
(-0.0319181 0.0146662 -0.176458)
(-0.0633029 0.00505392 -0.152301)
(-0.0690069 0.0192331 -0.158274)
(-0.0374311 0.00970389 -0.155862)
(-0.0165574 0.00455922 -0.159669)
(-0.0211504 0.00837159 -0.141545)
(-0.0388711 0.0850675 -0.0539436)
(-0.0410955 0.0698759 -0.0674078)
(-0.0935162 0.0842799 -0.10033)
(-0.0609439 0.116865 -0.0604179)
(-0.124543 0.1463 -0.126634)
(-0.0816198 0.0774559 -0.114473)
(-0.120292 0.0858635 -0.131396)
(-0.0878354 0.110027 -0.0908833)
(-0.144239 0.140486 -0.0988312)
(-0.00145794 0.0148486 -0.128921)
(-0.0364744 0.0454557 -0.183895)
(0.00246827 0.0356564 -0.163496)
(-0.0155619 0.022571 -0.147059)
(0.00111966 0.0190009 -0.14316)
(-0.0372558 0.0466163 -0.161278)
(0.00488645 0.0486752 -0.145779)
(0.012434 0.0291898 -0.140015)
(0.0153799 0.0365473 -0.141491)
(-0.0364993 0.121637 -0.0428232)
(0.0037608 0.0785181 -0.0059527)
(-0.0331735 0.138784 -0.000907723)
(-0.041569 0.0894109 -0.0334044)
(-0.00586308 0.0685412 -0.0164891)
(-0.0327432 0.123615 -0.0101446)
(0.0213043 0.0765283 -0.169857)
(0.017427 0.0782397 -0.161496)
(-0.00187033 0.0437013 -0.153035)
(0.0146443 0.0623835 -0.152925)
(0.0145397 0.0608088 -0.149958)
(-0.0508863 0.119213 0.0138641)
(-0.0166231 0.0944083 0.0052775)
(-0.0020927 0.061822 -0.00926902)
(-0.033715 0.120996 0.00010264)
(-0.00918737 0.0771161 -0.000787284)
(0.0100367 0.0969271 -0.133159)
(-0.00271437 0.120713 -0.160946)
(0.00610457 0.0857513 -0.13746)
(0.00125128 0.0738991 -0.122699)
(-0.012763 0.0976045 -0.114257)
(0.0123193 0.0347288 -0.0210667)
(0.00853963 0.0333947 -0.00908603)
(-0.0338694 0.0755765 -0.0100375)
(-0.00230182 0.020595 -0.0211143)
(0.00458631 0.0229538 -0.00516304)
(-0.00935107 0.0501511 0.00370787)
(-0.0722922 0.10309 -0.0189882)
(-0.000771777 0.0203389 -0.000165896)
(-0.012787 0.0365525 -0.00195669)
(-0.0218483 0.158817 -0.144288)
(-0.0791585 0.173401 -0.14807)
(-0.0807646 0.118881 -0.140249)
(-0.0537737 0.144057 -0.0837682)
(-0.0400372 0.140907 -0.0893675)
(-0.0950226 0.16894 -0.0753594)
(-0.0776952 0.127363 -0.0942657)
(-0.0427041 0.107435 -0.100689)
(0.000681227 0.00392707 -0.0141474)
(-0.00842079 0.00156942 -0.00355976)
(-0.0582069 -0.00896279 -0.0074617)
(-0.111448 -0.00212568 -0.0319138)
(-0.0330947 -0.0131906 -0.00915295)
(-0.126101 -0.0224152 -0.0226681)
(-0.165255 0.00622304 -0.0144988)
(-0.142195 0.0809222 -0.0707383)
(-0.15339 0.0257338 -0.0387774)
(-0.173484 0.142021 -0.00934545)
(-0.152566 0.105323 -0.0476846)
(-0.166081 0.0513618 -0.00195289)
(-0.129408 0.105962 -0.0786691)
(-0.106506 0.0563274 -0.0513727)
(-0.120911 0.0628168 0.028136)
(-0.0711937 0.0187533 -0.0631651)
(-0.116875 0.061714 -0.0374478)
(-0.0916715 0.0392643 -0.0568388)
(-0.0742036 0.0120306 -0.00667218)
(-0.132226 0.0548229 0.0337065)
(-0.0999641 0.0386943 0.000501181)
(-0.0646678 0.0216912 -0.0842329)
(-0.0382387 0.00853186 -0.0930448)
(-0.0528271 0.00243728 -0.0370998)
(-0.0658909 0.0166622 -0.0398531)
(-0.0397558 0.00349071 -0.0584561)
(-0.0167873 0.00916141 -0.11117)
(-0.0153876 0.00335112 -0.0837799)
(-0.0425547 0.0653473 0.00940164)
(-0.0454899 0.0721987 0.0719325)
(-0.12768 0.0824271 -0.0290016)
(-0.0924446 0.0967534 0.0101434)
(-0.154684 0.136505 0.00302345)
(-0.0887795 0.0813283 0.0485983)
(-0.143353 0.0902133 0.0514093)
(-0.104477 0.10349 0.0853094)
(-0.163607 0.130337 0.0814762)
(0.000789345 0.018821 -0.121464)
(-0.0308037 0.0594273 -0.0975884)
(0.0036014 0.0488609 -0.113201)
(-0.0215653 0.0211676 -0.0990354)
(-0.00211541 0.0128426 -0.103114)
(-0.0448407 0.0494837 -0.0937426)
(-0.00505277 0.0366251 -0.113431)
(0.0144107 0.0339618 -0.116739)
(0.00987026 0.0244512 -0.100862)
(-0.0500387 0.0810998 0.029877)
(-0.0164925 0.0774233 0.0451254)
(-0.0676454 0.120621 0.0518767)
(-0.0510224 0.0791346 0.103563)
(-0.016015 0.0763045 0.105199)
(-0.0747538 0.111036 0.131927)
(-0.0153801 0.0684222 -0.0491594)
(0.00931641 0.0552089 -0.0272387)
(0.0019461 0.0487871 -0.057927)
(0.00141359 0.0745357 -0.0254039)
(0.0126363 0.0575492 0.016358)
(-0.0551139 0.115107 0.057529)
(-0.0207833 0.0770539 0.0526734)
(-0.00401721 0.064411 0.103141)
(-0.0513394 0.111816 0.131496)
(-0.0206784 0.0778123 0.116379)
(-0.00459648 0.0590738 -0.0132267)
(-0.0455505 0.0854697 -0.0153555)
(-0.00740371 0.0812144 0.0333664)
(-0.0050665 0.0660733 0.05031)
(-0.0499008 0.0737762 0.091314)
(0.00404071 0.0367065 0.0308475)
(0.00524624 0.0461937 0.0838048)
(-0.0882269 0.109862 0.0686955)
(-0.00569219 0.0180335 0.0360264)
(-0.0412439 0.045003 0.0531563)
(-0.0292762 0.0632056 0.124622)
(-0.110868 0.110084 0.151267)
(-0.0149709 0.0132389 0.0842191)
(-0.0691055 0.0443282 0.129344)
(-0.0449405 0.118535 0.0145949)
(-0.120129 0.159329 0.0167168)
(-0.079897 0.120287 0.00206302)
(-0.130739 0.15243 0.133548)
(-0.0635501 0.118015 0.118862)
(-0.130132 0.167635 0.121808)
(-0.0846565 0.119889 0.103368)
(-0.0544091 0.0948909 0.108411)
(-0.0344465 0.000101429 0.0316764)
(-0.054971 -0.00109396 0.103744)
(-0.177352 0.0664513 0.0973739)
(-0.150452 0.0137472 0.0831597)
(-0.112638 0.0410645 0.134877)
(-0.183377 0.125259 0.185189)
(-0.126003 0.0203213 0.180172)
(-0.158476 0.0959592 0.0561318)
(-0.163822 0.0519922 0.0982642)
(-0.191575 0.104416 0.175789)
(-0.169439 0.0823483 0.142421)
(-0.146231 0.0365083 0.169682)
(-0.153686 0.0985975 0.115782)
(-0.137031 0.074147 0.0592446)
(-0.127961 0.0754697 0.0632936)
(-0.0898072 0.0119079 -0.0144283)
(-0.154099 0.0646827 0.0428417)
(-0.130214 0.0440382 -0.00809399)
(-0.112449 0.0196714 -0.0589918)
(-0.151231 0.0679093 0.0121188)
(-0.146635 0.0527348 -0.0592911)
(-0.0916054 0.0189541 -0.064371)
(-0.0543381 0.00406293 -0.0853471)
(-0.0853978 0.00239296 -0.0845662)
(-0.111929 0.0313993 -0.116)
(-0.0736614 0.0128383 -0.137989)
(-0.0275345 -0.00336998 -0.105061)
(-0.0388511 -0.00103215 -0.149705)
(-0.048236 0.0681815 0.121743)
(-0.0450486 0.0385284 0.178993)
(-0.161401 0.10207 0.09171)
(-0.112933 0.0999091 0.153627)
(-0.18647 0.138491 0.150345)
(-0.0989097 0.0753234 0.143862)
(-0.150743 0.0929942 0.105392)
(-0.115884 0.0725823 0.204009)
(-0.177821 0.117263 0.155951)
(-0.00740153 0.0122206 -0.136213)
(-0.0747662 0.0793704 -0.140207)
(-0.0257304 0.0544845 -0.158662)
(-0.0581458 0.0352742 -0.185403)
(-0.0203639 0.0179922 -0.185067)
(-0.0853171 0.0790049 -0.188769)
(-0.0451436 0.0597433 -0.212378)
(0.00235331 0.0286578 -0.132325)
(-0.00812492 0.0384231 -0.190131)
(-0.0542591 0.0720793 0.172716)
(-0.0154037 0.06969 0.159806)
(-0.0641591 0.0983716 0.210331)
(-0.0542288 0.0516886 0.228773)
(-0.0132984 0.0625707 0.196535)
(-0.0641394 0.0884374 0.274683)
(-0.0395751 0.100835 -0.0550955)
(0.000388857 0.0773959 0.00300769)
(-0.0260377 0.0901626 -0.18276)
(-0.0284613 0.13575 -0.0998023)
(0.00341037 0.103661 -0.0285835)
(-0.0437027 0.107862 0.207922)
(-0.0124643 0.0816307 0.176822)
(-0.00676261 0.0630341 0.200952)
(-0.0455304 0.104871 0.274746)
(-0.0137304 0.0928004 0.240694)
(-0.0170611 0.0869715 0.078079)
(-0.095528 0.0936846 0.167052)
(-0.0542574 0.137825 0.0413085)
(-0.023462 0.111017 0.0509819)
(-0.0936603 0.133251 0.160599)
(0.00674528 0.0507747 0.139597)
(0.00212643 0.0563376 0.194081)
(-0.0872965 0.0990919 0.230653)
(-0.00424493 0.0270952 0.144444)
(-0.0604973 0.0383685 0.207934)
(-0.0250559 0.0745676 0.263098)
(-0.0729927 0.0948994 0.296984)
(-0.00322262 0.0295455 0.20862)
(-0.0435072 0.0302955 0.275744)
(-0.107223 0.111382 0.199648)
(-0.190329 0.167565 0.272139)
(-0.106347 0.120362 0.246593)
(-0.212993 0.158916 0.178622)
(-0.152648 0.133333 0.23575)
(-0.217426 0.16846 0.297442)
(-0.159106 0.137333 0.299412)
(-0.098147 0.115987 0.233734)
(-0.0455097 -0.00347498 0.18232)
(-0.0307927 -0.00756133 0.239154)
(-0.150678 0.0840143 0.257586)
(-0.0913596 0.0110794 0.252026)
(-0.0573281 0.00957354 0.294115)
(-0.0883056 0.0465424 0.331973)
(-0.0438872 0.00926059 0.320702)
(-0.174696 0.0754052 0.203976)
(-0.113834 0.0219057 0.227408)
(-0.144249 0.0722968 0.306355)
(-0.187844 0.0988884 0.269705)
(-0.0728484 0.0176921 0.302855)
(-0.202703 0.124453 0.262341)
(-0.130603 0.067623 0.0619549)
(0 0 0)
(-0.104424 0.0180074 -0.101299)
(-0.139908 0.0558622 -0.000463574)
(-0.132983 0.0423402 -0.0885959)
(0 0 0)
(0 0 0)
(-0.0581168 0.0245665 -0.576184)
(-0.0973236 0.0315384 -0.155693)
(-0.0687641 0.0196588 -0.197286)