/*--------------------------------*- C++ -*----------------------------------*\
| =========                 |                                                 |
| \\      /  F ield         | OpenFOAM: The Open Source CFD Toolbox           |
|  \\    /   O peration     | Version:  5.x                                   |
|   \\  /    A nd           | Web:      www.OpenFOAM.org                      |
|    \\/     M anipulation  |                                                 |
\*---------------------------------------------------------------------------*/
FoamFile
{
    version     2.0;
    format      ascii;
    class       volScalarField;
    location    "1.95";
    object      p;
}
// * * * * * * * * * * * * * * * * * * * * * * * * * * * * * * * * * * * * * //

dimensions      [0 2 -2 0 0 0 0];

internalField   nonuniform List<scalar> 
10571
(
251.758
317.467
250.918
216.119
112.205
243.921
160.586
132.673
114.578
110.228
199.543
152.792
113.776
100.804
99.434
126.995
140.176
96.8858
96.2101
91.6213
96.3115
94.0061
93.6693
92.1619
117.505
167.768
114.276
87.4656
91.5126
123.789
85.461
89.8226
89.3954
90.9489
105.156
86.363
90.5648
93.6542
90.5062
87.7586
90.0499
94.237
92.1245
91.2087
88.9266
91.4485
91.9797
91.7686
87.8658
96.1468
84.1769
86.3309
89.1339
81.5212
83.2132
86.5948
83.8395
87.3999
81.0673
79.7449
87.0545
89.9955
83.7286
86.1777
81.0761
89.273
90.5676
86.899
85.8283
88.7586
89.3207
89.1049
84.0276
81.6103
81.7327
83.5354
87.0541
78.1284
81.1557
82.3077
78.0239
81.0252
77.9718
77.3953
80.4957
81.2961
76.1406
82.1236
77.5049
78.3806
83.6971
85.2379
82.7557
79.9804
84.9004
85.1465
78.7776
76.3734
77.8554
78.2411
78.7575
76.4434
77.5268
71.977
71.6584
72.3325
76.1244
76.0611
73.6267
70.4649
69.9698
74.381
75.0624
71.9852
70.3571
79.6888
73.2149
73.4478
79.5422
80.0522
70.0997
71.0664
70.9409
66.8324
67.3155
73.429
70.5436
64.6423
67.5009
66.7812
65.9664
73.6334
74.6046
69.8261
66.0273
67.2564
66.5049
66.5457
72.3598
68.6437
65.12
64.2704
66.5534
69.9088
69.6689
74.7575
65.2721
64.5156
64.9439
64.7515
64.2971
69.4033
63.6214
64.6636
65.6003
65.4226
65.5344
69.6375
69.2896
65.6252
65.3357
65.9801
65.3901
65.3918
68.3754
65.6047
64.9711
64.6629
65.4952
65.2599
66.4948
65.1746
62.2834
64.0453
64.1313
64.1014
64.051
64.1455
63.7759
63.9993
64.5565
64.8963
65.3371
65.3634
64.3046
64.1149
63.4572
65.044
65.3877
65.3456
65.2728
64.8824
64.4989
65.126
65.0154
66.2706
65.4098
64.9476
64.9984
65.2483
64.0623
64.0602
64.0323
64.0544
64.1793
64.0754
64.1636
64.3153
64.6228
64.9918
65.2407
63.9709
63.8973
63.9514
64.7599
65.0143
65.1799
65.3335
63.8957
64.3097
64.8333
64.8022
65.3353
64.3686
64.6018
64.7039
64.0724
64.0309
64.032
64.0494
64.1582
64.0388
64.1068
64.1427
64.4686
64.1819
63.9503
64.0108
64.1638
64.4665
64.7048
64.6567
63.8328
64.1998
64.4446
64.5721
64.2201
64.1443
64.3592
64.4878
64.0878
64.0419
64.0484
64.077
64.1205
64.0419
64.0574
64.066
64.3456
64.0772
63.9358
63.9315
64.1075
64.2262
64.435
63.9959
63.882
64.1153
64.2009
64.332
64.3601
64.1224
64.214
64.3801
64.0811
64.0427
64.0439
64.0793
64.0945
63.9962
64.016
64.0378
64.2518
64.1648
63.9015
63.8944
64.0359
64.1177
64.264
64.1309
63.9418
64.0592
64.1253
64.2235
64.2986
64.1378
64.1384
64.2694
64.0625
64.0079
64.0173
64.0702
64.0746
63.9307
64.0017
64.0267
64.1717
64.1663
63.9162
63.9223
63.9921
64.0978
64.1957
64.1921
63.983
64.0265
64.0945
64.2028
64.25
64.0997
64.0998
64.2382
64.0458
63.9977
64.029
64.0571
64.0596
63.9138
63.9896
64.0365
64.133
64.1639
63.9889
63.9586
63.9791
64.0741
64.1631
64.1736
64.0414
64.0482
64.0732
64.1843
64.2274
64.0582
64.0872
64.1757
64.0372
64.0107
64.0167
64.0275
64.0512
63.9717
63.9787
64.0571
64.1328
64.1646
64.0548
64.0239
64.0108
64.0891
64.1493
64.1616
64.0925
64.0816
64.0628
64.1662
64.201
64.0593
64.0283
64.1225
64.0344
64.0211
63.9781
64.003
64.0453
64.0367
63.9479
64.0776
64.1195
64.1578
64.1436
64.1555
64.0709
64.1077
64.1527
64.1642
64.1485
64.1067
64.0651
64.1599
64.1865
64.1119
64.0409
64.1398
64.0219
64.0227
63.9439
63.9968
64.038
64.058
63.918
64.0696
64.1011
64.1737
64.139
64.1226
64.1228
64.0735
64.1532
64.1784
64.1272
64.1418
64.0748
64.1775
64.1859
64.1433
64.077
64.1706
63.9855
64.0175
63.8883
63.9774
64.011
64.0678
63.9065
64.0189
64.095
64.19
64.1625
64.1295
64.2544
64.0688
64.1832
64.2026
64.1362
64.1503
64.0921
64.2032
64.2028
64.1666
64.1099
64.1943
63.932
64.01
63.8059
63.9267
63.9613
64.0804
63.9246
63.9731
64.1094
64.2353
64.1991
64.1693
64.401
64.1468
64.2321
64.2352
64.1948
64.1204
64.113
64.2323
64.2305
64.193
64.1282
64.2163
63.885
64.0046
63.7221
63.8537
63.9407
64.0985
63.9341
63.9044
64.197
64.3275
64.2186
64.1895
64.3865
64.1932
64.2719
64.3001
64.184
64.0802
64.1325
64.25
64.2622
64.2155
64.1594
64.2384
63.9355
64.0355
63.7062
63.8086
64.0248
64.1205
63.9059
63.8279
64.252
64.4569
64.1885
64.1732
64.2484
64.1583
64.303
64.3709
64.1435
64.1002
64.1538
64.2769
64.3086
64.2358
64.1932
64.2711
64.1417
64.1396
63.8393
63.9272
64.2012
64.1743
63.8618
63.8668
64.2554
64.6548
64.2243
64.2036
64.1046
64.1499
64.3307
64.464
64.1882
64.2078
64.1808
64.3183
64.3515
64.2818
64.2301
64.3106
64.4352
64.2977
64.1082
64.1805
64.4204
64.2725
63.8865
64.0279
64.193
64.4593
64.3359
64.2886
64.0694
64.1974
64.3511
64.415
64.3371
64.3078
64.2402
64.3526
64.3704
64.3433
64.2854
64.3619
64.7217
64.4663
64.4285
64.5077
64.5436
64.4043
64.0479
64.2418
64.3955
64.3647
64.4697
64.4011
64.1329
64.2451
64.4036
64.3934
64.4611
64.4439
64.3546
64.4149
64.399
64.4338
64.3745
64.433
64.8947
64.6007
64.686
64.7844
64.7153
64.5239
64.2635
64.4724
64.6388
64.5387
64.5893
64.5227
64.2236
64.2956
64.5099
64.4872
64.6115
64.617
64.4781
64.5216
64.488
64.5392
64.4666
64.5162
64.9839
64.6767
64.806
64.9631
64.8333
64.6002
64.4796
64.6778
64.7992
64.7127
64.6678
64.6082
64.3393
64.3953
64.5924
64.6012
64.7079
64.7543
64.5572
64.6016
64.5788
64.603
64.537
64.5897
65.0302
64.7151
64.8309
65.0321
64.9241
64.6597
64.6104
64.8488
64.8923
64.8184
64.7096
64.66
64.4465
64.5288
64.6648
64.6988
64.7118
64.7164
64.6013
64.6611
64.6676
64.6298
64.5842
64.6386
64.9688
64.7314
64.8079
64.985
64.9312
64.7064
64.6715
64.9257
64.9233
64.9037
64.7299
64.687
64.5253
64.633
64.7417
64.7965
64.6971
64.6647
64.6302
64.7097
64.7381
64.6389
64.6103
64.6709
64.8629
64.7368
64.7721
64.8822
64.8918
64.7291
64.7293
64.8877
64.856
64.9053
64.732
64.6938
64.592
64.6707
64.7737
64.8571
64.6886
64.6461
64.6401
64.7176
64.7662
64.637
64.6259
64.6888
64.7579
64.7339
64.7392
64.7696
64.8223
64.7349
64.7719
64.7904
64.7333
64.818
64.7255
64.7001
64.6484
64.6608
64.7374
64.8437
64.6754
64.6248
64.6346
64.6811
64.7428
64.626
64.6297
64.6917
64.6674
64.717
64.6942
64.6651
64.7392
64.7344
64.7649
64.6888
64.6284
64.7133
64.7121
64.7021
64.6746
64.6435
64.6601
64.7399
64.6589
64.5645
64.6196
64.6529
64.6869
64.6056
64.6222
64.6826
64.5992
64.6904
64.6403
64.578
64.6645
64.7078
64.7206
64.6183
64.5644
64.6497
64.6936
64.6866
64.6634
64.652
64.5601
64.6313
64.6152
64.4857
64.6006
64.6132
64.6213
64.5508
64.6094
64.6671
64.5385
64.6541
64.5788
64.5119
64.5985
64.6789
64.6864
64.5802
64.5207
64.6171
64.676
64.667
64.6328
64.7059
64.4662
64.5399
64.5866
64.471
64.5926
64.5747
64.5677
64.5449
64.619
64.6643
64.4801
64.6134
64.5195
64.4521
64.529
64.6525
64.6582
64.5527
64.4887
64.6071
64.6651
64.6572
64.6186
64.7657
64.434
64.4999
64.6009
64.559
64.6307
64.5781
64.5441
64.6125
64.664
64.6943
64.418
64.5737
64.4646
64.3855
64.4667
64.6277
64.6268
64.518
64.4441
64.5891
64.66
64.6587
64.6257
64.8206
64.4481
64.4876
64.669
64.7225
64.7327
64.6125
64.548
64.7234
64.7352
64.7424
64.353
64.5324
64.411
64.3095
64.4047
64.5993
64.5833
64.4582
64.3944
64.5239
64.6538
64.6623
64.6643
64.794
64.4532
64.4861
64.7405
64.9418
64.8152
64.6439
64.5555
64.8625
64.8066
64.785
64.2881
64.4853
64.358
64.2272
64.3332
64.5616
64.5328
64.371
64.3375
64.4734
64.6348
64.6541
64.7331
64.6974
64.4406
64.4771
64.7656
64.9927
64.8593
64.6598
64.5511
64.9952
64.8586
64.811
64.2322
64.4323
64.3046
64.1504
64.2583
64.509
64.4508
64.26
64.2746
64.4134
64.5969
64.6184
64.7223
64.5631
64.4083
64.4531
64.735
64.885
64.8338
64.6457
64.5286
64.9948
64.8671
64.8019
64.1884
64.3714
64.2514
64.0799
64.1894
64.4408
64.3356
64.1364
64.2012
64.3464
64.5373
64.5527
64.6355
64.4417
64.3581
64.412
64.6543
64.7441
64.7201
64.5998
64.4837
64.9121
64.7949
64.7422
64.1563
64.3027
64.1976
64.0197
64.1249
64.3599
64.1967
64.0278
64.1196
64.2761
64.4548
64.4604
64.4974
64.336
64.2903
64.3497
64.5423
64.5743
64.5616
64.5005
64.4117
64.7252
64.6939
64.6484
64.1242
64.2269
64.1369
63.9667
64.0619
64.2678
64.0587
63.9183
64.0404
64.2091
64.3482
64.3431
64.3113
64.2015
64.2035
64.2704
64.3956
64.3769
64.3973
64.3641
64.3197
64.4777
64.4848
64.5053
64.0743
64.146
64.0637
63.9097
63.9906
64.1702
63.9186
63.8122
63.9575
64.139
64.2233
64.209
64.0882
63.9884
64.0861
64.1736
64.2226
64.1911
64.1713
64.2138
64.2091
64.3056
64.3314
64.3229
63.9964
64.0671
63.9815
63.833
63.9068
64.0728
63.7724
63.7064
63.8699
64.0636
64.0923
64.0652
63.8553
63.7557
63.9448
64.0546
64.0374
63.9541
63.8627
64.0268
64.0675
64.1204
64.1572
64.1076
63.9032
64.0035
63.9053
63.7306
63.8287
63.9884
63.6341
63.5674
63.7828
63.9922
63.9785
63.929
63.6294
63.5634
63.8087
63.9454
63.8755
63.719
63.5403
63.8173
63.9211
63.9064
63.8445
63.8647
63.8285
63.9751
63.859
63.6297
63.7803
63.9361
63.5206
63.3817
63.7029
63.9291
63.9149
63.8338
63.4421
63.41
63.7011
63.8849
63.7736
63.5551
63.2989
63.6644
63.8199
63.6844
63.4808
63.6476
63.821
64.0085
63.8715
63.601
63.8106
63.9441
63.4875
63.2716
63.7228
63.9244
63.9303
63.8191
63.3957
63.3437
63.671
63.8681
63.7619
63.5021
63.2316
63.6023
63.775
63.4733
63.1869
63.5127
63.9093
64.1303
63.9738
63.6785
63.9096
64.05
63.5965
63.3804
63.8617
64.008
64.0563
63.926
63.513
63.4317
63.7857
63.929
63.8644
63.5813
63.381
63.6615
63.8252
63.4453
63.2471
63.5277
64.1108
64.3559
64.1789
63.902
64.096
64.2603
63.8411
63.6361
64.1091
64.209
64.2866
64.1492
63.7488
63.6543
63.985
64.1368
64.0799
63.7256
63.63
63.8493
64.02
63.6509
63.58
63.7418
64.4148
64.6713
64.4873
64.1803
64.4051
64.5728
64.1776
64.0132
64.3965
64.4699
64.5939
64.455
64.0399
63.8904
64.2827
64.3787
64.3829
64.005
63.9254
64.0403
64.2682
63.9637
63.738
63.9582
64.811
65.0331
64.8727
64.5152
64.7411
64.9349
64.5761
64.4298
64.7302
64.7679
64.938
64.8032
64.3545
64.2214
64.6842
64.7187
64.7328
64.3472
64.3832
64.2937
64.6114
64.3675
63.8769
64.3508
65.2748
65.3783
65.2683
64.9416
65.0502
65.2758
64.9597
64.9161
65.1412
65.1801
65.2627
65.1402
64.7188
64.6906
65.0345
65.1414
65.069
64.7997
64.9453
64.7954
65.0461
64.8512
64.5047
64.9687
65.7205
65.6457
65.6039
65.4322
65.4469
65.542
65.3247
65.4021
65.5296
65.5475
65.5186
65.4161
65.1426
65.221
65.5436
65.5447
65.35
65.1796
65.2534
65.2241
65.3846
65.2428
65.2048
65.4566
65.9703
65.8115
65.8082
65.7594
65.7752
65.7178
65.5969
65.6879
65.8159
65.8787
65.6898
65.6075
65.5061
65.6422
65.8595
65.9034
65.5538
65.4265
65.4056
65.5173
65.6344
65.4825
65.4991
65.5432
66.0014
65.9065
65.9042
65.9056
65.8868
65.8228
65.7625
65.785
65.8552
65.9761
65.7938
65.7216
65.6775
65.8134
65.9858
66.173
65.6881
65.6095
65.6182
65.7975
66.0263
65.6392
65.6369
65.6881
65.9616
65.9829
65.9636
65.9117
65.8091
65.9153
65.8728
65.8105
65.7374
65.8167
65.8801
65.7941
65.7589
65.828
65.8841
66.0423
65.7766
65.7233
65.7164
65.8997
66.1242
65.7429
65.7156
65.7684
65.9479
66.0848
66.0323
65.9062
65.7267
66.0318
65.9495
65.7771
65.6004
65.6391
66.0021
65.9143
65.8099
65.7541
65.6607
65.7361
65.8545
65.7924
65.6993
65.7596
65.8255
65.8097
65.7296
65.7211
65.9782
66.2324
66.1399
65.9295
65.6634
66.1949
66.0392
65.7565
65.4597
65.4537
66.1927
66.0922
65.8726
65.674
65.4449
65.4476
65.9629
65.8553
65.65
65.5841
65.5464
65.8581
65.7044
65.6316
66.0426
66.4597
66.3035
65.9817
65.5866
66.4595
66.1591
65.7198
65.2484
65.1952
66.4632
66.3283
65.9518
65.5674
65.2243
65.166
66.1244
65.9102
65.5886
65.4097
65.2909
65.9151
65.6831
65.523
66.1479
66.7838
66.528
66.0585
65.4686
66.8081
66.3248
65.6499
64.889
64.7907
66.8393
66.6568
66.0749
65.4582
64.8861
64.7093
66.3574
65.9707
65.5101
65.1797
64.9434
65.9853
65.6464
65.3731
66.301
67.2208
66.8242
66.1526
65.2929
67.2771
66.4946
65.5141
64.3598
64.0581
67.3678
67.1095
66.2007
65.2968
64.304
63.8413
66.6741
66.0288
65.3785
64.8471
64.3726
66.0629
65.589
65.1942
66.5161
67.7888
67.1931
66.2674
65.0429
67.8988
66.6911
65.3175
63.486
62.5236
68.0852
67.7011
66.287
65.0052
63.3429
61.7613
67.0767
66.0535
65.1701
64.3359
63.3546
66.1201
65.5215
64.981
66.7956
68.4468
67.6384
66.4027
64.6868
68.6533
66.8748
64.9603
62.1903
58.9183
68.9276
68.4034
66.3301
64.4716
62.0383
56.4641
67.5223
66.0401
64.9367
63.7025
61.3936
66.1758
65.4181
64.7208
67.1275
69.0578
68.0898
66.547
64.3142
69.3318
66.8744
64.4084
60.6152
48.9654
69.4572
68.9347
66.0538
63.8551
60.558
49.4374
-26.0122
67.8452
65.78
64.5433
62.8143
56.9832
66.1579
65.204
64.4806
67.465
69.2762
68.3242
66.6514
64.15
69.151
66.1961
63.7576
59.4473
40.8242
-2.0501
68.9352
68.5055
64.8737
63.2889
59.8778
47.2771
5.83935
67.7296
65.203
64.0542
62.0665
50.7429
66.0309
64.9597
64.336
67.7085
68.9685
68.0502
66.5782
64.4907
68.1772
64.8953
62.9515
60.3158
47.3823
13.7685
67.9648
67.1794
63.0408
62.3871
60.9058
48.6892
18.3607
67.3712
64.242
63.5916
62.2411
53.0968
18.7187
65.6574
64.4752
64.3518
67.5871
68.1166
67.2557
66.1571
65.245
66.9738
63.6559
62.0673
62.3826
52.0213
18.7533
66.8992
65.8933
62.0764
61.5419
62.9662
53.613
20.7019
65.9696
63.1902
62.6993
63.038
59.6498
65.0019
63.8343
64.4379
66.9472
66.864
66.097
65.2656
65.6705
65.7795
62.8313
61.505
63.6709
62.0712
65.7764
64.8874
61.6502
60.9978
64.3457
62.6764
1.75673
64.988
62.8093
61.4597
63.7162
66.4848
64.268
62.8162
64.1238
66.0536
65.553
64.7926
64.1592
65.3681
64.6594
62.1162
61.2315
64.1051
66.0231
64.8002
64.1544
61.3214
60.9916
64.4073
66.4112
64.245
61.8157
60.661
63.6189
66.3489
63.1819
61.3808
62.8974
65.1006
64.5141
63.7769
63.0732
64.6199
63.7214
61.6245
61.03
63.4735
65.6648
64.1456
63.5671
61.2303
60.9801
63.4496
64.9345
63.8773
61.5783
60.9924
62.8385
65.0441
62.9307
61.5948
62.7727
64.1351
63.8988
62.9281
62.0884
63.8175
63.2011
61.1465
60.8118
62.9718
64.9887
63.7838
63.1364
60.9915
60.8456
62.9097
64.253
63.8996
61.9908
61.2371
62.3749
64.7814
63.4162
62.5693
63.4307
63.2018
63.2875
62.026
61.2664
63.2217
63.039
60.8234
60.7108
62.9777
64.8795
63.9403
63.1969
61.1262
60.9309
63.091
64.4226
64.2156
62.7246
61.9707
62.8711
64.9884
64.1932
63.7018
64.3903
62.4075
62.3331
61.1582
60.6921
63.1332
62.9151
60.9318
61.1801
63.6917
65.4274
64.565
63.7398
61.7399
61.7355
64.1683
65.1665
65.0812
63.7254
63.2929
64.1286
65.8055
65.224
65.0846
65.5779
62.2004
61.7392
60.569
60.8227
63.7202
63.1097
61.1425
62.4685
65.0798
66.7975
65.7152
64.765
62.5927
63.2278
65.6012
66.7119
66.4919
64.9454
65.0199
65.6798
67.0828
66.5258
66.5077
66.8653
62.782
61.8473
60.9144
61.3585
64.9709
63.8945
61.8018
62.6517
65.6772
68.9342
67.8651
66.0705
63.4312
63.1865
65.6296
68.3721
68.5234
65.9138
65.1699
66.6922
68.4039
68.4001
67.7384
67.8607
63.4611
63.0492
61.9702
62.6516
66.6993
65.3317
62.8333
63.7991
67.3616
70.3512
69.2029
67.1094
64.314
64.5573
66.9875
69.1447
69.2322
66.7866
65.9661
67.1764
69.0122
69.2145
68.4354
68.37
331.841
272.453
297.698
276.077
267.407
272.436
254.288
220.354
339.823
364.719
355.821
351.573
278.848
287.371
241.121
224.776
196.723
246.847
217.161
216.718
175.865
193.876
167.824
171.323
169.033
158.047
308.472
266.392
280.5
274.307
217.185
221.273
189.559
183.094
174.693
161.489
160.58
184.989
141.747
139.304
127.235
141.388
157.942
135.901
156.609
172.346
178.385
160.467
225.278
220.909
184.847
176.691
166.422
158.693
137.476
160.443
125.365
124.595
110.227
114.639
112.967
106.945
106.497
123.067
165.353
113.051
143.004
171.179
152.107
172.499
162.955
161.807
136.832
160.478
161.155
112.15
105.177
115.861
102.047
101.069
103.756
97.6188
97.588
106.282
119.188
99.2058
100.336
151.093
165.053
130.938
100.026
95.8151
96.4587
94.9699
94.261
94.5006
292.508
231.597
262.252
279.74
267.869
208.049
228.727
208.305
252.942
210.053
196.352
167.377
106.713
148.036
93.614
297.5
224.724
302.777
300.311
247.683
236.475
225.969
223.09
181.664
103.844
112.851
103.709
88.5418
89.7704
93.6423
89.9883
102.937
90.7029
282.651
233.53
238.308
213.013
177.698
181.837
126.346
124.3
91.0809
93.4118
93.0927
178.425
155.211
152.701
141.145
125.27
120.438
114.706
96.7788
101.207
92.3464
143.226
120.454
107.86
130.719
106.149
105.888
89.6191
100.301
90.6593
88.8957
91.0543
89.0762
92.5596
89.7298
92.0291
91.7481
89.223
109.413
91.675
92.2338
92.818
90.1057
92.45
92.5448
93.2024
94.1036
92.7645
92.4411
93.1678
92.2991
165.078
117.866
136.325
156.522
129.754
98.6662
108.226
92.0375
98.0286
89.7058
92.1228
88.3391
89.4534
90.8449
89.7963
160.153
116.19
155.365
155.557
112.591
120.416
107.402
108.985
89.3074
92.0284
93.9684
92.1258
91.0682
90.8189
91.3686
90.8473
91.9246
90.8181
149.857
123.594
121.169
106.654
91.9001
89.5523
88.9939
88.0318
89.7041
88.064
87.9892
96.3766
93.2206
85.8948
82.8098
83.7404
86.9017
88.9336
87.4382
87.364
87.6231
95.1907
84.7117
88.9279
91.6511
90.2299
84.4685
88.4474
86.8964
88.2109
89.4655
91.5068
90.8077
88.8327
87.8971
89.8791
89.2498
87.5712
90.7621
88.8902
92.3955
92.5209
90.9025
91.7318
92.122
91.9672
92.1789
90.9105
91.1459
91.1012
90.6643
95.1711
86.1646
87.8399
89.8696
85.0475
84.5148
84.3477
82.9386
86.952
87.9636
85.7581
85.3602
86.5713
88.2905
86.9718
93.1092
83.9959
89.7897
89.551
83.4482
86.3176
84.1625
83.0642
81.4682
89.3014
88.2855
89.146
87.8909
87.8406
85.4515
87.2147
89.2781
86.9722
86.7587
82.2679
81.2326
81.1375
79.7243
79.4454
86.06
86.0469
84.5771
83.5349
83.249
80.2262
81.692
79.1773
78.9265
80.1966
86.2229
85.5327
84.4426
83.8883
83.0091
82.1717
80.277
85.2288
81.8991
84.805
79.0981
80.204
78.9869
79.7547
86.3033
88.0778
87.4493
85.748
85.124
86.1156
85.9364
84.2688
85.938
81.8095
90.4773
91.2135
85.1594
88.3009
89.0117
89.7817
89.6411
87.3977
87.9854
87.8105
87.4188
82.2265
79.6901
82.5572
82.1402
81.7006
80.4991
80.4476
80.1664
83.8908
84.9868
82.2516
82.6472
83.3961
85.4887
83.2229
80.1571
77.8751
81.3051
80.0676
80.7322
78.6634
79.3517
78.0515
79.7158
86.0532
81.8208
83.7161
85.2378
82.45
78.9294
78.0933
83.2094
77.5804
78.9106
78.3825
78.2997
77.964
77.6426
77.7633
80.3648
80.0532
76.3909
76.763
77.0591
77.926
78.4622
77.0123
77.0957
77.0404
81.2971
79.6235
78.7897
78.4286
75.7151
78.3101
76.7411
77.255
77.1295
76.5323
76.2215
75.7463
75.9627
75.2844
84.1211
83.9248
84.5291
84.2011
82.1808
81.5387
83.0578
78.9835
77.7821
75.4622
83.8722
84.0387
75.9372
78.3389
78.1855
85.3667
86.0171
82.2042
82.207
84.0994
82.75
77.4773
74.9977
78.2495
78.1784
78.2831
76.0179
75.3544
76.7237
78.9949
80.3456
74.0643
73.3657
73.3268
79.1852
72.0536
76.1255
74.534
77.3503
76.3584
77.9968
74.0374
74.8714
74.7886
75.5002
75.2623
72.8849
72.7885
70.4216
69.4896
67.5544
68.7653
72.2195
68.2289
76.8401
76.9239
77.0284
75.3089
75.9075
75.9894
73.2721
74.4183
69.2749
69.6672
70.5497
76.1215
75.7914
75.0075
74.8162
74.5678
75.2041
72.8564
70.0905
70.4236
70.2262
75.344
74.0392
74.7803
74.6437
73.9975
73.7957
73.8766
73.1776
72.5069
75.2198
79.2956
78.4803
71.1122
67.7279
78.2672
72.142
69.0481
73.5951
71.9771
73.5536
73.6919
71.6495
70.203
70.4175
78.5542
79.0543
76.1858
75.8831
73.2486
77.5588
71.7791
67.8697
73.0333
72.2991
74.0264
68.8957
68.5217
69.01
69.3544
67.9065
67.0362
66.433
65.2989
67.3353
65.3637
72.76
70.0878
71.603
72.7341
72.9256
67.0163
66.8821
69.7624
69.0001
66.1638
66.4411
66.2851
65.3362
64.8688
65.6529
65.1182
65.8069
64.9399
73.1865
74.2662
74.1873
71.1157
72.2072
71.9762
66.6906
66.5387
70.7243
65.2775
64.7967
65.3642
64.5287
65.7174
66.3042
65.682
65.5277
65.6848
65.3444
65.4371
73.2918
73.3722
71.9591
71.6899
71.9454
71.7526
67.3635
66.0431
65.3412
64.2741
65.6451
63.5184
65.7553
65.8497
65.5909
65.3264
65.4964
65.2886
65.4689
72.7641
71.0921
72.6894
71.8167
70.9788
70.5308
70.1961
70.1839
69.2796
64.8825
72.307
67.1674
63.8212
64.8752
63.3042
64.4311
65.2554
70.7068
69.1495
68.7301
68.7574
68.042
67.764
67.785
74.1696
69.167
65.6315
68.3685
66.4949
67.4543
64.758
64.105
65.4458
65.1853
64.9527
64.0655
64.1216
64.0926
64.416
64.853
64.0628
64.0716
64.0357
64.902
64.1065
65.8919
64.2582
64.5104
65.7164
64.9169
64.2071
64.159
64.1351
64.1171
64.3492
64.9284
64.7029
64.1078
64.2256
64.4452
64.5259
65.3151
65.5896
65.3433
65.7133
65.6561
65.7315
65.5869
65.6647
68.3908
69.8018
69.9322
65.1138
65.6328
67.0982
65.6918
65.3255
65.5975
65.4098
65.589
65.37
65.58
65.6684
65.3479
65.4987
65.4672
65.5832
65.3648
65.4434
69.8378
70.0199
66.6675
67.5456
67.6025
65.4666
65.6516
64.9519
65.4059
65.6414
65.5374
65.4843
65.5565
65.3545
65.4424
65.3371
65.5023
65.3117
65.4823
68.9182
66.6384
66.9889
68.137
67.385
66.3888
65.1819
66.246
65.7858
65.3592
63.1246
64.7796
65.0358
65.5398
64.7661
65.3343
64.6469
65.9747
65.6868
65.3863
65.2759
65.4342
67.3071
65.8932
66.5896
66.5582
65.5523
65.6222
65.647
63.4899
65.6722
65.2105
64.3175
65.351
64.0871
64.0892
64.0548
64.0769
64.073
64.0612
64.0623
64.0333
64.0521
64.0388
64.0585
64.0655
64.0629
64.0879
64.1247
64.1494
64.0849
64.0889
64.0918
64.0669
64.0422
64.0797
64.0613
64.0648
64.0095
64.2434
64.3037
64.4725
64.1672
64.2756
64.2603
64.4159
65.0547
65.547
64.2853
65.1859
65.4254
65.6487
65.3621
65.6676
63.923
64.1327
64.2178
64.0388
63.8333
63.7586
65.5785
65.3002
65.437
64.9175
65.461
65.1894
65.4029
65.5932
65.1932
65.4476
65.3093
65.6344
65.2532
65.4798
64.8066
64.7421
63.8147
63.7926
63.7191
65.5819
65.3941
65.6106
65.2944
65.6001
65.1761
65.5707
65.5047
65.1977
65.4096
65.3336
65.5437
65.3974
65.6384
64.5671
63.8397
64.3437
64.8406
64.7972
64.0591
64.0981
64.1315
64.307
65.4464
65.277
65.4164
64.9099
65.2244
65.0247
65.1592
66.4179
65.9525
66.6877
65.4524
65.6786
65.6416
64.9674
64.4953
65.0231
65.088
64.5976
64.7021
64.7444
65.1083
65.0409
64.7583
65.1031
64.8132
65.0801
64.0432
64.0279
64.0501
64.0315
64.0522
64.0434
64.024
64.044
64.0642
64.1123
64.0669
64.0715
64.1242
64.1704
64.1696
64.0615
64.041
64.0489
64.0475
64.0239
64.043
64.028
64.0381
64.0263
64.2721
64.2063
64.3086
64.173
64.2501
64.154
64.2329
63.9444
63.9944
64.0746
63.9765
64.0009
64.0368
63.9904
63.9997
65.8309
65.1062
65.4463
64.6887
65.1285
64.986
65.2332
65.688
65.1173
65.5399
65.4153
65.7204
65.4304
65.6228
63.9829
63.8799
63.9539
63.9907
63.8754
65.5454
65.1868
66.2692
64.9918
65.3356
64.9001
66.2994
65.6646
65.5973
65.6919
65.5487
65.8122
65.7347
65.7677
63.8977
63.8729
64.0773
63.9313
64.1195
63.8616
64.0781
63.9064
64.0362
64.9832
64.7675
64.8858
64.7052
64.7853
64.6371
64.7099
64.5681
64.2493
64.113
64.5358
64.5324
64.2175
64.4225
64.4544
64.7271
64.6581
64.4708
64.5002
64.5066
64.5378
64.013
64.0237
64.0444
64.0238
64.0441
64.0539
64.0389
64.0545
64.0787
64.1281
64.0811
64.0883
64.126
64.1624
64.1494
64.0332
64.04
64.0047
64.0404
64.0262
64.0284
64.0196
64.0422
64.0298
64.2266
64.1249
64.2012
64.1407
64.2058
64.112
64.1904
64.1021
64.1923
64.0176
63.9839
63.9764
64.0282
63.9909
63.9844
64.7949
65.3767
64.0532
64.2679
63.4728
63.9454
63.8875
63.9437
63.9238
63.9013
65.3025
64.4933
64.1649
63.2028
64.3008
63.8689
63.8904
64.0622
63.9076
63.9843
63.8521
64.0299
63.9077
63.9547
64.6225
64.5472
64.5741
64.4373
64.5096
64.4714
64.4773
64.2818
64.0564
64.0394
64.3197
64.3768
64.1156
64.2492
64.2574
64.4665
64.3956
64.2745
64.4176
64.2862
64.4518
64.0393
64.0467
64.0631
64.0554
64.0674
64.0661
64.0651
64.0723
64.0951
64.1225
64.0855
64.0925
64.1137
64.1377
64.1254
64.0478
64.0383
64.0388
64.0454
64.037
64.0492
64.047
64.0408
64.0355
64.1913
64.0963
64.1915
64.1044
64.1797
64.0901
64.1911
64.2203
64.2281
64.0308
64.0015
64.0138
64.0078
64.0038
64.0226
64.1192
63.9399
64.1312
64.1737
64.1917
63.915
63.9152
63.9256
63.9092
63.9288
63.7044
64.2289
64.0497
64.0708
64.2419
63.9133
63.932
63.9945
63.9221
63.9675
63.9115
63.971
63.9443
63.989
64.4248
64.4007
64.4054
64.264
64.3582
64.3421
64.3317
64.3455
64.0498
64.0621
64.1877
64.1921
64.1403
64.1428
64.1739
64.312
64.2343
64.174
64.2366
64.1968
64.3155
64.0435
64.0368
64.0634
64.0662
64.0702
64.0559
64.0614
64.0629
64.0875
64.1038
64.0717
64.0788
64.0924
64.1135
64.1009
64.0139
63.9886
64.0445
64.0214
64.0178
64.0256
64.0378
63.9951
64.0003
64.1714
64.072
64.1828
64.0858
64.1648
64.0691
64.1712
64.2224
64.2097
63.978
63.9819
63.9955
63.9576
63.9522
63.9627
64.2354
64.2434
64.1723
64.2421
64.2396
63.8902
63.942
63.8901
63.8771
63.9557
64.155
64.2746
64.1804
64.1767
64.301
63.9494
63.9645
63.9671
63.9682
63.9805
63.96
63.9787
63.9809
63.9715
64.2962
64.2985
64.2681
64.2136
64.2553
64.2788
64.229
64.2677
64.0514
64.0247
64.1153
64.1539
64.1098
64.0953
64.1078
64.2083
64.1575
64.1084
64.1899
64.128
64.2427
64.0303
64.0247
64.0472
64.056
64.0542
64.0368
64.0495
64.0434
64.0686
64.0815
64.0523
64.0584
64.071
64.0889
64.078
63.9708
63.9671
64.0298
63.9711
63.9893
63.9979
64.0233
63.9601
63.9841
64.1525
64.0506
64.1566
64.0658
64.14
64.0499
64.1443
64.1941
64.1792
63.9519
63.9282
63.9375
63.9577
63.9238
63.9275
64.2195
64.2273
64.163
64.2079
64.2198
63.9046
63.9724
63.9535
63.9457
63.9926
64.19
64.3115
64.1859
64.1958
64.3102
63.9872
64.0166
64.004
64.0025
63.9943
64.0136
64.0266
64.0306
64.0215
64.2299
64.2687
64.2114
64.1959
64.2125
64.2464
64.1979
64.2379
64.0268
64.0496
64.0793
64.0936
64.0864
64.067
64.1025
64.1585
64.1297
64.0952
64.1388
64.1313
64.2336
64.0208
64.0179
64.024
64.0418
64.0306
64.0077
64.0334
64.0128
64.0489
64.0623
64.0382
64.0393
64.0555
64.0714
64.0665
63.9749
63.9896
64.021
63.9639
63.9839
64.0036
64.0202
63.9774
63.9891
64.1303
64.038
64.1355
64.0547
64.1248
64.0469
64.1297
64.1672
64.1593
63.9711
63.9367
63.9339
63.9895
63.9587
63.9518
64.2006
64.2145
64.1645
64.1944
64.2087
63.9782
64.0094
64.0226
64.0097
64.0254
64.1946
64.303
64.1646
64.1922
64.2967
64.0424
64.0641
64.0341
64.0576
64.0405
64.0676
64.0423
64.083
64.058
64.1952
64.2146
64.1809
64.1733
64.1806
64.1914
64.1623
64.2156
64.0415
64.0448
64.0637
64.0962
64.0432
64.06
64.0758
64.1261
64.1139
64.0573
64.0982
64.0935
64.1201
64.0162
64.0139
63.9925
64.0224
63.9947
63.9792
64.0096
63.9798
64.0332
64.051
64.0359
64.0287
64.0458
64.0651
64.0636
64.0072
64.0248
64.0198
63.995
63.9969
64.0169
64.0187
64.0122
64.0043
64.1223
64.0491
64.1286
64.052
64.1232
64.0643
64.1296
64.1561
64.1561
64.0107
63.9824
63.9736
64.0317
64.008
63.996
64.1886
64.2028
64.1606
64.1809
64.1971
64.0367
64.0455
64.0936
64.0607
64.0751
64.1922
64.2933
64.1612
64.194
64.29
64.0852
64.107
64.0503
64.1079
64.0818
64.1206
64.0618
64.134
64.1044
64.1628
64.1778
64.1442
64.1614
64.1477
64.1678
64.1307
64.1896
64.0673
64.0931
64.0667
64.0767
64.0871
64.0727
64.0908
64.0704
64.0518
64.0224
64.0626
64.026
64.1289
64.01
64.0033
63.9684
63.9951
63.9655
63.9567
63.9795
63.9489
64.0228
64.0387
64.0301
64.0148
64.0321
64.0577
64.0496
64.0407
64.0535
64.0174
64.0254
64.0116
64.023
64.015
64.0359
64.0205
64.1198
64.0618
64.1334
64.0422
64.1163
64.061
64.1361
64.1579
64.1597
64.0493
64.0395
64.021
64.0645
64.0733
64.0491
64.1758
64.1934
64.1643
64.1781
64.1936
64.0784
64.1025
64.1569
64.0993
64.1076
64.1969
64.2868
64.1704
64.2035
64.2852
64.1285
64.1383
64.0737
64.1559
64.122
64.1465
64.0879
64.1664
64.1313
64.141
64.1648
64.125
64.1663
64.1409
64.1727
64.1324
64.1844
64.1117
64.123
64.0828
64.1069
64.1311
64.1081
64.132
64.0832
64.0476
64.0609
64.1091
64.0739
64.1563
63.9939
63.9816
63.9423
63.9581
63.9287
63.9208
63.9312
63.9013
64.0042
64.0252
64.0056
63.9887
64.0132
64.0419
64.0289
64.0626
64.0687
64.011
64.0414
64.0284
64.0202
64.0045
64.043
64.0337
64.1128
64.0504
64.1379
64.0276
64.1049
64.0395
64.138
64.1598
64.1627
64.0792
64.1075
64.0796
64.0933
64.1311
64.103
64.1777
64.1945
64.1825
64.1783
64.1981
64.1221
64.1285
64.149
64.127
64.1583
64.2143
64.2836
64.1874
64.2252
64.2822
64.1386
64.1473
64.0936
64.1658
64.1308
64.1187
64.1092
64.1613
64.1286
64.1473
64.1865
64.1446
64.1911
64.1564
64.1951
64.154
64.1923
64.1249
64.1276
64.1333
64.1604
64.1543
64.1447
64.1786
64.1285
64.0993
64.0986
64.1449
64.1202
64.1819
63.9689
63.9537
63.8961
63.8992
63.8714
63.8688
63.8675
63.8408
63.9686
63.995
63.9601
63.9423
63.9691
64.0118
63.9913
64.0702
64.0712
63.996
64.0416
64.0326
64.0135
63.9869
64.0405
64.0245
64.0958
64.017
64.1336
63.9921
64.0901
63.9968
64.1342
64.1573
64.1586
64.1038
64.138
64.1226
64.1119
64.1417
64.1398
64.1855
64.2017
64.2066
64.1896
64.206
64.1393
64.1827
64.1748
64.1552
64.2144
64.2372
64.2843
64.2192
64.2496
64.288
64.1676
64.1973
64.1372
64.1599
64.132
64.1723
64.1622
64.1645
64.1456
64.1648
64.2044
64.162
64.2178
64.1732
64.2123
64.1708
64.2175
64.1391
64.1531
64.151
64.184
64.1802
64.16
64.1892
64.1577
64.1297
64.1171
64.1697
64.1353
64.2065
63.9424
63.9399
63.8436
63.8411
63.8136
63.8225
63.8244
63.7906
63.9119
63.9333
63.9035
63.8787
63.8954
63.9627
63.9441
64.0719
64.0707
63.9767
64.0411
64.0101
64.007
63.973
64.0411
63.9925
64.0827
63.9707
64.1432
63.9351
64.0827
63.9452
64.1657
64.1838
64.2084
64.1145
64.1475
64.1481
64.1165
64.1497
64.1448
64.2026
64.2187
64.2714
64.2339
64.2439
64.2034
64.2414
64.2233
64.2424
64.2598
64.2651
64.2919
64.259
64.2887
64.305
64.2185
64.2309
64.1632
64.178
64.1625
64.1972
64.1486
64.1876
64.1774
64.1852
64.2198
64.1824
64.2407
64.1992
64.2286
64.1962
64.2417
64.1674
64.1776
64.1749
64.2029
64.2048
64.1916
64.2187
64.1818
64.1465
64.1435
64.1979
64.1619
64.2266
63.9468
63.9656
63.8115
63.821
63.779
63.8197
63.8369
63.7851
63.853
63.8712
63.8897
63.8503
63.8705
63.9529
63.9838
64.0763
64.0874
63.9722
64.0459
63.9776
64.0119
63.9746
64.0555
63.9702
64.1057
63.9457
64.1951
63.9746
64.1498
63.9848
64.2359
64.2495
64.3436
64.1168
64.1454
64.1377
64.1214
64.1438
64.1374
64.2713
64.2758
64.4044
64.3068
64.3112
64.2388
64.2585
64.2029
64.2101
64.2324
64.3244
64.3295
64.3405
64.363
64.3515
64.2189
64.1901
64.1441
64.1902
64.1824
64.1614
64.1407
64.181
64.1849
64.2144
64.2383
64.21
64.2611
64.2399
64.2514
64.2276
64.2884
64.1817
64.1876
64.2048
64.2306
64.2248
64.2154
64.2394
64.2161
64.1768
64.1759
64.2329
64.1909
64.253
64.0005
64.0573