/*--------------------------------*- C++ -*----------------------------------*\
| =========                 |                                                 |
| \\      /  F ield         | OpenFOAM: The Open Source CFD Toolbox           |
|  \\    /   O peration     | Version:  5.x                                   |
|   \\  /    A nd           | Web:      www.OpenFOAM.org                      |
|    \\/     M anipulation  |                                                 |
\*---------------------------------------------------------------------------*/
FoamFile
{
    version     2.0;
    format      ascii;
    class       volVectorField;
    location    "1.95";
    object      Us;
}
// * * * * * * * * * * * * * * * * * * * * * * * * * * * * * * * * * * * * * //

dimensions      [0 1 -1 0 0 0 0];

internalField   nonuniform List<vector> 
10571
(
(0.0704075 0.0430367 -0.0765875)
(0.0337108 0.0347436 -0.0923935)
(0.118949 0.218348 -0.0615306)
(0.0635805 0.304002 0.157829)
(0.0287985 0.176534 -0.0107377)
(0.168557 0.186125 -0.0732823)
(0.293514 0.502172 0.15035)
(0.144398 0.345421 0.193899)
(-0.174531 0.116016 0.0917148)
(-0.0266197 -0.000548219 -0.0255767)
(0.0443219 0.121211 -0.193162)
(0.192665 -0.0392838 0.127374)
(0.248786 0.143227 0.15885)
(-0.141902 0.0278669 -0.00450837)
(-0.157167 0.0296602 -0.0995347)
(-0.0617429 0.0638953 -0.0491991)
(0.0194963 -0.00614577 -0.0361384)
(0.125793 -0.144187 0.035115)
(-0.177664 0.0801803 -0.0595535)
(-0.13892 0.102066 -0.074391)
(-0.0555598 0.0631424 -0.112282)
(0.0870094 -0.0440345 -0.161828)
(0 0 0)
(-0.0681739 0.102745 -0.170317)
(0.067355 0.0256511 -0.281737)
(0.00772911 0.0189643 -0.215016)
(0.0308967 0.120037 -0.148273)
(0.0707858 0.194071 -0.0151527)
(0.076763 0.0529639 -0.271011)
(0.095913 0.0744664 -0.184353)
(0.125888 0.26806 0.221228)
(0.0445803 0.157322 0.204678)
(0.0183352 -0.00404121 -0.0702971)
(0.0452638 0.079215 -0.272951)
(0.0190564 0.106789 -0.322053)
(0.0403538 -0.0738937 0.0453672)
(0.237376 0.290905 0.338536)
(-0.0775071 -0.00905997 0.0801947)
(-0.0116866 -0.0214092 -0.261737)
(-0.00994822 0.0210293 -0.241512)
(-0.0467767 0.00320119 -0.14516)
(-0.14796 -0.0614195 -0.0122563)
(-0.0137106 0.0559923 0.0916187)
(-0.0622019 0.0610958 -0.00409161)
(0.0479678 -0.0649184 -0.195333)
(-0.0968428 -0.0418735 -0.221228)
(0 0 0)
(-0.0873075 0.0475249 -0.00379384)
(0.0516809 0.00964054 -0.413939)
(-0.0184623 0.0165088 -0.288484)
(-0.0626115 0.0394165 -0.192638)
(-0.116061 -0.109508 0.00732311)
(0.0723734 0.0286989 -0.218125)
(0.0124738 0.0338411 -0.212253)
(-0.10613 -0.0353384 0.260414)
(-0.0791402 -0.110241 0.139194)
(0.0510742 0.0136262 -0.0271396)
(0.0433492 0.0845457 -0.186647)
(0.00481119 0.0638857 -0.478352)
(-0.113764 -0.0957182 -0.080686)
(-0.147298 -0.0621386 0.189677)
(-0.0541293 -0.0799752 0.104991)
(0.00936533 -0.0272589 -0.17783)
(-0.0331067 0.0278615 -0.356401)
(-0.0554225 0.051626 -0.140149)
(-0.188053 -0.01873 0.0585086)
(-0.0412423 0.003001 0.181127)
(-0.00392526 0.0355324 0.107173)
(0.0694736 -0.0961758 -0.0718316)
(-0.140108 -0.0554487 -0.11532)
(0 0 0)
(-0.0421492 0.0778695 0.093604)
(0.0206308 -0.00159911 -0.41737)
(-0.0100287 0.00857871 -0.318972)
(-0.0361893 0.00069589 -0.145803)
(-0.098688 -0.134045 -0.0267139)
(0.0577534 -0.00343495 -0.135906)
(-0.0343978 0.00283939 -0.118454)
(-0.173632 -0.141774 0.251712)
(-0.0365182 -0.0895434 0.135751)
(0.108267 0.0341091 -0.00599135)
(0.0600026 0.06525 -0.0966273)
(0.00643372 0.0675062 -0.433678)
(-0.170456 -0.118871 0.116184)
(-0.146698 -0.0764399 0.258003)
(-0.0430421 -0.0613411 0.103591)
(0.0518575 -0.0397172 -0.0427799)
(-0.0904439 0.0463761 -0.332483)
(-0.0518786 0.0832363 -0.102531)
(-0.152165 0.017622 0.0990944)
(-0.0684717 -0.00496932 0.100415)
(0.066791 -0.0600412 0.157924)
(0.102466 -0.15585 0.0658924)
(-0.150883 0.00221918 -0.0123649)
(0 0 0)
(0 0 0)
(0.027181 -0.00690028 -0.348718)
(0.00282323 -0.00167273 -0.311617)
(-0.00910714 -0.0150783 -0.0825048)
(0.0154434 -0.138396 -0.174356)
(0.0958215 -0.0505093 -0.104251)
(-0.032744 0.0213487 -0.0424973)
(-0.12582 -0.0728486 0.186998)
(0.0508543 -0.00350736 -0.0423017)
(0.136174 0.0583679 -0.0120749)
(0.0516012 0.0656729 -0.117161)
(0.00341215 0.0615512 -0.37346)
(-0.224953 -0.0999495 0.302057)
(-0.122125 -0.022469 0.362074)
(0.0572815 0.0781314 0.0596898)
(0.090254 0.0332242 -0.00503008)
(-0.0942971 0.0132662 -0.244984)
(-0.0362581 0.101307 -0.0574842)
(-0.0463208 0.121113 0.106865)
(-0.0201762 0.0146933 0.134812)
(0.0771322 -0.0588413 0.193961)
(0.138754 -0.111627 0.189824)
(0.0201593 0.0706177 0.022123)
(-0.065671 -0.0468343 0.234973)
(0 0 0)
(0.0132868 -0.00264091 -0.23858)
(-0.00696892 -0.00332099 -0.289154)
(-0.0244917 -0.0209203 -0.0312663)
(0.0806397 -0.0855403 -0.189668)
(0.047845 0.0300521 -0.20308)
(-0.122488 -0.0414742 0.165048)
(-0.0113819 -0.00744648 -0.0627973)
(0.0692738 0.0435762 -0.168684)
(0.0826155 0.0901437 -0.0294791)
(0.0141049 0.0602541 -0.108922)
(-0.0139359 0.00916565 -0.00699103)
(-0.000985409 0.0494317 -0.319432)
(-0.196302 -0.0356183 0.307658)
(-0.0220436 0.0993936 0.220055)
(0.112809 0.128686 0.0742074)
(0.0993417 0.143712 -0.00664929)
(-0.097929 -0.0051281 -0.16254)
(-0.0162685 -0.00632597 -0.00640597)
(-0.0583351 0.120538 -0.0231438)
(0.0408013 0.187793 0.101695)
(0.0124105 -0.0175225 0.254475)
(0.0505742 -0.112994 0.295501)
(0.011906 0.150472 0.013349)
(0.0692694 0.159214 0.0615308)
(-0.0482197 -0.00417589 0.265587)
(0.0369899 -0.052022 0.460936)
(0.000700714 -0.00120461 -0.248365)
(-0.0658685 0.0217189 -0.242378)
(-0.0119236 -0.0629661 -0.10388)
(0.0488731 -0.0183117 -0.223298)
(0.0536114 0.0360217 -0.249275)
(-0.150014 -0.0607803 0.0481435)
(0.00549796 0.00138751 -0.129538)
(0.0790926 0.0656976 -0.159416)
(0.0716265 0.0760924 0.0535837)
(0.153618 0.0167687 0.0189681)
(-0.0180752 0.00792776 -0.0131543)
(-0.00473849 0.0292414 -0.238543)
(-0.155288 0.028216 0.263307)
(0.00823382 0.112696 0.183308)
(0.132315 0.134384 0.108913)
(0.0638606 0.105288 0.0659236)
(0 0 0)
(-0.0366474 -0.00298361 -0.0243615)
(-0.0520513 0.13121 -0.0226603)
(0.0913819 0.159873 0.0718446)
(0.152187 -0.00667747 0.00581206)
(0 0 0)
(0 0 0)
(-0.0520126 -0.0182708 -0.0264988)
(0.108204 0.133177 0.055681)
(0.142938 0.062441 0.00870227)
(0.0955193 -0.000128336 0.362391)
(-0.00300855 -0.0132715 -0.218627)
(0.215057 0.000285853 -0.187392)
(-0.0730924 -0.00846038 -0.170303)
(0.0478043 0.0186536 -0.269254)
(0.0161496 0.0468564 -0.204474)
(-0.0835312 -0.0570556 -0.108132)
(0.0191912 0.063635 -0.127496)
(0.00843245 0.0843708 -0.252754)
(0.0793271 0.0671616 0.124807)
(0.14502 0.0480673 0.0996445)
(0 0 0)
(-0.0146883 -0.0172107 -0.131975)
(-0.0516107 0.0651024 -0.0262571)
(0.0942714 0.113871 0.0297575)
(0.123595 0.170691 0.098079)
(0.0920003 0.0890067 0.0475737)
(0 0 0)
(0 0 0)
(0.0176518 0.120577 -0.0693853)
(0.123849 0.0836801 0.0289957)
(0.180429 -0.00481545 0.0560062)
(0 0 0)
(0 0 0)
(0 0 0)
(0.128511 0.0629794 0.0858478)
(0.147666 0.0363039 0.016963)
(0.211567 -0.152974 0.0398522)
(0 0 0)
(0 0 0)
(-0.0716786 0.00661766 -0.134535)
(0.0660347 0.0361983 -0.159375)
(0 0 0)
(0 0 0)
(-0.0449973 0.122303 -0.0577276)
(-0.0696993 0.111606 -0.514877)
(0.0751109 0.0868892 0.0513064)
(0 0 0)
(0 0 0)
(0 0 0)
(0 0 0)
(0.158095 5.7827e-05 -0.120904)
(0 0 0)
(0.0739944 0.0922731 0.215814)
(0 0 0)
(0 0 0)
(0.0410747 0.0509929 -0.126902)
(0.127354 0.0463483 0.041072)
(0.177132 -0.0147539 0.0930964)
(-0.0274451 -0.142732 0.0615094)
(0 0 0)
(0.156631 0.0720048 0.0676668)
(0.205983 0.00164765 0.0329618)
(0.00753084 -0.202751 0.168221)
(0 0 0)
(0 0 0)
(0 0 0)
(0 0 0)
(0 0 0)
(0 0 0)
(0 0 0)
(0 0 0)
(0.00486772 0.0716725 -0.168561)
(0 0 0)
(0 0 0)
(0 0 0)
(0.0792235 0.021335 -0.196575)
(0.216169 -0.108051 0.0800028)
(0 0 0)
(0 0 0)
(0.00400013 -0.000125002 -0.206666)
(0.135804 0.0193011 0.0296482)
(0.191839 -0.0199674 0.123891)
(0.126266 0.0252398 0.171196)
(0 0 0)
(0.116249 0.100655 0.0996096)
(0.156035 -0.0856587 0.0886144)
(0 0 0)
(0 0 0)
(0 0 0)
(0 0 0)
(0 0 0)
(0 0 0)
(0 0 0)
(0 0 0)
(0 0 0)
(0 0 0)
(0 0 0)
(0 0 0)
(0 0 0)
(-2.2351e-14 1.08411e-14 1.44645e-15)
(0.199716 -0.0960817 -0.0153158)
(0 0 0)
(0 0 0)
(0 0 0)
(0.123842 0.0181573 0.0375116)
(0.20507 -0.104408 0.154691)
(0.162341 -0.101956 0.150117)
(0 0 0)
(0.159824 -0.0260297 0.113956)
(0.185536 0.05197 0.13255)
(0 0 0)
(0 0 0)
(0 0 0)
(0 0 0)
(0 0 0)
(0 0 0)
(0 0 0)
(0 0 0)
(0 0 0)
(0 0 0)
(0 0 0)
(0 0 0)
(0 0 0)
(0.125648 -0.0766388 -0.050754)
(0 0 0)
(0 0 0)
(0 0 0)
(0.0332842 0.011587 -0.193469)
(0.13324 0.00447557 0.120935)
(0.183555 -0.0432186 0.139687)
(0 0 0)
(0 0 0)
(0.10001 0.0185167 0.0791988)
(0.178037 -0.0121826 0.201444)
(0 0 0)
(0 0 0)
(0 0 0)
(0 0 0)
(0 0 0)
(0 0 0)
(0 0 0)
(0.0366803 0.0425484 -0.505418)
(0 0 0)
(0 0 0)
(0 0 0)
(0 0 0)
(0 0 0)
(0 0 0)
(0 0 0)
(0 0 0)
(0 0 0)
(0 0 0)
(0.123076 0.0492386 0.194595)
(0.171843 -0.0601319 0.203632)
(0 0 0)
(0 0 0)
(0.146492 -0.00260866 0.105343)
(0.148959 0.0416813 0.130275)
(0 0 0)
(0 0 0)
(0 0 0)
(0 0 0)
(0 0 0)
(0 0 0)
(0 0 0)
(0 0 0)
(0 0 0)
(0 0 0)
(0 0 0)
(0 0 0)
(0 0 0)
(0 0 0)
(0 0 0)
(0 0 0)
(0 0 0)
(0 0 0)
(0.113973 -0.00329957 0.176226)
(0.173863 -0.0653443 0.205572)
(0 0 0)
(0 0 0)
(0.0452794 0.117297 0.133638)
(0.163323 -0.0670012 0.193059)
(0.0106953 -0.201471 0.27018)
(0 0 0)
(0 0 0)
(0 0 0)
(0 0 0)
(0 0 0)
(0 0 0)
(0 0 0)
(0 0 0)
(0 0 0)
(0 0 0)
(0 0 0)
(0 0 0)
(0 0 0)
(0 0 0)
(0 0 0)
(0 0 0)
(0 0 0)
(0 0 0)
(0 0 0)
(0 0 0)
(0 0 0)
(0 0 0)
(0.186527 0.0968296 0.278295)
(0 0 0)
(0 0 0)
(0 0 0)
(0 0 0)
(0 0 0)
(0 0 0)
(0 0 0)
(0 0 0)
(0 0 0)
(0 0 0)
(0 0 0)
(0 0 0)
(0 0 0)
(0 0 0)
(0 0 0)
(0 0 0)
(0 0 0)
(0 0 0)
(0 0 0)
(0 0 0)
(0 0 0)
(0 0 0)
(0 0 0)
(0.1152 -0.0918751 0.218142)
(0 0 0)
(0 0 0)
(0 0 0)
(0 0 0)
(0 0 0)
(0 0 0)
(0 0 0)
(0 0 0)
(0 0 0)
(0 0 0)
(0 0 0)
(0 0 0)
(0 0 0)
(0 0 0)
(0 0 0)
(0 0 0)
(0 0 0)
(0 0 0)
(0 0 0)
(0 0 0)
(0 0 0)
(0 0 0)
(0 0 0)
(0 0 0)
(0 0 0)
(0 0 0)
(0 0 0)
(0 0 0)
(0 0 0)
(0 0 0)
(0 0 0)
(0 0 0)
(0 0 0)
(0 0 0)
(0 0 0)
(0 0 0)
(0 0 0)
(0 0 0)
(0 0 0)
(0 0 0)
(0 0 0)
(0 0 0)
(0 0 0)
(0 0 0)
(0 0 0)
(0 0 0)
(0 0 0)
(0 0 0)
(0 0 0)
(0 0 0)
(0 0 0)
(0 0 0)
(0 0 0)
(0 0 0)
(0 0 0)
(0 0 0)
(0 0 0)
(0 0 0)
(0 0 0)
(0 0 0)
(0 0 0)
(0 0 0)
(0 0 0)
(0 0 0)
(0 0 0)
(0 0 0)
(0 0 0)
(0 0 0)
(0 0 0)
(0 0 0)
(0 0 0)
(0 0 0)
(0 0 0)
(0 0 0)
(0 0 0)
(0 0 0)
(0 0 0)
(0 0 0)
(0 0 0)
(0 0 0)
(0 0 0)
(0 0 0)
(0 0 0)
(0 0 0)
(0 0 0)
(0 0 0)
(0 0 0)
(0 0 0)
(0 0 0)
(0 0 0)
(0 0 0)
(0 0 0)
(0 0 0)
(0 0 0)
(0 0 0)
(0 0 0)
(0 0 0)
(0 0 0)
(0 0 0)
(0 0 0)
(0 0 0)
(0 0 0)
(0 0 0)
(0 0 0)
(0 0 0)
(0 0 0)
(0 0 0)
(0 0 0)
(0 0 0)
(0 0 0)
(0 0 0)
(0 0 0)
(0 0 0)
(0 0 0)
(0 0 0)
(0 0 0)
(0 0 0)
(0 0 0)
(0 0 0)
(0 0 0)
(0 0 0)
(0 0 0)
(0 0 0)
(0 0 0)
(0 0 0)
(0 0 0)
(0 0 0)
(0 0 0)
(0 0 0)
(0 0 0)
(0 0 0)
(0 0 0)
(0 0 0)
(0 0 0)
(0 0 0)
(0 0 0)
(0 0 0)
(0 0 0)
(0 0 0)
(0 0 0)
(0 0 0)
(0 0 0)
(0 0 0)
(0 0 0)
(0 0 0)
(0 0 0)
(0 0 0)
(0 0 0)
(0 0 0)
(0 0 0)
(0 0 0)
(0 0 0)
(0 0 0)
(0 0 0)
(0 0 0)
(0 0 0)
(0 0 0)
(0 0 0)
(0 0 0)
(0 0 0)
(0 0 0)
(0 0 0)
(0 0 0)
(0 0 0)
(0 0 0)
(0 0 0)
(0 0 0)
(0 0 0)
(0 0 0)
(0 0 0)
(0 0 0)
(0 0 0)
(0 0 0)
(0 0 0)
(0 0 0)
(0 0 0)
(0 0 0)
(0 0 0)
(0 0 0)
(0 0 0)
(0 0 0)
(0 0 0)
(0 0 0)
(0 0 0)
(0 0 0)
(0 0 0)
(0 0 0)
(0 0 0)
(0 0 0)
(0 0 0)
(0 0 0)
(0 0 0)
(0 0 0)
(0 0 0)
(0 0 0)
(0 0 0)
(0 0 0)
(0 0 0)
(0 0 0)
(0 0 0)
(0 0 0)
(0 0 0)
(0 0 0)
(0 0 0)
(0 0 0)
(0 0 0)
(0 0 0)
(0 0 0)
(0 0 0)
(0 0 0)
(0 0 0)
(0 0 0)
(0 0 0)
(0 0 0)
(0 0 0)
(0 0 0)
(0 0 0)
(0 0 0)
(0 0 0)
(0 0 0)
(0 0 0)
(0 0 0)
(0 0 0)
(0 0 0)
(0 0 0)
(0 0 0)
(0 0 0)
(0 0 0)
(0 0 0)
(0 0 0)
(0 0 0)
(0 0 0)
(0 0 0)
(0 0 0)
(0 0 0)
(0 0 0)
(0 0 0)
(0 0 0)
(0 0 0)
(0 0 0)
(0 0 0)
(0 0 0)
(0 0 0)
(0 0 0)
(0 0 0)
(0 0 0)
(0 0 0)
(0 0 0)
(0 0 0)
(0 0 0)
(0 0 0)
(0 0 0)
(0 0 0)
(0 0 0)
(0 0 0)
(0 0 0)
(0 0 0)
(0 0 0)
(0 0 0)
(0 0 0)
(0 0 0)
(0 0 0)
(0 0 0)
(0 0 0)
(0 0 0)
(0 0 0)
(0 0 0)
(0 0 0)
(0 0 0)
(0 0 0)
(0 0 0)
(0 0 0)
(0 0 0)
(0 0 0)
(0 0 0)
(0 0 0)
(0 0 0)
(0 0 0)
(0 0 0)
(0 0 0)
(0 0 0)
(0 0 0)
(0 0 0)
(0 0 0)
(0 0 0)
(0 0 0)
(0 0 0)
(0 0 0)
(0 0 0)
(0 0 0)
(0 0 0)
(0 0 0)
(0 0 0)
(0 0 0)
(0 0 0)
(0 0 0)
(0 0 0)
(0 0 0)
(0 0 0)
(0 0 0)
(0 0 0)
(0 0 0)
(0 0 0)
(0 0 0)
(0 0 0)
(0 0 0)
(0 0 0)
(0 0 0)
(0 0 0)
(0 0 0)
(0 0 0)
(0 0 0)
(0 0 0)
(0 0 0)
(0 0 0)
(0 0 0)
(0 0 0)
(0 0 0)
(0 0 0)
(0 0 0)
(0 0 0)
(0 0 0)
(0 0 0)
(0 0 0)
(0 0 0)
(0 0 0)
(0 0 0)
(0 0 0)
(0 0 0)
(0 0 0)
(0 0 0)
(0 0 0)
(0 0 0)
(0 0 0)
(0 0 0)
(0 0 0)
(0 0 0)
(0 0 0)
(0 0 0)
(0 0 0)
(0 0 0)
(0 0 0)
(0 0 0)
(0 0 0)
(0 0 0)
(0 0 0)
(0 0 0)
(0 0 0)
(0 0 0)
(0 0 0)
(0 0 0)
(0 0 0)
(0 0 0)
(0 0 0)
(0 0 0)
(0 0 0)
(0 0 0)
(0 0 0)
(0 0 0)
(0 0 0)
(0 0 0)
(0 0 0)
(0 0 0)
(0 0 0)
(0 0 0)
(0 0 0)
(0 0 0)
(0 0 0)
(0 0 0)
(0 0 0)
(0 0 0)
(0 0 0)
(0 0 0)
(0 0 0)
(0 0 0)
(0 0 0)
(0 0 0)
(0 0 0)
(0 0 0)
(0 0 0)
(0 0 0)
(0 0 0)
(0 0 0)
(0 0 0)
(0 0 0)
(0 0 0)
(0 0 0)
(0 0 0)
(0 0 0)
(0 0 0)
(0 0 0)
(0 0 0)
(0 0 0)
(0 0 0)
(0 0 0)
(0 0 0)
(0 0 0)
(0 0 0)
(0 0 0)
(0 0 0)
(0 0 0)
(0 0 0)
(0 0 0)
(0 0 0)
(0 0 0)
(0 0 0)
(0 0 0)
(0 0 0)
(0 0 0)
(0 0 0)
(0 0 0)
(0 0 0)
(0 0 0)
(0 0 0)
(0 0 0)
(0 0 0)
(0 0 0)
(0 0 0)
(0 0 0)
(0 0 0)
(0 0 0)
(0 0 0)
(0 0 0)
(0 0 0)
(0 0 0)
(0 0 0)
(0 0 0)
(0 0 0)
(0 0 0)
(0 0 0)
(0 0 0)
(0 0 0)
(0 0 0)
(0 0 0)
(0 0 0)
(0 0 0)
(0 0 0)
(0 0 0)
(0 0 0)
(0 0 0)
(0 0 0)
(0 0 0)
(0 0 0)
(0 0 0)
(0 0 0)
(0 0 0)
(0 0 0)
(0 0 0)
(0 0 0)
(0 0 0)
(0 0 0)
(0 0 0)
(0 0 0)
(0 0 0)
(0 0 0)
(0 0 0)
(0 0 0)
(0 0 0)
(0 0 0)
(0 0 0)
(0 0 0)
(0 0 0)
(0 0 0)
(0 0 0)
(0 0 0)
(0 0 0)
(0 0 0)
(0 0 0)
(0 0 0)
(0 0 0)
(0 0 0)
(0 0 0)
(0 0 0)
(0 0 0)
(0 0 0)
(0 0 0)
(0 0 0)
(0 0 0)
(0 0 0)
(0 0 0)
(0 0 0)
(0 0 0)
(0 0 0)
(0 0 0)
(0 0 0)
(0 0 0)
(0 0 0)
(0 0 0)
(0 0 0)
(0 0 0)
(0 0 0)
(0 0 0)
(0 0 0)
(0 0 0)
(0 0 0)
(0 0 0)
(0 0 0)
(0 0 0)
(0 0 0)
(0 0 0)
(0 0 0)
(0 0 0)
(0 0 0)
(0 0 0)
(0 0 0)
(0 0 0)
(0 0 0)
(0 0 0)
(0 0 0)
(0 0 0)
(0 0 0)
(0 0 0)
(0 0 0)
(0 0 0)
(0 0 0)
(0 0 0)
(0 0 0)
(0 0 0)
(0 0 0)
(0 0 0)
(0 0 0)
(0 0 0)
(0 0 0)
(0 0 0)
(0 0 0)
(0 0 0)
(0 0 0)
(0 0 0)
(0 0 0)
(0 0 0)
(0 0 0)
(0 0 0)
(0 0 0)
(0 0 0)
(0 0 0)
(0 0 0)
(0 0 0)
(0 0 0)
(0 0 0)
(0 0 0)
(0 0 0)
(0 0 0)
(0 0 0)
(0 0 0)
(0 0 0)
(0 0 0)
(0 0 0)
(0 0 0)
(0 0 0)
(0 0 0)
(0 0 0)
(0 0 0)
(0 0 0)
(0 0 0)
(0 0 0)
(0 0 0)
(0 0 0)
(0 0 0)
(0 0 0)
(0 0 0)
(0 0 0)
(0 0 0)
(0 0 0)
(0 0 0)
(0 0 0)
(0 0 0)
(0 0 0)
(0 0 0)
(0 0 0)
(0 0 0)
(0 0 0)
(0 0 0)
(0 0 0)
(0 0 0)
(0 0 0)
(0 0 0)
(0 0 0)
(0 0 0)
(0 0 0)
(0 0 0)
(0 0 0)
(0 0 0)
(0 0 0)
(0 0 0)
(0 0 0)
(0 0 0)
(0 0 0)
(0 0 0)
(0 0 0)
(0 0 0)
(0 0 0)
(0 0 0)
(0 0 0)
(0 0 0)
(0 0 0)
(0 0 0)
(0 0 0)
(0 0 0)
(0 0 0)
(0 0 0)
(0 0 0)
(0 0 0)
(0 0 0)
(0 0 0)
(0 0 0)
(0 0 0)
(0 0 0)
(0 0 0)
(0 0 0)
(0 0 0)
(0 0 0)
(0 0 0)
(0 0 0)
(0 0 0)
(0 0 0)
(0 0 0)
(0 0 0)
(0 0 0)
(0 0 0)
(0 0 0)
(0 0 0)
(0 0 0)
(0 0 0)
(0 0 0)
(0 0 0)
(0 0 0)
(0 0 0)
(0 0 0)
(0 0 0)
(0 0 0)
(0 0 0)
(0 0 0)
(0 0 0)
(0 0 0)
(0 0 0)
(0 0 0)
(0 0 0)
(0 0 0)
(0 0 0)
(0 0 0)
(0 0 0)
(0 0 0)
(0 0 0)
(0 0 0)
(0 0 0)
(0 0 0)
(0 0 0)
(0 0 0)
(0 0 0)
(0 0 0)
(0 0 0)
(0 0 0)
(0 0 0)
(0 0 0)
(0 0 0)
(0 0 0)
(0 0 0)
(0 0 0)
(0 0 0)
(0 0 0)
(0 0 0)
(0 0 0)
(0 0 0)
(0 0 0)
(0 0 0)
(0 0 0)
(0 0 0)
(0 0 0)
(0 0 0)
(0 0 0)
(0 0 0)
(0 0 0)
(0 0 0)
(0 0 0)
(0 0 0)
(0 0 0)
(0 0 0)
(0 0 0)
(0 0 0)
(0 0 0)
(0 0 0)
(0 0 0)
(0 0 0)
(0 0 0)
(0 0 0)
(0 0 0)
(0 0 0)
(0 0 0)
(0 0 0)
(0 0 0)
(0 0 0)
(0 0 0)
(0 0 0)
(0 0 0)
(0 0 0)
(0 0 0)
(0 0 0)
(0 0 0)
(0 0 0)
(0 0 0)
(0 0 0)
(0 0 0)
(0 0 0)
(0 0 0)
(0 0 0)
(0 0 0)
(0 0 0)
(0 0 0)
(0 0 0)
(0 0 0)
(0 0 0)
(0 0 0)
(0 0 0)
(0 0 0)
(0 0 0)
(0 0 0)
(0 0 0)
(0 0 0)
(0 0 0)
(0 0 0)
(0 0 0)
(0 0 0)
(0 0 0)
(0 0 0)
(0 0 0)
(0 0 0)
(0 0 0)
(0 0 0)
(0 0 0)
(0 0 0)
(0 0 0)
(0 0 0)
(0 0 0)
(0 0 0)
(0 0 0)
(0 0 0)
(0 0 0)
(0 0 0)
(0 0 0)
(0 0 0)
(0 0 0)
(0 0 0)
(0 0 0)
(0 0 0)
(0 0 0)
(0 0 0)
(0 0 0)
(0 0 0)
(0 0 0)
(0 0 0)
(0 0 0)
(0 0 0)
(0 0 0)
(0 0 0)
(0 0 0)
(0 0 0)
(0 0 0)
(0 0 0)
(0 0 0)
(0 0 0)
(0 0 0)
(0 0 0)
(0 0 0)
(0 0 0)
(0 0 0)
(0 0 0)
(0 0 0)
(0 0 0)
(0 0 0)
(0 0 0)
(0 0 0)
(0 0 0)
(0 0 0)
(0 0 0)
(0 0 0)
(0 0 0)
(0 0 0)
(0 0 0)
(0 0 0)
(0 0 0)
(0 0 0)
(0 0 0)
(0 0 0)
(0 0 0)
(0 0 0)
(0 0 0)
(0 0 0)
(0 0 0)
(0 0 0)
(0 0 0)
(0 0 0)
(0 0 0)
(0 0 0)
(0 0 0)
(0 0 0)
(0 0 0)
(0 0 0)
(0 0 0)
(0 0 0)
(0 0 0)
(0 0 0)
(0 0 0)
(0 0 0)
(0 0 0)
(0 0 0)
(0 0 0)
(0 0 0)
(0 0 0)
(0 0 0)
(0 0 0)
(0 0 0)
(0 0 0)
(0 0 0)
(0 0 0)
(0 0 0)
(0 0 0)
(0 0 0)
(0 0 0)
(0 0 0)
(0 0 0)
(0 0 0)
(0 0 0)
(0 0 0)
(0 0 0)
(0 0 0)
(0 0 0)
(0 0 0)
(0 0 0)
(0 0 0)
(0 0 0)
(0 0 0)
(0 0 0)
(0 0 0)
(0 0 0)
(0 0 0)
(0 0 0)
(0 0 0)
(0 0 0)
(0 0 0)
(0 0 0)
(0 0 0)
(0 0 0)
(0 0 0)
(0 0 0)
(0 0 0)
(0 0 0)
(0 0 0)
(0 0 0)
(0 0 0)
(0 0 0)
(0 0 0)
(0 0 0)
(0 0 0)
(0 0 0)
(0 0 0)
(0 0 0)
(0 0 0)
(0 0 0)
(0 0 0)
(0 0 0)
(0 0 0)
(0 0 0)
(0 0 0)
(0 0 0)
(0 0 0)
(0 0 0)
(0 0 0)
(0 0 0)
(0 0 0)
(0 0 0)
(0 0 0)
(0 0 0)
(0 0 0)
(0 0 0)
(0 0 0)
(0 0 0)
(0 0 0)
(0 0 0)
(0 0 0)
(0 0 0)
(0 0 0)
(0 0 0)
(0 0 0)
(0 0 0)
(0 0 0)
(0 0 0)
(0 0 0)
(0 0 0)
(0 0 0)
(0 0 0)
(0 0 0)
(0 0 0)
(0 0 0)
(0 0 0)
(0 0 0)
(0 0 0)
(0 0 0)
(0 0 0)
(0 0 0)
(0 0 0)
(0 0 0)
(0 0 0)
(0 0 0)
(0 0 0)
(0 0 0)
(0 0 0)
(0 0 0)
(0 0 0)
(0 0 0)
(0 0 0)
(0 0 0)
(0 0 0)
(0 0 0)
(0 0 0)
(0 0 0)
(0 0 0)
(0 0 0)
(0 0 0)
(0 0 0)
(0 0 0)
(0 0 0)
(0 0 0)
(0 0 0)
(0 0 0)
(0 0 0)
(0 0 0)
(0 0 0)
(0 0 0)
(0 0 0)
(0 0 0)
(0 0 0)
(0 0 0)
(0 0 0)
(0 0 0)
(0 0 0)
(0 0 0)
(0 0 0)
(0 0 0)
(0 0 0)
(0 0 0)
(0 0 0)
(0 0 0)
(0 0 0)
(0 0 0)
(0 0 0)
(0 0 0)
(0 0 0)
(0 0 0)
(0 0 0)
(0 0 0)
(0 0 0)
(0 0 0)
(0 0 0)
(0 0 0)
(0 0 0)
(0 0 0)
(0 0 0)
(0 0 0)
(0 0 0)
(0 0 0)
(0 0 0)
(0 0 0)
(0 0 0)
(0 0 0)
(0 0 0)
(0 0 0)
(0 0 0)
(0 0 0)
(0 0 0)
(0 0 0)
(0 0 0)
(0 0 0)
(0 0 0)
(0 0 0)
(0 0 0)
(0 0 0)
(0 0 0)
(0 0 0)
(0 0 0)
(0 0 0)
(0 0 0)
(0 0 0)
(0 0 0)
(0 0 0)
(0 0 0)
(0 0 0)
(0 0 0)
(0 0 0)
(0 0 0)
(0 0 0)
(0 0 0)
(0 0 0)
(0 0 0)
(0 0 0)
(0 0 0)
(0 0 0)
(0 0 0)
(0 0 0)
(0 0 0)
(0 0 0)
(0 0 0)
(0 0 0)
(0 0 0)
(0 0 0)
(0 0 0)
(0 0 0)
(0 0 0)
(0 0 0)
(0 0 0)
(0 0 0)
(0 0 0)
(0 0 0)
(0 0 0)
(0 0 0)
(0 0 0)
(0 0 0)
(0 0 0)
(0 0 0)
(0 0 0)
(0 0 0)
(0 0 0)
(0 0 0)
(0 0 0)
(0 0 0)
(0 0 0)
(0 0 0)
(0 0 0)
(0 0 0)
(0 0 0)
(0 0 0)
(0 0 0)
(0 0 0)
(0 0 0)
(0 0 0)
(0 0 0)
(0 0 0)
(0 0 0)
(0 0 0)
(0 0 0)
(0 0 0)
(0 0 0)
(0 0 0)
(0 0 0)
(0 0 0)
(0 0 0)
(0 0 0)
(0 0 0)
(0 0 0)
(0 0 0)
(0 0 0)
(0 0 0)
(0 0 0)
(0 0 0)
(0 0 0)
(0 0 0)
(0 0 0)
(0 0 0)
(0 0 0)
(0 0 0)
(0 0 0)
(0 0 0)
(0 0 0)
(0 0 0)
(0 0 0)
(0 0 0)
(0 0 0)
(0 0 0)
(0 0 0)
(0 0 0)
(0 0 0)
(0 0 0)
(0 0 0)
(0 0 0)
(0 0 0)
(0 0 0)
(0 0 0)
(0 0 0)
(0 0 0)
(0 0 0)
(0 0 0)
(0 0 0)
(0 0 0)
(0 0 0)
(0 0 0)
(0 0 0)
(0 0 0)
(0 0 0)
(0 0 0)
(0 0 0)
(0 0 0)
(0 0 0)
(0 0 0)
(0 0 0)
(0 0 0)
(0 0 0)
(0 0 0)
(0 0 0)
(0 0 0)
(0 0 0)
(0 0 0)
(0 0 0)
(0 0 0)
(0 0 0)
(0 0 0)
(0 0 0)
(0 0 0)
(0 0 0)
(0 0 0)
(0 0 0)
(0 0 0)
(0 0 0)
(0 0 0)
(0 0 0)
(0 0 0)
(0 0 0)
(0 0 0)
(0 0 0)
(0 0 0)
(0 0 0)
(0 0 0)
(0 0 0)
(0 0 0)
(0 0 0)
(0 0 0)
(0 0 0)
(0 0 0)
(0 0 0)
(0 0 0)
(0 0 0)
(0 0 0)
(0 0 0)
(0 0 0)
(0 0 0)
(0 0 0)
(0 0 0)
(0 0 0)
(0 0 0)
(0 0 0)
(0 0 0)
(0 0 0)
(0 0 0)
(0 0 0)
(0 0 0)
(0 0 0)
(0 0 0)
(0 0 0)
(0 0 0)
(0 0 0)
(0 0 0)
(0 0 0)
(0 0 0)
(0 0 0)
(0 0 0)
(0 0 0)
(0 0 0)
(0 0 0)
(0 0 0)
(0 0 0)
(0 0 0)
(0 0 0)
(0 0 0)
(0 0 0)
(0 0 0)
(0 0 0)
(0 0 0)
(0 0 0)
(0 0 0)
(0 0 0)
(0 0 0)
(0 0 0)
(0 0 0)
(0 0 0)
(0 0 0)
(0 0 0)
(0 0 0)
(0 0 0)
(0 0 0)
(0 0 0)
(0 0 0)
(0 0 0)
(0 0 0)
(0 0 0)
(0 0 0)
(0 0 0)
(0 0 0)
(0 0 0)
(0 0 0)
(0 0 0)
(0 0 0)
(0 0 0)
(0 0 0)
(0 0 0)
(0 0 0)
(0 0 0)
(0 0 0)
(0 0 0)
(0 0 0)
(0 0 0)
(0 0 0)
(0 0 0)
(0 0 0)
(0 0 0)
(0 0 0)
(0 0 0)
(0 0 0)
(0 0 0)
(0 0 0)
(0 0 0)
(0 0 0)
(0 0 0)
(0 0 0)
(0 0 0)
(0 0 0)
(0 0 0)
(0 0 0)
(0 0 0)
(0 0 0)
(0 0 0)
(0 0 0)
(0 0 0)
(0 0 0)
(0 0 0)
(0 0 0)
(0 0 0)
(0 0 0)
(0 0 0)
(0 0 0)
(0 0 0)
(0 0 0)
(0 0 0)
(0 0 0)
(0 0 0)
(0 0 0)
(0 0 0)
(0 0 0)
(0 0 0)
(0 0 0)
(0 0 0)
(0 0 0)
(0 0 0)
(0 0 0)
(0 0 0)
(0 0 0)
(0 0 0)
(0 0 0)
(0 0 0)
(0 0 0)
(0 0 0)
(0 0 0)
(0 0 0)
(0 0 0)
(0 0 0)
(0 0 0)
(0 0 0)
(0 0 0)
(0 0 0)
(0 0 0)
(0 0 0)
(0 0 0)
(0 0 0)
(0 0 0)
(0 0 0)
(0 0 0)
(0 0 0)
(0 0 0)
(0 0 0)
(0 0 0)
(0 0 0)
(0 0 0)
(0 0 0)
(0 0 0)
(0 0 0)
(0 0 0)
(0 0 0)
(0 0 0)
(0 0 0)
(0 0 0)
(0 0 0)
(0 0 0)
(0 0 0)
(0 0 0)
(0 0 0)
(0 0 0)
(0 0 0)
(0 0 0)
(0 0 0)
(0 0 0)
(0 0 0)
(0 0 0)
(0 0 0)
(0 0 0)
(0 0 0)
(0 0 0)
(0 0 0)
(0 0 0)
(0 0 0)
(0 0 0)
(0 0 0)
(0 0 0)
(0 0 0)
(0 0 0)
(0 0 0)
(0 0 0)
(0 0 0)
(0 0 0)
(0 0 0)
(0 0 0)
(0 0 0)
(0 0 0)
(0 0 0)
(0 0 0)
(0 0 0)
(0 0 0)
(0 0 0)
(0 0 0)
(0 0 0)
(0 0 0)
(0 0 0)
(0 0 0)
(0 0 0)
(0 0 0)
(0 0 0)
(0 0 0)
(0 0 0)
(0 0 0)
(0 0 0)
(0 0 0)
(0 0 0)
(0 0 0)
(0 0 0)
(0 0 0)
(0 0 0)
(0 0 0)
(0 0 0)
(0 0 0)
(0 0 0)
(0 0 0)
(0 0 0)
(0 0 0)
(0 0 0)
(0 0 0)
(0 0 0)
(0 0 0)
(0 0 0)
(0 0 0)
(0 0 0)
(0 0 0)
(0 0 0)
(0 0 0)
(0 0 0)
(0 0 0)
(0 0 0)
(0 0 0)
(0 0 0)
(0 0 0)
(0 0 0)
(0 0 0)
(0 0 0)
(0 0 0)
(0 0 0)
(0 0 0)
(0 0 0)
(0 0 0)
(0 0 0)
(0 0 0)
(0 0 0)
(0 0 0)
(0 0 0)
(0 0 0)
(0 0 0)
(0 0 0)
(0 0 0)
(0 0 0)
(0 0 0)
(0 0 0)
(0 0 0)
(0 0 0)
(0 0 0)
(0 0 0)
(0 0 0)
(0 0 0)
(0 0 0)
(0 0 0)
(0 0 0)
(0 0 0)
(0 0 0)
(0 0 0)
(0 0 0)
(0 0 0)
(0 0 0)
(0 0 0)
(0 0 0)
(0 0 0)
(0 0 0)
(0 0 0)
(0 0 0)
(0 0 0)
(0 0 0)
(0 0 0)
(0 0 0)
(0 0 0)
(0 0 0)
(0 0 0)
(0 0 0)
(0 0 0)
(0 0 0)
(0 0 0)
(0 0 0)
(0 0 0)
(0 0 0)
(0 0 0)
(0 0 0)
(0 0 0)
(0 0 0)
(0 0 0)
(0 0 0)
(0 0 0)
(0 0 0)
(0 0 0)
(0 0 0)
(0 0 0)
(0 0 0)
(0 0 0)
(0 0 0)
(0 0 0)
(0 0 0)
(0.0737756 0.0286117 -0.0458661)
(-0.00351992 0.0271407 -0.0333243)
(0.151925 0.0996573 -0.0391218)
(0.116843 0.148638 0.00358556)
(-0.0215039 0.0175843 -0.00915862)
(-0.00190212 0.141264 0.0355822)
(0.0161996 0.150757 0.0303042)
(0.019413 0.0992455 -0.0479582)
(0.0276204 0.0943066 -0.0476359)
(0.0553135 0.0730661 -0.0308285)
(0.138108 0.15604 -0.0318814)
(0.125767 0.183904 -0.0433055)
(0.235045 0.317563 0.0240963)
(0.213372 0.243088 -0.019838)
(0.253789 0.305558 0.0211538)
(0.279756 0.396858 0.0334593)
(0.312825 0.441726 0.0446017)
(0.0472029 0.273778 0.0958202)
(-0.0686416 0.243039 0.135974)
(0.000985797 0.271042 0.0811684)
(-0.222049 0.199904 0.0840598)
(-0.0474081 0.164157 0.0399047)
(-0.00343119 0.0637953 -0.011888)
(-0.176422 0.155763 0.0576542)
(-0.0699098 0.0741615 0.0281948)
(-0.0210016 0.0195827 -0.0138825)
(0.0757035 0.174267 0.00557917)
(0.0157262 0.106198 -0.0439298)
(0.0685623 0.190755 0.0373671)
(0.190808 0.309674 0.0138156)
(0.301593 0.426908 0.0772418)
(0.197253 0.242682 0.0668447)
(0.27848 0.338863 0.0724505)
(0.336181 0.539145 0.109449)
(0.142927 0.335874 0.0567295)
(0.209268 0.275322 0.0429311)
(0.0415274 0.195346 0.0408596)
(-0.0490426 0.202411 0.0494877)
(-0.252727 0.0598153 0.0345896)
(-0.185175 0.133843 0.00366637)
(-0.281354 0.0142636 0.00435324)
(-0.281363 0.0755125 0.0623402)
(-0.184516 0.0453666 0.0590707)
(-0.287095 -0.0182515 0.0152816)
(-0.19145 -0.0201578 0.00391324)
(-0.0664616 0.0140358 0.00775986)
(-0.0103095 0.0066494 0.00767498)
(0.0276933 0.0290154 0.0296753)
(0.0373625 0.14551 -0.0250621)
(0.0872452 0.129259 0.0145829)
(0.0481362 0.0252601 -0.00274568)
(0.145897 -0.00160985 0.01741)
(0.187212 0.239088 0.0230002)
(0.0860133 -0.159748 -0.00898846)
(0.147508 0.087381 0.0181882)
(0.221389 0.197092 0.0162556)
(0.147736 0.137617 0.0147935)
(0.188251 -0.00144958 0.0338442)
(0.19239 0.0455517 0.0136852)
(-0.194971 0.0260983 0.0081744)
(-0.288887 0.0208476 -0.00694632)
(-0.146613 0.025258 0.00683383)
(-0.240513 0.062145 -0.0117995)
(-0.254754 0.00395916 -0.0210421)
(-0.13022 0.0183748 -0.0551655)
(-0.227852 0.0960401 -0.0423293)
(-0.112066 0.134016 -0.071471)
(0.0321549 0.0573316 -0.0109069)
(0.0197798 0.029614 0.010917)
(-0.0133808 0.110699 0.0102291)
(0.0173517 -0.00477206 -0.0137361)
(0.0334912 -0.104867 -0.00969369)
(0.148522 -0.193188 0.0404611)
(0.0221054 -0.041831 -0.0248087)
(0.0975154 -0.114963 -0.0153654)
(0.204378 -0.192612 0.0131739)
(0.179381 -0.110464 0.00714424)
(0.188364 -0.153251 -0.0248557)
(0.223023 -0.0900057 -0.00171744)
(-0.0820504 0.0171399 -0.0142454)
(-0.147813 0.0823318 0.00170325)
(0.0865406 -0.0264524 0.000586521)
(-0.046897 0.0403794 -0.0127983)
(-0.187469 0.150992 -0.00325739)
(-0.14128 0.163791 -0.000898057)
(-0.0842497 0.095478 0.00227811)
(-0.0761417 0.0910962 0.0102781)
(-0.0720171 0.110027 -0.0163668)
(0.0817177 -0.0504406 -0.0575312)
(0.157368 -0.0635536 -0.0544723)
(0.213076 -0.0384741 -0.0078837)
(0.0502034 0.00288133 -0.00652079)
(0.133108 0.00423535 0.00321764)
(-0.00471119 0.000219641 -0.00100436)
(0.0310849 0.0147341 0.00672438)
(-0.0148926 0.0174859 -9.49939e-05)
(0.0216225 0.0280142 -0.104925)
(0.0060328 0.0205927 -0.160127)
(0.0279947 0.0166849 -0.087267)
(0.0395278 0.12004 -0.101865)
(0.0538565 0.144709 -0.0522314)
(0.0335926 0.0179896 -0.155151)
(0.0250328 0.0699807 -0.161722)
(0.0524726 0.106189 -0.141673)
(0.0831973 0.169716 -0.0106478)
(0.109991 0.144877 -0.0440569)
(0.0783121 0.037242 -0.179105)
(0.119102 0.146015 -0.142312)
(0.143669 0.115589 -0.146918)
(0.101245 0.104851 -0.150517)
(0.103852 0.0816586 -0.281966)
(0.0167221 0.0449242 -0.121246)
(0.0120134 0.0289972 -0.19208)
(0.0886622 0.10495 -0.0942626)
(0.0862272 0.108828 -0.111967)
(0.161397 0.219917 -0.0540492)
(0.0194674 0.022222 -0.159962)
(0.0566516 0.0777313 -0.154886)
(0.0653255 0.0708155 -0.178488)
(0.112018 0.140327 -0.109582)
(0.0328288 0.0972307 -0.0599193)
(-0.0519911 0.141214 0.0592545)
(-0.00658944 0.089914 0.0217496)
(0.0990369 0.09445 -0.264906)
(0.0862152 0.0759001 -0.347869)
(0.0374233 0.040532 -0.0800423)
(0.084677 0.0734357 -0.250434)
(0.0162762 0.0463958 -0.0561095)
(0.0491417 0.0719901 -0.343247)
(0.0671102 0.0940858 -0.114808)
(0.0143942 0.093477 -0.157503)
(0.087854 0.135279 -0.0691495)
(0.0387106 0.061693 -0.189804)
(0.0064117 0.0836942 -0.211379)
(0.0640833 0.0935797 -0.155461)
(-0.0674223 0.0189363 -0.0725997)
(-0.0120639 0.0299059 -0.0759765)
(0.0183079 0.0379746 -0.204539)
(0.00222129 0.0657834 -0.170383)
(-0.00519825 0.0252556 -0.13422)
(0.133525 0.141624 -0.0757492)
(0.0886601 0.135565 -0.0283395)
(0.0235301 0.112296 -0.256943)
(0.0857573 0.106713 -0.139352)
(0.0439054 0.099026 -0.102516)
(-0.00997616 0.0735929 -0.00505332)
(-0.0472293 0.0523844 -0.0567628)
(-0.0623297 0.0275013 -0.0887656)
(-0.0199026 0.0190098 -0.0385349)
(-0.00697859 0.00712555 -0.131326)
(0.0243449 0.0793525 -0.0117481)
(0.0310582 0.11263 -0.0243084)
(0.0865867 -0.112638 0.0155985)
(0.04 0.0338889 -0.0970506)
(0.0577592 -0.0593856 -0.0782302)
(-0.0483352 -0.00415718 -0.0999576)
(-0.0184161 -0.111874 -0.0137935)
(0.0311231 0.0370608 -0.203004)
(0.0120622 -0.0218512 -0.216466)
(-0.121192 0.10204 -0.060929)
(-0.127015 0.160851 -0.0704358)
(-0.127816 0.16435 -0.0273325)
(-0.103312 0.0870094 -0.0801575)
(-0.0415433 0.0279375 -0.128754)
(-0.0889646 0.0934425 -0.0846462)
(-0.0908761 0.0655963 -0.119441)
(0.0101924 -0.0150755 -0.204454)
(0.0936775 0.00508233 -0.151744)
(0.08872 0.0316551 -0.245986)
(0.0460489 -0.0205371 -0.149543)
(0.00163666 -0.00379021 -0.208183)
(-0.0415627 -0.0427946 -0.252784)
(-0.00701672 -0.036538 -0.148022)
(0 0 0)
(0.00691304 0.0280732 -0.147411)
(0 0 0)
(0 0 0)
(0 0 0)
(0 0 0)
(0 0 0)
(0.00643348 0.016602 -0.212936)
(0.0068994 0.00894835 -0.253468)
(0.0366583 0.0121013 -0.24402)
(0.0214519 0.0443254 -0.22362)
(0.0453186 0.0753132 -0.235019)
(0.0421651 0.00863669 -0.314895)
(0.0171927 0.0257385 -0.272237)
(0.035153 0.0407161 -0.298808)
(0.0935018 0.0943903 -0.258573)
(0.0759313 0.0504849 -0.324268)
(0.0590544 0.0195042 -0.361791)
(0.0564409 0.0471121 -0.359432)
(0.0258417 0.00286309 -0.420255)
(0.053013 0.0227775 -0.462518)
(0.0476911 0.0221467 -0.441029)
(0.00452931 0.0323909 -0.246914)
(-0.00688748 0.042182 -0.298891)
(0.032509 0.0549215 -0.202101)
(0.0440358 0.0556663 -0.23047)
(0.0626023 0.0925429 -0.137277)
(-0.00426015 0.021251 -0.257185)
(0.00473484 0.0346252 -0.235783)
(0.0154294 0.0482069 -0.266702)
(-0.00825571 0.0540092 -0.156827)
(0.0883135 0.0758342 -0.356468)
(0.0528804 0.0230231 -0.107184)
(0.101394 0.0726035 -0.248396)
(0.0621004 0.035238 -0.261739)
(0.0820437 0.0763614 -0.308633)
(0.0462011 0.00336156 -0.0736563)
(0.091956 0.0821162 -0.240027)
(0.0360836 0.0640372 -0.333227)
(0.0435816 0.0727652 -0.294928)
(0.0255539 0.0597338 -0.255263)
(0.00659303 0.0740863 -0.268698)
(0.0404986 0.0710642 -0.215366)
(0.0168413 0.0632167 -0.311333)
(-0.0010538 0.0758463 -0.339827)
(0.0100628 0.0381367 -0.231757)
(0.0512023 0.0928373 -0.305541)
(0.0326166 0.0896375 -0.299753)
(0.0456233 0.0835945 -0.231427)
(0.0248379 0.0807872 -0.347048)
(0.0219764 0.126012 -0.346987)
(0.00962481 0.0463315 -0.162707)
(-0.0215376 0.0311709 -0.140772)
(0.0123883 0.091155 -0.403045)
(-0.0384141 0.00382635 -0.18621)
(-0.0113677 0.0490203 -0.234411)
(-0.0228876 0.0105266 -0.0932888)
(0.057756 -0.0629087 -0.182007)
(-0.0126712 0.0184001 -0.393299)
(-0.00283441 0.0645897 -0.451533)
(0.0764736 -0.0846915 -0.141825)
(0.0565488 0.0914456 -0.097183)
(0.0602004 0.12371 -0.290249)
(-0.151629 -0.0999863 -0.0405977)
(0.0501367 0.059089 -0.24147)
(-0.0457194 -0.0289985 -0.195835)
(-0.0816288 0.0156493 -0.141076)
(-0.199099 -0.0802235 0.0332407)
(0.0232795 0.0578175 -0.22297)
(-0.0953938 -0.0311077 -0.125546)
(0.0128608 -0.0184274 -0.0990962)
(-0.0763435 0.0761418 0.0142244)
(-0.0750536 0.0495155 -0.022399)
(-0.0293448 0.0450384 0.0665128)
(0.067986 -0.0276384 -0.0607688)
(-0.0117272 0.0230162 0.0449268)
(-0.0567617 0.0606649 0.0282899)
(0.0647493 -0.0761854 -0.127392)
(0.0381783 0.0174725 -0.257623)
(0.0157682 0.00962933 -0.201825)
(-0.0467927 -0.0290847 -0.128952)
(0 0 0)
(-0.126943 -0.0502232 -0.160062)
(-0.0807401 -0.0298008 -0.104416)
(-0.0421867 -0.0270094 -0.116774)
(0.0272492 0.0903596 0.0399812)
(0 0 0)
(0 0 0)
(0 0 0)
(0 0 0)
(-0.0825443 0.0368687 0.0192072)
(0.0134826 0.00168753 -0.280132)
(0.0160565 -0.0112091 -0.306307)
(0.0413765 0.00307376 -0.357687)
(0.020465 0.00982366 -0.309601)
(0.0135327 0.00706089 -0.315489)
(0.0482712 -0.00438441 -0.387663)
(0.02667 -0.0069921 -0.331051)
(0.00332598 -0.0142742 -0.30014)
(0.00395946 -0.0120659 -0.321368)
(0.016369 0.00262468 -0.390885)
(0.0352002 0.0028557 -0.42398)
(-0.0188227 -0.0403593 -0.267898)
(0.0186233 -2.67078e-05 -0.346107)
(0.0417614 0.0214803 -0.412)
(0.040403 0.0234802 -0.382842)
(-0.0193269 0.0466068 -0.337581)
(-0.0215109 0.0393574 -0.367785)
(-0.0164924 0.0145997 -0.258204)
(-0.0171552 0.0417993 -0.294936)
(-0.0423095 0.00698818 -0.144323)
(-0.0187935 0.00960892 -0.315358)