/*--------------------------------*- C++ -*----------------------------------*\
| =========                 |                                                 |
| \\      /  F ield         | OpenFOAM: The Open Source CFD Toolbox           |
|  \\    /   O peration     | Version:  5.x                                   |
|   \\  /    A nd           | Web:      www.OpenFOAM.org                      |
|    \\/     M anipulation  |                                                 |
\*---------------------------------------------------------------------------*/
FoamFile
{
    version     2.0;
    format      ascii;
    class       volScalarField;
    location    "0.5";
    object      Ksl;
}
// * * * * * * * * * * * * * * * * * * * * * * * * * * * * * * * * * * * * * //

dimensions      [1 -3 -1 0 0 0 0];

internalField   nonuniform List<scalar> 
10571
(
3260.45
5256.36
953.182
437.071
3817.77
787.484
313.298
3426.88
1632.15
11546.7
3269.16
489.761
810.415
1703.81
1771.97
13736.4
3013.06
1373.09
9908.3
8041.34
16016.3
4548.35
5167.9
13150
260.398
77.3467
135.39
3049.31
1626.84
46.8312
394.153
191.392
345.436
7489.56
105.097
174.007
1232.7
866.411
621.361
2029.55
244.246
853.731
1764.49
377.492
3526.95
157.227
806.692
479.163
0
0
31.3902
5.25258
23.8643
0
10.8227
20.0223
28.537
10.4846
0
24.2083
19.5025
13.3603
479.698
2165.74
34.1457
20.8812
11.5934
318.909
2144.47
4.85412
5.79585
48.1921
19.8147
6.92712
22.4228
5.88714
33.8022
2.01135
44.2658
19.857
14.2968
47.6556
10.4876
0
10.4201
9.27078
323.193
2175.38
19.7294
15.2525
10.1261
146.936
1576.23
7.4649
0.47225
189.867
-6.625e-16
1.85873
11.0616
8.10662
15.1549
1.07879
27.4796
18.9363
31.3402
20.5225
0
5.48518
10.9724
11.6519
238.615
1557.88
34.5315
22.9404
16.4281
245.113
1290.06
9.72058
41.281
366.241
-1.16877e-14
-4.86042e-15
24.0318
12.6556
26.4482
22.3272
23.451
10.9679
21.0541
33.7268
1142.36
14.0531
14.1485
4.39977
9.44173
141.618
1708.75
5000.14
13.3601
25.0156
27.5115
786.941
2563.95
30.8709
63.1317
335.742
41.081
20.8261
40.8681
12.832
32.7842
20.1874
80.849
17.6251
33.65
14.0776
0
0
1.418
7.69198
9.14315
143.488
1250.62
2.277
27.6154
13.3201
32.0301
348.015
1313.92
0
7.38992
111.464
554.828
0
57.0397
25.1362
6.58808
15.0468
13.3553
17.102
19.9946
58.6599
71.0019
2.11317
0
29.0753
9.93477
9.05002
151.39
1300.22
0
15.8678
20.045
23.7193
464.821
1399.79
0
32.9066
48.1487
388.944
0
54.1862
17.6675
20.2605
9.78025
26.6513
7.82007
8.0152
36.4431
42.0696
0
21.1096
7.03561
10.0489
15.0108
160.87
1262.8
3.28854
42.7078
20.5462
25.7003
530.113
1193.6
22.2278
12.364
293.973
30.2707
53.5033
13.2103
17.435
8.27091
20.5442
10.5121
4.1131
18.3407
12.3755
21.5866
7.15314
30.4214
8.71226
214.552
1233.89
41.7775
22.3981
34.481
625.588
1385.55
1.87782
16.7771
201.974
21.6166
34.4106
26.5719
14.0171
12.3844
-5.1885e-16
7.15579
2.95418
14.6354
16.6532
0
0
19.6516
18.4254
274.007
1009.4
30.4127
19.9641
310.727
1113.65
1236.03
14.0756
6.67079
118.634
31.5059
69.0334
47.8816
23.4049
38.1169
14.6298
5.45372
4.02866
13.1961
18.2638
0
11.3634
24.6741
84.7884
307.723
714.564
39.4231
28.2483
170.098
1215.64
1572.88
2.82821
21.6359
46.4482
18.4824
0.649501
37.2469
12.1602
40.264
1.33986
4.35502
14.1406
14.1449
23.1923
23.0218
0
18.1054
90.3773
335.986
468.671
31.5107
41.4025
102.824
2349.32
1198.91
25.1646
7.05547
47.4888
0
10.2827
28.6814
6.76507
27.1591
-1.05894e-15
9.51264
54.1728
14.4606
6.47649
22.7386
0
32.0034
77.9492
302.497
345.235
35.9209
34.066
63.3613
1409.8
1358.37
16.6373
24.933
0.0152657
-7.96482e-15
9.24794
12.901
7.41768
20.9186
7.26836
13.8515
73.8785
10.4832
19.5553
44.5159
0
37.5491
18.5033
229.819
223.505
38.1758
45.6402
52.6609
1104.65
846.12
25.1937
84.8795
22.6085
0
18.2792
13.3754
14.3205
33.6475
7.00489
18.1484
28.4347
19.683
13.3259
46.3714
0.986162
42.4372
3.89796
202.077
139.719
51.2925
34.1483
45.4205
1252.84
1176.76
36.7535
17.4268
6.81886
21.7492
26.6118
14.9094
29.511
44.4733
0
22.2208
16.3175
17.6987
26.4389
23.729
0
83.2167
6.809
208.907
162.04
50.3406
31.4217
33.0091
1867.73
881.412
107.753
13.135
22.4436
0.860591
10.9503
4.47688
1.22793
38.3618
0
16.2996
18.1098
20.4997
20.4949
0
0
17.9653
4.17628
209.461
63.7823
38.329
17.006
23.3373
1579.09
731.461
48.1245
19.0734
0
23.9479
11.1229
1.09571
25.5463
5.39896
11.4755
9.79666
22.6538
25.0151
27.199
0
0.743594
8.76891
3.08942
245.214
116.041
49.8171
4.99714
17.6425
2003.4
512.267
25.4221
15.2041
11.3949
22.1506
18.5374
21.2873
12.3504
25.9346
12.076
12.1486
35.79
28.9026
44.6953
8.36424
5.95294
8.48622
3.79855
327.378
46.2584
39.8276
8.75118
15.3172
923.498
304.604
16.6516
6.61649
9.18291
90.0389
0
28.8725
36.6572
23.3837
29.263
10.6769
4.59257
12.334
14.825
0
1.55686
2.92213
6.83931
349.314
50.3109
24.8722
18.5446
19.2937
629.974
384.628
130.038
0
17.97
31.0608
11.4947
6.97152
71.3049
34.4247
0
7.88275
2.02211
7.45195
7.40096
23.3994
25.1181
0.872627
5.04297
483.175
36.1016
12.8529
9.9366
10.411
373.734
280.593
19.4009
10.5938
0
22.8974
3.84936
7.2577
42.3112
21.1479
7.54879
3.83465
3.64322
12.5721
-6.56664e-15
18.5482
0.276706
1.67712
3.16192
515.789
5.69231
0
6.18431
9.78836
188.608
328.31
14.2047
5.48291
1.48129
0
9.50632
5.67472
9.4325
17.6181
7.46986
6.48019
2.41428
10.0022
12.0075
0
-2.03331e-16
0.763272
6.70674
501.65
0.0156355
0
1.73565
6.16472
60.8144
274.068
6.78438
10.4919
0
0
11.0012
22.1122
0
12.3094
0
3.03752
8.83502
9.87635
0
0
15.595
2.36029
12.3889
486.607
-7.48338e-15
10.068
0.794968
6.57484
18.9218
368.714
22.519
10.5854
9.32947
21.9699
0
10.1761
-6.27212e-15
10.0374
10.3413
1.89177
5.88968
9.93475
8.81712
36.3642
8.63466
1.51504
16.4707
477.474
80.4834
10.9062
1.76976
4.43852
9.20208
397.126
10.7037
3.88845
-4.65984e-15
21.8325
32.1228
12.6824
6.79602
5.20988
20.6862
1.90762
9.37023
9.72676
0
22.1837
39.7855
1.72281
11.5668
278.063
254.706
17.5763
1.35814
2.92244
19.2194
267.303
20.2951
0
0
0.794433
27.5598
7.6205
0
5.25349
40.7203
4.60183
5.80098
36.6107
0
62.6372
37.5425
2.11452
17.5401
155.085
792.115
13.1756
1.78136
3.31728
-6.96077e-15
211.929
13.129
3.57049
0
76.7548
18.399
18.5242
13.5656
0.315976
42.6076
7.06989
6.68545
56.1943
0
49.6465
49.0086
2.37078
25.4647
47.9553
1990.63
0
3.4432
2.84017
0
31.4408
4.55722
0
34.4693
21.7511
33.5027
13.8841
-2.14727e-15
0
54.3232
2.52994
10.7005
35.4524
7.08061
15.0472
19.3904
1.57973
16.9243
12.0497
925.838
5.16677
3.89752
3.17331
-3.93821e-15
10.1835
15.2993
0
0
0
21.486
18.4909
6.68343
3.45751
8.36283
2.20411
51.0993
65.1274
104.441
15.796
7.56006
1.05003
14.4179
8.04779
289.136
0
3.0986
1.16557
0
4.01882
0
0
-1.62659e-14
0
41.0829
6.33309
-3.98546e-15
0
0
2.98947
27.025
58.3012
477.344
51.4806
7.31007
0.386166
15.983
4.84691
46.8142
0
2.49259
4.1004
0.560282
0
0
11.2289
30.7331
0
10.5392
9.90413
0
5.27844
6.7071
9.46905
0.699982
39.7867
598.57
0
7.24873
2.74719
9.7807
4.13477
10.35
0
0
2.04751
18.0907
0
6.55459
3.13812
3.34416
0
32.1713
6.27265
6.77254
14.7659
6.89022
36.9507
0.743338
18.8768
624.188
20.6796
0
1.32945
6.17332
2.58489
4.89725
4.70787
0.784552
1.71781
4.41334
0
0
0
0
0
0
0
0
23.3298
18.6347
5.54478
0
11.7864
268.906
24.1303
26.304
0
1.55208
1.61237
0
0
0.795801
0.644609
3.8415
0
0
8.54925
0
20.8915
11.2575
6.11115
14.091
45.6186
6.56539
13.7731
0.838096
14.6512
78.6515
0
0.26499
4.00387
1.15366
2.81863
2.66008
5.71786
0
1.37548
29.3654
13.7471
0
0
9.89127
7.30494
10.6239
9.28752
13.6262
142.864
0
3.00945
3.58559
8.73851
29.2854
0
0
2.40982
0.749468
3.90816
3.28865
0
1.58069
0.695108
3.90657
-1.01941e-14
0
7.86137
0
0
19.9549
12.6477
11.3329
124.57
0
23.9793
2.77924
5.50423
12.177
0
14.2107
4.84708
0
1.13443
18.8196
0
1.57583
5.46387
0
26.2179
6.69358
0
0
0
12.2716
7.47141
21.5146
180.172
0
27.6213
2.96323
3.60603
33.1639
19.47
7.03398
35.4936
1.37889
3.26436
9.11202
0
0
2.28914
0
14.4575
0
6.89889
6.14595
23.7153
0
7.47791
10.5898
107.902
0
4.71755
4.1259
7.3502
35.3384
19.3677
0
7.19207
1.13014
6.19451
23.6886
0
0.354832
1.60535
14.9839
5.01156
0
5.43177
18.877
39.0167
30.3899
4.02035
15.2541
65.9629
12.4483
4.13114
2.69566
6.33322
14.8346
0
0
11.7349
3.42918
4.84544
38.1396
0
3.06579
0.420121
-4.47242e-15
28.27
0
5.31067
-9.3834e-15
70.5898
10.5578
7.57406
0
60.2046
0
6.85262
4.968
12.0061
28.5035
0
0
17.7794
5.10832
18.7037
25.0654
0
0.0265632
4.02113
-6.77215e-16
41.1667
6.41033
4.99486
0
-1.51659e-15
42.6357
4.18726
25.3339
40.7321
0.853779
5.81468
4.57105
21.975
57.6929
0
0
2.62394
7.23631
20.7664
66.1046
0
2.58641
3.91584
15.471
186.179
-3.85494e-16
-8.8047e-15
-1.41077e-15
110.392
36.9437
12.9023
7.65579
37.0931
2.72125
4.21374
8.58569
37.4957
91.4072
0
0
4.97716
5.51422
22.6706
97.1802
0.195968
2.54648
9.64436
24.691
198.092
-6.4678e-15
4.4833
32.2336
62.582
5.70923
29.938
19.1992
48.7214
0.191531
10.2182
16.2561
79.8314
268.462
0
0
4.16324
10.1062
38.161
149.757
0
1.78095
8.42076
27.2207
270.304
2.37087
12.3721
23.937
-1.91798e-14
0
30.1339
12.3878
24.7954
6.80645
10.5127
31.1651
65.8834
428.718
0
0
1.88128
13.1535
41.8269
229.579
5.79017
5.12891
14.9337
33.4084
360.648
-5.68797e-15
6.82741
172.002
69.4802
10.726
25.8167
8.72736
38.9985
2.10835
14.9627
19.2523
69.8669
700.33
0
1.61076
5.25842
11.3796
39.428
391.534
5.55116
2.47075
23.7661
16.957
269.034
11.3194
39.1493
673.688
22.4111
21.9357
87.7619
68.528
41.9311
4.46077
15.3665
20.8404
76.2546
844.228
0
7.29404
5.91958
13.8716
40.424
117.572
0
4.04429
39.7007
11.6077
944.709
0
542.371
1558.61
51.1601
32.2466
89.1874
49.121
35.4707
14.8121
11.9854
23.2273
110.192
754.347
25.8543
8.23987
7.30224
15.0593
32.3579
75.6582
0
22.2219
46.9502
34.1359
112.803
71.5015
2244.69
1279.29
139.279
51.3256
879.686
1.79659
73.9663
21.4219
8.84206
16.5922
60.828
801.505
35.7124
-6.56161e-15
8.63782
8.75893
47.6742
184.937
11.0394
217.917
24.3517
35.0111
52.8388
1738.92
360.017
25.9046
152.955
1188.49
235.863
853.661
812.363
8.03652
23.4426
39.1337
31.4123
127.303
0
32.3571
11.2944
6.56153
65.5524
528.404
1635.07
166.823
19.8877
25.1385
60.365
136.591
34.7222
14.4616
310.364
123.282
34.404
234.068
93.8988
433.722
46.4296
66.1833
98.3805
84.5164
107.924
1210.53
22.1955
9.56447
46.096
224.48
83.7328
114.046
36.3586
19.2545
47.6179
8.50446
70.1371
8.30793
0
164.939
10.8048
4.67712
0
618.413
134.568
8.86734
42.269
54.3539
-7.34675e-15
6.27606
66.7133
11.2729
41.6239
89.3024
4.34798
100.797
169.09
22.1641
86.5656
0
61.4894
35.6529
0
3.46939
0
0
3.7497
1.81946
186.297
72.1927
10.6423
29.1708
311.716
11.4207
281.47
44.0417
30.3023
52.8339
0
25.3064
103.624
145.499
126
4.69169
19.2388
0
0
0
0
0
0
5.52585
37.4509
124.932
38.0093
10.4757
0
0
54.7347
152.779
27.1961
37.9627
0
2.18709
18.4765
33.83
68.1387
0
0.734447
0
0
0
0
5.17793
0
0
-8.29411e-16
93.3816
105.183
81.3147
0
0
2.64265
93.4896
30.076
37.6966
0
0
3.39131
34.2884
73.6683
0
0
0
0
0
0
0
0
0
0
2.28914
20.6081
0
0
0
0
26.038
81.8737
27.0374
0
0
0.735667
4.18618
67.2121
0
2.92104
0
0
0
0
0
0
0
0
0
3.81006
1.62355
0
0
0
0
17.9876
88.7731
0
0
0.699685
5.77228
70.4699
0
0
0
0
0
0
0
0
0
0
0
-2.50679e-16
0
0
0
0
0.737778
5.74372
32.081
0
0
0
3.92587
43.7612
0
0
0
0
0
0
0
0
0
0
0
0
0
0
0
0
0
1.51064
0
0
0
0.679708
0
11.4379
0
0
0
0
0
0
0
0
0
0
0
1.12701
0
0
0
0
0
1.15233
6.02698
0
0
0
0
17.461
0
0
0
0
0
0
0
0
0
0
0
0.851533
0
0
0
0
0
0.574813
0
0
0
0
0
13.2278
0
0
0
0
0
0
0
0
0
0
0
0
0
0
0
0
0
0
5.06176
0
0
0
0
0
0
0
0
0
0
0
0
0
0
0
0
0
0
0
0
0
0
0
0
0
0
42.3507
0
0.473636
0
0
0
0
0
0
0
0
0
0
0
0
0
0
0
0
0
0
0
0
0
0
0
0
0
0
0
0
0
0
0
0
0
0
0
0
0
0
0
0
0
0
0
0
0
0
0
0
0
0
0
0
0
0
0
0
0
0
0
0
0
0
0
0
0
0
0
0
0
0
0
0
0
0
0
0
0
0
0
0
0
0
0
0
0
0
0
0
0
0
0
0
0
0
0
0
0
0
0
0
0
0
0
0
0
0
0
0
0
0
0
0
0
0
0
0
0
0
0
0
0
0
0
0
0
0
0
0
0
0
0
0
0
0
0
0
0
0
0
0
0
0
0
0
0
0
0
0
0
0
0
0
0
0
0
0
0
0
0
0
0
0
0
0
0
0
0
0
0
0
0
0
0
0
0
0
0
0
0
0
0
0
0
0
0
0
0
0
0
0
0
0
0
0
0
0
0
0
0
0
0
0
0
0
0
0
0
0
0
0
0
0
0
0
0
0
0
0
0
0
0
0
0
0
0
0
0
0
0
0
0
0
0
0
0
0
0
0
0
0
0
0
0
0
0
0
0
0
0
0
0
0
0
0
0
0
0
0
0
0
0
0
0
0
0
0
0
0
0
0
0
0
0
0
0
0
6840.91
5784.21
9754.56
11404.7
5367.48
11120.4
8446.9
7970.61
9968.5
8141.91
8786.94
10042.4
10484
10370.6
10095
11283.6
10438.2
10998.9
9961.47
9252.06
7744.44
7847.7
6643.09
7673.35
8568.72
8480.03
10818.9
4149.4
10900.9
10985
11356.6
10477.8
7620.21
10732.7
9866.89
10224.7
9090.48
7176.07
7448.79
6904.2
5609.33
6908.35
8399.07
6295
8949.86
10321.3
11755.9
11972.9
4200.78
10732.6
10261.3
10122.6
8506.17
10651.4
11169.2
10957.6
8955.61
11160.4
9225.46
7567.31
6595.5
9638.11
8766.46
8970.27
12236.2
10731
13035.9
12512.7
12203.6
13295.1
7361.45
6370.61
7863.89
7566.71
7290.62
9196.15
9784.46
8427.51
10145.3
8265.58
8860.8
8210.63
8722.11
10851.5
12671
11116.9
12281.7
14052.9
8058.1
5745.32
11061.4
7049.1
8161.97
7569.11
8728.68
10384.3
4957.66
2793.59
2137.16
1387.93
1328.54
9401.21
6741.04
7983.34
1515.16
2167.64
9643.62
8160.86
10086.6
3229.6
13329.2
3040.59
6240.53
3721.11
1898.77
991.946
2485.32
2942.94
4417.24
4882.96
9273.65
5162.3
11524.4
11697.6
11478.3
6301.67
11720.5
11085.4
11870.8
1143.79
3101.8
1496.11
7046.34
7073.71
6970.91
10594
11182.8
10773
6281.86
7857.54
1531.67
1358.25
8142.84
5871.72
8391.29
12051.4
13918.7
6619.23
5679.36
9348.6
1835.47
10890.9
1101.91
5393.24
3550.22
4856.27
4462.13
1277.96
1850.87
14253.3
11440
15188.5
798.509
11621.6
4152.8
6990.04
9428.57
5037.93
1289.35
1936.15
1949.98
5630.15
9324.37
12493.3
10425.1
1570.63
10950.3
11162.6
13625.9
9312.02
69.826
29.9129
472.843
329.939
325.943
15.7577
9.32314
23.4853
438.228
784.279
7.96823
34.3508
10.6455
1263.45
41.3838
85.9442
5.06276
36.8437
39.7725
63.2642
19.0386
34.0758
15.6672
39.7585
1136.73
661.238
2836.09
42.1058
69.7308
11.5929
76.8351
5271.94
162.909
186.278
115.803
159.169
5.36382
0
9.69995
3405.91
3065
531.628
395.822
130.428
195.173
305.165
0
-4.73498e-15
21.1236
795.569
4453
2464.51
197.393
4713.78
484.505
22.1852
223.744
99.3144
127.217
48.8164
34.961
105.867
70.0641
6803.98
521.657
2237.11
332.113
6090.75
518.205
2358.18
2649.65
88.4233
61.6928
528.061
1365.47
43.1805
50.8573
74.6965
1286.22
981.851
35.6076
5.71476
-1.53009e-14
39.617
3.84746
14.9252
15.0157
12.2826
5.36404
18.0367
21.4873
3.53305
10.552
6.24283
0
5.64441
11.6189
10.8587
0
0
0
37.6768
12.7755
38.7574
6.03496
43.5241
15.3773
28.1373
16.0607
10.2819
16.4685
22.7685
26.5842
11.8013
15.6851
16.964
3.64906
9.66895
0
19.1424
13.2977
15.2596
1.13475
49.0576
19.4998
22.6156
23.6661
0
5.10645
22.3209
0
5.21552
13.2463
122.931
4713.06
2174.66
143.307
3575.53
22.4633
16.0175
17.3215
68.3836
53.6162
59.7237
28.4148
78.0091
75.8186
5036.85
669.811
1923.02
217.24
4432.9
689.892
1816.61
1956.98
29.535
75.0004
11.588
0
33.8221
5.98726
0
6.67762
0
-3.63398e-15
8.57656
30.2598
78.5468
12.6745
18.5811
5.00707
11.3009
7.47961
0
10.6598
5.47271
20.7769
12.8266
8.04597
3.35744
12.9353
0
16.0405
11.6049
12.3747
16.3542
22.3621
32.7445
10.6908
20.4794
23.7336
30.1326
10.3978
16.781
8.60704
29.3769
17.4423
-9.31605e-15
29.25
9.56774
3.68278
21.3366
0.99015
25.2695
0.226292
0
0
47.1248
26.2004
29.8398
55.311
67.5827
7.31608
4.57488
11.9385
8.99535
7.98299
174.492
3079.71
1518.67
180.917
2336.91
10.4413
20.8487
19.7022
99.9328
50.2309
25.7583
60.1116
55.4379
25.5807
4192.1
623.899
1707.53
109.467
4326.46
695.709
1724.81
1174.03
-4.06407e-14
16.8163
17.8468
0
10.2872
12.3327
30.6686
48.0183
-2.09802e-14
11.2083
23.8803
21.5613
269.546
35.519
13.8136
0
6.90274
13.7317
0
-6.27026e-15
16.7355
8.02261
5.65639
19.8824
1.80995
10.5492
9.44709
0
23.0143
12.8455
10.7352
15.1999
23.3137
19.2976
37.1742
10.9238
22.3542
21.6151
14.4665
31.9809
22.7411
13.0775
8.90979
13.2729
6.87183
11.4321
13.2618
0
6.85606
7.04624
0
10.594
36.0351
53.3242
38.4087
46.5035
90.8627
5.76922
6.62819
0
5.6424
6.65803
315.486
2758.87
1386.23
324.999
3615.52
10.5504
10.9367
38.9568
114.755
41.8349
40.7975
35.1438
44.1302
45.7033
5464.83
734.68
2597.41
485.956
5537.82
761.43
1882.2
1886.2
3.10577
57.1459
30.4949
10.1324
21.8524
23.909
0
47.9502
29.4894
33.8476
72.552
-2.10738e-14
321.19
19.9518
69.2097
0
21.836
11.4468
0
-1.32895e-14
11.357
11.3529
23.7396
1.75862
16.9848
12.6782
38.8393
-1.59737e-14
23.256
0
26.1127
15.0231
46.2146
25.2644
32.1669
11.4473
42.7679
43.3868
-6.84496e-15
17.2733
18.8894
0.772466
14.403
6.04199
-6.00955e-15
18.9818
0.226499
0
5.65811
0
0
4.36656
141.308
74.3108
515.242
15.5526
-2.11692e-15
70.7859
30.8405
6475.14
4607.84
42973.5
0
19.7169
3.23832
108.798
7.2257
18.9469
3.47067
5.04962
22.9395
895.046
4255.71
117.425
1313.16
407.321
4155.5
148.13
19423.6
1080.67
27534.7
14.0614
155.912
6.42487
71.9026
13.6121
30.6621
24.0128
56.5226
78.3181
72.0168
32.9519
63.3008
82.378
5481.99
995.313
2254.93
680.173
5101.76
1061.57
1834.29
1335.01
32.2433
33.3527
27.518
0
7.54794
21.0069
0
53.0768
0
81.7449
406.063
23.2479
503.327
30.6979
80.8415
2.02699
7.23167
11.3854
-8.67106e-16
6.56486
11.6541
17.6988
21.8077
-1.83369e-14
26.8521
17.6924
13.4782
13.5599
0
0
75.3814
20.2185
50.2483
45.8522
38.956
3.83825
7.97809
11.3889
21.441
8.49953
5.89622
14.5623
15.0242
23.7051
-9.12995e-15
0
15.2474
0
0
0
0
0
0
77.0314
13.1878
15.2802
0.700708
13.3252
3.68276
123.167
78.0331
39.195
0
317.219
179.003
1.64945
0
0
0
0
0
0
0
6.81322
0
11.8352
27.3295
312.246
4520.04
118.458
1038.69
283.27
5505.17
168.507
0
0
0
-5.52465e-17
0
0
0
35.045
23.5983
11.6821
53.9223
38.9701
55.6511
34.0855
65.6299
21.3306
5346.45
878.44
1467.89
366.86
5281.35
672.025
1120.23
0
1443.96
17.2182
0
0
0
50.4388
48.5354
12.4362
30.3143
8.07386
14.3109
37.7742
401.153
9.15563
61.5459
79.678
36.4429
527.315
26.1203
29.396
0
16.3615
33.3251
28.7933
24.1486
37.0527
23.8696
37.3419
14.002
17.9653
14.873
14.0931
0
0
29.8161
26.508
7.50874
14.3243
12.365
20.9465
9.42446
-7.02783e-15
11.1116
8.03248
5.47506
32.0536
11.5321
15.0405
19.017
26.0171
0
17.1728
0
0
0
0
0
10.8667
39.7914
7.63587
14.496
-1.4257e-14
19.7264
16.5652
177.586
107.342
58.405
-3.20577e-15
146.552
52.6372
0
0
1.50044
0
0
0
2.66401
2.36361
18.96
0
24.2597
9.73422
338.059
5080.15
220.355
1609.01
402.187
2321.46
166.832
0
0
0
0
0
0
0
1.98663
24.3107
32.9239
45.0969
42.5567
35.2284
-1.9576e-14
53.4661
20.2634
5317.14
651.239
1262.94
580.98
3238.78
661.729
1634.51
8.04366
1095.43
0.0309353
0
0
0
36.0597
9.4447
25.3939
-6.89867e-16
29.0594
12.4168
48.6069
141.372
30.9168
16.28
134.081
82.3
317.207
30.734
79.2257
22.216
15.3093
33.4053
44.3856
9.60344
22.7436
11.9129
7.72561
42.5331
23.4563
15.2495
41.8018
25.0687
-4.65836e-15
23.3905
65.5524
8.51286
12.2985
19.4786
63.7891
5.91334
8.85321
5.43793
11.0134
12.9651
27.5241
19.2627
14.5699
13.2521
31.8773
66.2951
30.7784
0
27.409
-2.39725e-15
0
6.2117
18.9758
50.8027
52.2436
28.8227
26.0475
90.128
57.8921
0
0
0
0
0
0
0
5.83195
8.46215
0
5.9408
13.3781
278.366
3383.31
163.356
1473.03
216.892
2415.55
78.7995
0
0
0
0
0
0
0
-1.21768e-14
46.0244
25.9169
61.258
22.5751
51.022
56.0758
88.0592
41.9771
5640.01
927.491
1614.98
567.447
4528.48
1680.19
1525.51
1198.38
28.78
84.8521
0
0
15.4872
25.1317
0
49.9888
40.5981
56.8404
66.7215
38.0933
221.547
76.5704
55.8138
63.7881
36.2451
47.5074
-3.89563e-15
-8.8745e-15
13.985
26.2436
16.2127
43.5861
28.7807
23.1158
12.7125
23.8182
33.7708
13.8878
64.8113
6.16958
17.276
14.2089
70.5804
6.12723
14.5467
-3.56025e-16
26.585
2.47244
0.207332
0
9.6234
12.7757
26.1092
11.7973
7.44976
0
12.0684
0
0
11.8448
47.655
72.6155
54.2668
38.3687
56.1437
0
6.56985
0
0
-5.12606e-15
137.787
2238.96
1114.13
148.03
3059.62
13.6795
25.7167
52.1289
61.6088
47.6664
52.7788
29.8585
55.9789
29.3634
5436.15
1208.8
1275.23
763.514
17174.6
848.52
1144.31
1489.28
36.0088
8.52703
6.36937
23.9265
0
24.4371
24.8611
63.5119
68.0734
6.20323
96.1607
-2.69843e-14
138.609
95.0537
93.7155
0
28.0101
13.6609
0
35.9507
25.5376
17.7636
13.1289
0.866995
22.1203
8.01148
37.7646
10.7668
14.7497
14.9523
40.3571
8.24788
8.61393
32.5155
37.8691
12.1857
19.0866
31.6276
34.492
5.23051
20.4999
14.1746
11.9269
23.7877
30.918
15.0679
19.0726
43.033
12.5941
26.1632
-6.4769e-15
0
34.5556
28.7626
9.0144
59.9004
53.7586
0
16.7302
0
0
22.992
39.79
3533.04
831.601
35.3846
2446.16
65.0732
23.5431
7.67684
64.8316
42.4202
32.6066
12.2491
31.3632
18.0957
2083.05
902.931
1242.7
1188.76
14403.5
866.9
1092.78
1228.62
53.5735
-1.25576e-14
12.2666
0
8.16354
14.1367
28.8843
71.6085
0
24.8906
77.0494
2.32232
93.5838
73.36
43.7431
36.5958
57.0896
18.0657
51.7414
58.5521
34.7654
35.0276
8.11864
24.6941
5.98655
0.28016
69.0593
14.3162
12.0795
28.636
53.3509
7.36906
10.8249
42.0407
61.5364
12.3526
22.0662
8.30066
2.87505
12.5304
19.2992
37.5639
50.7118
13.4413
42.6751
27.9029
11.1076
0
9.73888
8.07133
0
23.7274
32.7321
78.8116
19.1843
27.5729
47.0298
4.00373
23.0684
0
6.36486
15.422
10.0836
1761.71
547.253
15.277
1681.46
-2.87827e-15
0.359912
10.7478
55.7016
14.7607
19.8563
46.0423
32.598
15.3285
4265
666.915
1304.19
1866.54
10554.3
664.121
1197.14
1385.96
25.4805
22.728
23.8467
39.9447
13.6044
6.74104
0
21.26
7.26491
49.2797
38.0853
27.9224
81.462
12.7934
41.2407
0
36.3684
28.1129
0
35.3697
47.8939
13.3274
2.8986
22.1498
19.6531
24.4165
52.4356
4.9772
29.2884
14.7051
68.2641
30.4393
12.6375
12.9728
16.9551
18.8552
6.2651
39.4953
32.7434
18.0734
51.5665
64.8387
19.2876
27.7004
-2.24384e-14
42.2595
0
22.4203
6.096
0
22.7604
12.5129
36.5042
28.7881
24.2335
30.1643
30.6334
0
0
21.3883
12.6521
0
46.956
1817.79
422.811
29.6476
1558.59
26.4309
0
58.2921
31.0167
22.1449
49.3982
23.8012
60.5951
8.80875
6642.53
571.48
1198.13
1445.21
9696.04
590.792
1174
1291.63
34.0749
34.3662
19.6211
24.5311
16.3237
26.0863
0
11.7693
19.5789
19.6312
23.178
-2.51969e-16
16.1979
11.0103
22.8163
14.9797
48.4059
6.19863
33.7255
14.9483
0
24.8009
16.2234
10.41
22.5829
5.23738
0
8.88059
0
0.561184
42.9719
0
21.7867
14.813
12.2563
6.2613
0
25.6293
9.22018
18.8456
19.681
67.1548
10.4703
16.045
-1.24344e-14
29.5442
8.32179
22.694
7.49411
8.75696
0
11.4721
37.0745
12.8063
12.7607
26.9868
25.3705
6.45446
26.94
0
6.09464
15.7966
10.5613
1295.1
253.078
25.3677
984.858
30.4355
13.0191
23.0464
19.5558
23.0886
27.4426
12.0947
32.7432
11.5233
3937.63
514.788
936.669
1336.1
8217.14
468.453
832.034
1114.68
39.0314
29.3488
11.9569
6.77327
24.687
43.2656
92.5781
12.4646
40.9064
88.329
23.9185
33.7476
33.5242
2.32451
18.3636
0
15.4124
12.7059
23.1287
8.11148
4.23117
6.02202
5.68355
0
0
16.316
24.1254
15.9321
0
0
27.7345
15.515
8.1039
4.9476
21.33
19.0763
0
63.1726
33.3445
33.5629
42.6385
147.376
41.0944
13.853
7.61271
0
33.3392
0
12.9225
-2.48418e-16
21.2629
6.5253
45.4721
13.2203
20.0522
21.4189
0
12.5921
7.5723
-1.36663e-14
6.507
0
11.8258
766.981
180.606
25.5571
688.42
0
13.0224
24.9436
8.25355
15.3428
71.445
26.9785
75.9862
20.8426
4834.88
377.544
979.188
993.878
4507.13
361.598
926.809
812.61
28.4383
66.5993
47.9267
47.5719
30.2208
85.6242
49.2859
29.6752
22.4648
40.8872
11.0657
21.9833
12.904
0.453084
0.528047
23.156
7.86349
16.6892
0
-1.43615e-15
29.6843
0
0.541928
0
6.27032
23.9539
27.504
56.5631
29.6217
32.7595
10.5521
7.51195
0
10.5419
14.3139
11.6112
13.4995
48.2919
21.9142
26.7649
51.8714
27.4644
24.8097
18.2527
23.7941
0
16.8586
50.0774
6.42411
2.35085
15.2866
4.94489
8.79178
72.2708
0.458199
13.2166
29.3697
12.9344
8.18189
7.9306
4.36371
27.1114
13.4131
775.153
136.605
31.628
699.708
15.7062
34.6841
38.5113
47.0736
8.29528
21.8465
35.6995
74.4255
47.3966
7567.52
307.34
879.018
1727.36
6736.86
281.354
864.115
1260.61
28.3308
50.0775
34.9554
146.416
74.2853
68.8499
22.9605
5.55507
45.6207
35.0963
12.292
84.8354
10.1629
26.0327
0
1.89616
0.337601
0.507585
0
25.1281
9.52749
31.313
4.97161
23.3171
-7.27477e-15
0
54.1239
19.652
11.6737
0
43.8965
14.1977
0
8.88405
5.89248
12.3648
17.8532
14.7683
33.4599
18.4462
33.2274
27.2508
19.6241
11.8519
0.25627
0
16.7167
-4.245e-15
12.5583
10.9943
23.3029
0.258284
19.388
14.5345
7.33567
16.0675
-1.24849e-14
22.1436
36.4083
0
12.954
14.8396
13.4269
661.602
152.579
24.2916
666.085
19.5837
46.2149
53.5525
93.6799
78.5798
70.098
40.3701
58.6504
55.1226
5202.59
202.837
594.263
1559.86
4284.88
144.468
524.925
918.569
53.4242
57.3273
38.3287
-6.37429e-16
63.0359
50.0808
22.9126
8.3291
-1.91724e-14
17.2799
5.73515
27.4394
5.57347
15.1525
23.8516
0
2.62111
4.77228
0
-4.57894e-16
8.5828
18.7173
0
-2.65428e-15
34.7012
106.269
80.192
145.98
25.8043
20.2896
16.8523
12.2855
19.7927
11.1942
4.73736
13.8183
-3.79294e-15
30.132
55.1415
12.1821
72.6199
26.7574
6.2666
6.17913
27.9608
0.649064
18.7751
-7.11277e-15
16.8532
8.50053
0
6.54944
9.18957
0
18.3366
19.1188
0
6.61982
57.9313
46.5254
0
22.9349
8.88593
647.609
58.5142
-1.17292e-14
567.338
49.5688
44.434
27.1094
39.2063
52.5105
19.7753
11.7053
23.3514
55.8982
2617.23
132.571
501.434
1823.77
7679.74
74.1262
531.146
584.846
33.9213
64.6141
47.1555
0
54.0769
17.8776
0
14.0938
19.1811
13.9204
4.17432
20.7002
227.088
13.0518
17.0828
0
0
6.58955
0
32.7014
6.12155
17.8315
173.766
19.7589
67.1062
144.134
66.4823
40.5777
15.0591
-1.04756e-15
10.4439
15.1609
6.48883
11.824
35.1691
12.6209
1.61199
10.2944
17.7055
39.0351
56.7186
0
34.7008
17.4451
15.9845
42.7764
15.7717
0
10.5417
19.7315
1.55226
2.27755
25.2013
92.7637
24.2782
17.7426
16.2178
6.17437
24.1868
21.5994
6.75967
10.1106
187.171
506.829
66.1081
15.1731
427.362
37.9233
59.3701
24.0239
28.0008
37.2702
39.057
18.0047
43.794
57.8127
5426.28
69.0263
466.886
1521.32
5057.5
37.1211
316.048
453.943
30.7112
19.879
11.9498
67.2568
22.4517
23.6254
-2.07373e-14
61.2794
-6.35229e-15
10.2561
4.42179
0
18.8906
39.3903
35.0111
38.8403
15.3842
0
23.5226
36.8629
12.5043
79.8453
97.557
70.0904
61.3051
68.9315
64.676
15.9121
0
0
0.452072
30.8766
-4.77392e-16
6.76582
5.2334
11.1709
6.85479
0
20.5189
43.0448
22.7326
23.0122
19.0703
37.4449
27.6937
29.4969
7.82217
15.4617
12.8292
16.0436
-7.84196e-16
22.2935
26.3712
0
52.8435
16.1527
55.8854
13.1298
30.1251
0
0
14.3368
-1.08028e-14
347.939
36.3931
0
307.628
84.2831
49.5386
15.9315
34.7797
37.6251
43.7161
21.4635
35.7438
39.8187
4944.9
41.2018
283.334
631.07
5951.44
37.1331
288.258
461.488
62.3728
72.2827
12.1544
0
30.2573
16.2806
0
8.96032
0
1.7143
0
0
6.86577
43
-3.51631e-14
-2.00323e-14
13.2997
43.053
23.7246
8.25084
21.7242
49.2054
22.8504
45.0589
47.2872
56.4442
28.7705
119.556
0
0
15.1177
5.49011
-2.09547e-16
23.2156
36.9558
0
6.9911
39.1756
31.7731
58.965
38.5612
10.3951
28.7963
70.7535
104.296
113.118
16.5725
-2.04278e-14
4.28384
15.9117
19.6926
0.205473
13.5049
34.3048
32.7916
14.0589
12.0911
0.2512
9.41688
0
6.51049
27.282
0
246.005
29.5745
106.908
233.655
32.7415
34.65
35.0529
40.0313
58.6741
3.02006
23.4263
5.80811
41.8831
5688.92
19.4225
162.595
469.037
4335.33
19.4707
131.73
355.437
38.6641
76.8658
42.9819
0
13.8425
32.557
0
19.2792
0
5.14037
-5.88545e-15
0.470304
11.0415
0
17.1761
53.9085
32.3476
26.5793
82.9104
47.6715
15.0404
35.2669
106.737
22.9487
26.0357
80.8838
208.573
111.767
0
0
21.1577
0
0
10.8935
15.3131
0.74677
6.9598
33.8145
29.2735
17.1246
27.2312
35.2344
11.3457
19.2177
-2.86868e-14
13.1243
8.09283
4.11037
-1.84928e-16
0
0
6.60292
9.76479
34.3071
7.37142
11.956
34.4238
6.84781
16.2079
5.17998
13.4858
0
0.338665
190.816
5.19011
32.3547
163.945
32.2032
0
28.616
14.3203
19.8043
0
9.55048
0
6.47633
4967.5
7.36678
137.567
279.249
4487.31
15.6273
112.875
345.601
12.4994
41.0188
-1.10105e-14
0
7.99146
9.84263
0
0
0
-9.22212e-16
0
0
190.014
19.9109
0.546493
15.9496
7.98804
26.732
26.0454
0.535052
43.0998
15.669
80.4995
22.682
15.5153
32.1949
47.4995
-1.57781e-14
0
0
22.3766
4.31232
13.9054
0.44253
1.13043
0
19.8986
20.7761
-7.52756e-15
28.1281
2.46707
20.1967
12.7174
5.61781
0
13.6319
8.30673
24.0573
13.2379
13.2464
0
2.5916
10.8726
15.9056
0
-4.90704e-15
-4.12011e-14
0
30.2165
0
13.5603
11.2733
16.9382
182.451
16.5798
0
137.02
28.3073
9.93131
17.1011
17.0827
13.5174
0
-8.46441e-15
-1.10194e-14
4.89754
4384.1
14.9564
95.4698
119.98
2614.13
16.9906
109.936
338.093
-1.92262e-14
0
0.233328
0
9.23317
9.26277
0
0
0
0
0
0
-1.408e-15
12.4367
21.5311
41.763
7.93182
24.7491
7.69285
16.1847
53.0438
30.6289
10.2421
12.7373
2.91291
6.38254
4.14808
18.6755
0
9.25403
4.30534
1.50072
14.389
1.12036
20.1917
5.20727
20.767
10.7647
0.368351
0
18.7948
21.1025
39.8982
14.7697
13.2462
-4.16467e-16
0
0
13.2045
0.97956
23.8586
13.1346
5.50179
0
0.846085
25.3361
-4.26763e-14
6.72756
9.11087
0
13.3828
17.029
0
164.887
15.1014
0
213.28
3.85361
13.0315
5.70886
0
1.39028
3.33249
0
17.6319
7.37242
2263.51
15.0413
48.1267
26.4373
1483.64
17.0732
35.3541
270.094
21.8315
12.9016
6.55056
0
17.323
0
0
6.81041
0
5.31522
-1.24393e-15
0
71.6546
22.3955
25.5531
66.9374
21.9248
47.6349
22.2556
14.2051
38.83
11.4861
6.19486
21.7793
5.82771
1.18487
10.4311
24.6964
4.74536
2.00994
5.40087
10.0368
1.9987
-1.68957e-15
18.9439
6.15559
10.7511
0.68987
46.4315
8.70302
25.9726
9.89482
25.8346
9.45644
0
13.3233
0.295664
0
0
28.5341
0
9.69782
1.10556
0
0
0.36809
0
11.0538
3.45841
0
8.23745
26.7812
0
335.375
29.0667
0
535.936
13.6603
14.9522
4.55496
8.83531
6.65371
7.49806
5.23119
5.1264
6.45916
779.091
3.70778
30.6071
8.40636
415.292
2.24263
20.6199
389.435
15.6814
-4.11704e-16
0
0
4.43984
0
20.7923
0
0
0
0
22.4752
0.750281
19.2894
42.102
43.6653
32.4117
23.7782
22.4635
0
5.81194
5.75884
12.7472
22.0811
5.63779
6.1944
10.2221
19.9758
14.6217
25.1639
18.2816
3.98333
7.71428
11.0184
13.0878
6.32879
2.76264
0
27.4216
10.3941
1.91608
0
11.0199
1.17733
10.6468
0
67.747
0
47.6901
69.6949
24.0362
69.2815
5.38541
0
0.259284
0
0
35.8414
25.7606
35.8191
52.3075
14.5328
0
639.598
132.641
0
830.537
35.8799
18.483
0.164378
9.04188
13.914
21.0633
-1.29586e-16
32.697
11.1211
205.934
3.35069
15.6198
0.0474018
115.183
3.89361
20.4077
271.174
25.5994
25.0616
0
8.10156
13.4253
12.4551
0
0
0
3.6336
0
32.3148
0
12.9747
0
0
7.89335
17.8985
0
5.4438
1.67288
-1.03587e-15
9.00592
21.7054
0
0.21392
0
0
34.3009
52.2163
0
13.322
10.4001
10.3731
0
41.1852
19.5435
13.4918
23.4376
8.56902
6.8148
0.672603
16.4828
0.375023
21.6917
-1.18909e-14
50.6842
121.751
47.3385
60.8459
23.9383
63.3476
8.83263
0
0
7.21632
0
19.6729
31.8031
69.5526
26.0642
26.8529
0
1123.56
440.296
281.964
1095.28
91.6353
63.1925
6.95417
27.3103
29.6282
6.66136
33.9634
9.11679
13.2168
104.555
-4.41615e-17
8.69115
9.73219
35.1209
0
3.63661
185.074
25.8659
11.4785
17.3687
0
13.1983
8.6339
0
0
-1.98914e-14
10.4325
0
0
0
25.3707
0
0
9.48241
17.9957
21.8325
3.52063
17.0855
0.859104
23.551
41.7378
0
-1.04975e-15
0
0
12.0254
108.937
5.10591
18.2411
0
3.53051
11.7832
24.2926