/*--------------------------------*- C++ -*----------------------------------*\
| =========                 |                                                 |
| \\      /  F ield         | OpenFOAM: The Open Source CFD Toolbox           |
|  \\    /   O peration     | Version:  5.x                                   |
|   \\  /    A nd           | Web:      www.OpenFOAM.org                      |
|    \\/     M anipulation  |                                                 |
\*---------------------------------------------------------------------------*/
FoamFile
{
    version     2.0;
    format      ascii;
    class       volScalarField;
    location    "0.5";
    object      voidfraction;
}
// * * * * * * * * * * * * * * * * * * * * * * * * * * * * * * * * * * * * * //

dimensions      [0 0 0 0 0 0 0];

internalField   nonuniform List<scalar> 
10571
(
0.785774
0.646213
0.900998
0.947337
0.776202
0.913659
0.958537
0.793114
0.859987
0.479656
0.765095
0.94239
0.911925
0.851113
0.839502
0.448435
0.797259
0.87462
0.526307
0.627217
0.396535
0.732586
0.742493
0.436861
0.957658
0.98735
0.980761
0.74293
0.801098
0.992974
0.950366
0.977644
0.956118
0.502645
0.980812
0.976488
0.843702
0.89064
0.918803
0.777704
0.961784
0.89826
0.791438
0.957898
0.749957
0.976321
0.896196
0.931442
1
1
0.995307
0.998712
0.996151
1
0.998331
0.997771
0.996827
0.998271
1
0.996465
0.996733
0.998331
0.922887
0.705013
0.99452
0.996925
0.998252
0.950136
0.728151
0.999347
0.999133
0.99396
0.996923
0.998937
0.996708
0.999025
0.994962
0.999664
0.993606
0.997749
0.998283
0.992123
0.998901
1
0.998441
0.998806
0.926769
0.704117
0.99703
0.997843
0.998375
0.965936
0.740978
0.998878
0.99994
0.970743
1
0.999664
0.998382
0.999155
0.997802
0.999865
0.996218
0.997799
0.99599
0.99693
1
0.999223
0.998365
0.998376
0.929549
0.737814
0.99486
0.996851
0.997319
0.932118
0.733009
0.99849
0.994565
0.932928
1
1
0.996423
0.998036
0.996104
0.996621
0.996863
0.998694
0.997112
0.994924
0.746956
0.997691
0.998039
0.999374
0.998585
0.950942
0.708979
0.539569
0.997955
0.996637
0.995906
0.796409
0.654242
0.995509
0.991543
0.914799
0.993844
0.996975
0.993992
0.998036
0.995543
0.996992
0.988867
0.99791
0.995412
0.997645
1
1
0.999797
0.998952
0.998628
0.948982
0.762809
0.999232
0.995669
0.998187
0.995087
0.904123
0.734619
1
0.998916
0.985806
0.873276
1
0.991878
0.996321
0.999018
0.997867
0.99804
0.997681
0.997531
0.991686
0.98925
0.99917
1
0.995974
0.998635
0.998686
0.951656
0.739254
1
0.997564
0.997321
0.99625
0.854032
0.738783
1
0.995315
0.993024
0.894711
1
0.99199
0.997401
0.997054
0.998583
0.99608
0.998941
0.998981
0.994272
0.993413
1
0.996811
0.999019
0.998646
0.997819
0.952694
0.754641
0.999174
0.993413
0.997195
0.995987
0.844413
0.752267
0.996941
0.998007
0.906001
0.995493
0.992551
0.998111
0.99753
0.998826
0.997027
0.998575
0.999442
0.996987
0.997688
0.996811
0.999019
0.995868
0.998719
0.937422
0.762915
0.993504
0.996902
0.9947
0.835934
0.714415
0.99969
0.997282
0.932325
0.996812
0.995128
0.99629
0.99804
0.998287
1
0.999014
0.999592
0.997513
0.99708
1
1
0.997291
0.997383
0.923433
0.778798
0.995008
0.997248
0.952848
0.754642
0.75865
0.998103
0.999124
0.968775
0.995492
0.990256
0.993358
0.996756
0.994744
0.998075
0.999259
0.999443
0.997735
0.996669
1
0.998343
0.996813
0.987708
0.916141
0.820665
0.993926
0.996288
0.971186
0.745459
0.711792
0.999613
0.996799
0.986629
0.997361
0.999944
0.994808
0.998378
0.994472
0.999797
0.999447
0.998081
0.997521
0.995543
0.996811
1
0.997607
0.986095
0.906787
0.86466
0.994829
0.994553
0.981594
0.705164
0.76095
0.996632
0.998822
0.989638
1
0.998432
0.99582
0.99902
0.996215
1
0.998787
0.99257
0.997577
0.998876
0.996811
1
0.995969
0.987606
0.910589
0.891887
0.993686
0.995445
0.987827
0.735779
0.743751
0.997716
0.995652
0.99993
1
0.998712
0.998045
0.99902
0.996996
0.999021
0.998264
0.989676
0.998183
0.996627
0.993623
1
0.995165
0.996957
0.928592
0.927169
0.993325
0.993806
0.989703
0.759481
0.788707
0.996554
0.9846
0.995589
1
0.997312
0.998078
0.998041
0.995193
0.999021
0.997677
0.995878
0.996822
0.997752
0.993623
0.999865
0.994396
0.999439
0.936682
0.953592
0.99101
0.995235
0.991207
0.72913
0.753488
0.995083
0.996527
0.99867
0.997031
0.996976
0.997775
0.996116
0.99339
1
0.997123
0.997605
0.997177
0.995619
0.996812
1
0.988453
0.998916
0.934355
0.949295
0.990921
0.995623
0.993511
0.707119
0.792449
0.985288
0.997644
0.995308
0.99989
0.998376
0.99936
0.999797
0.994112
1
0.997905
0.997356
0.996773
0.996704
1
1
0.997469
0.999311
0.93416
0.980226
0.993086
0.99763
0.995302
0.71619
0.80085
0.992994
0.996558
1
0.996812
0.998376
0.999865
0.996622
0.999099
0.998548
0.998699
0.996646
0.995994
0.995543
1
0.999899
0.998781
0.999539
0.92363
0.966749
0.990981
0.999293
0.996422
0.697163
0.83928
0.996245
0.997373
0.99755
0.996922
0.997256
0.997067
0.998277
0.995945
0.998379
0.998428
0.994723
0.995469
0.992868
0.998901
0.999256
0.998823
0.999442
0.900471
0.987818
0.992785
0.998773
0.996899
0.789363
0.89829
0.997406
0.998853
0.99797
0.987906
1
0.99582
0.995136
0.996425
0.996049
0.998607
0.999313
0.998062
0.997752
1
0.999797
0.999592
0.998943
0.892429
0.987032
0.995731
0.997424
0.996103
0.849216
0.88051
0.980681
1
0.99594
0.995712
0.998264
0.999225
0.990576
0.994503
1
0.998966
0.999704
0.998829
0.998876
0.996812
0.996925
0.999888
0.999206
0.855464
0.990932
0.997896
0.998587
0.997902
0.883599
0.90046
0.996903
0.998249
1
0.996812
0.999552
0.999022
0.99419
0.996545
0.998987
0.999496
0.999467
0.998017
1
0.997471
0.999966
0.999773
0.999516
0.848619
0.998458
1
0.99914
0.998068
0.934472
0.88653
0.997755
0.999124
0.99916
1
0.998544
0.99909
0.998683
0.997146
0.999021
0.999153
0.999643
0.998465
0.998876
1
1
0.999892
0.999001
0.850625
0.99997
1
0.999742
0.998739
0.977735
0.9076
0.998877
0.999124
1
1
0.998376
0.996798
1
0.998018
1
0.999596
0.998703
0.998457
1
1
0.997972
0.999685
0.998041
0.857264
1
0.998256
0.999883
0.998662
0.993691
0.87862
0.996322
0.998249
0.99797
0.996811
1
0.998483
1
0.998288
0.998615
0.999741
0.999144
0.998437
0.998682
0.995271
0.998817
0.999796
0.997255
0.866436
0.981289
0.998317
0.999734
0.999115
0.996395
0.87785
0.998219
0.999698
1
0.996811
0.995129
0.998045
0.99902
0.999399
0.997197
0.999741
0.99863
0.998534
1
0.996922
0.994762
0.999777
0.998056
0.919585
0.943202
0.996994
0.999806
0.999454
0.997763
0.91418
0.996593
1
1
0.99989
0.995689
0.998888
1
0.999129
0.99453
0.999382
0.99911
0.994802
1
0.991535
0.9951
0.999715
0.997065
0.955983
0.828638
0.997745
0.999725
0.999337
1
0.93112
0.997755
0.999426
1
0.988346
0.997144
0.997067
0.998041
0.99994
0.994226
0.999065
0.998995
0.991568
1
0.992963
0.993613
0.999658
0.995718
0.986823
0.690557
1
0.999536
0.999454
1
0.98901
0.999226
1
0.99797
0.996702
0.994793
0.997843
1
1
0.992437
0.999657
0.99838
0.994415
0.998876
0.997801
0.997364
0.999777
0.997142
0.996774
0.816396
0.999128
0.99941
0.999414
1
0.99664
0.997445
1
1
1
0.996696
0.997067
0.99902
0.999429
0.998818
0.999706
0.992263
0.988595
0.982475
0.997691
0.998986
0.999858
0.997611
0.997864
0.916352
1
0.999548
0.999761
1
0.99797
1
1
1
1
0.99384
0.999022
1
1
1
0.999584
0.995828
0.990429
0.916794
0.992193
0.99902
0.999946
0.997352
0.998865
0.982921
1
0.999649
0.999236
0.999933
1
1
0.998098
0.99804
1
0.998376
0.998416
1
0.999129
0.999021
0.998733
0.999893
0.993611
0.87302
1
0.99902
0.999631
0.998382
0.998991
0.996433
1
1
0.999648
0.999032
1
0.998877
0.999698
0.99972
1
0.995183
0.999022
0.99902
0.997927
0.999021
0.99504
0.999889
0.996761
0.852121
0.996811
1
0.999815
0.998974
0.999412
0.998277
0.999429
0.999887
0.999689
0.999032
1
1
1
1
1
1
1
1
0.996514
0.997299
0.999264
1
0.997896
0.923347
0.996262
0.996418
1
0.999752
0.999611
1
1
0.999883
0.999871
0.999065
1
1
0.999155
1
0.996812
0.998264
0.999022
0.998041
0.992999
0.999021
0.998131
0.999866
0.997395
0.973402
1
0.999966
0.999446
0.999814
0.999489
0.999184
0.999128
1
0.999766
0.999032
0.99797
1
1
0.99797
0.9989
0.998376
0.998618
0.998041
0.978668
1
0.999592
0.999451
0.998449
0.98895
1
1
0.999665
0.999888
0.999137
0.999426
1
0.999766
0.999883
0.999032
1
1
0.999305
1
1
0.996864
0.998045
0.998378
0.979209
1
0.99673
0.999593
0.998998
0.995541
1
0.99804
0.999331
1
0.999765
0.995404
1
0.999766
0.999103
1
0.993909
0.998877
1
1
1
0.998152
0.99882
0.996858
0.967379
1
0.99617
0.999555
0.999366
0.990501
0.996921
0.99902
0.995061
0.999775
0.999331
0.997884
1
1
0.999648
1
0.99671
1
0.998822
0.99867
0.996811
1
0.998854
0.99848
0.978073
1
0.999336
0.999405
0.998595
0.990774
0.996921
1
0.998996
0.999799
0.998788
0.994317
1
0.99996
0.999725
0.999366
0.9986
1
0.999124
0.99594
0.994723
0.995184
0.999393
0.998007
0.984351
0.998447
0.999435
0.999593
0.998873
0.995697
1
1
0.998373
0.999454
0.99906
0.991022
1
0.999536
0.999935
1
0.99349
1
0.999155
1
0.990436
0.998936
0.99882
1
0.984321
1
0.999046
0.999221
0.997751
0.993294
1
1
0.997523
0.999183
0.996389
0.994045
1
0.999996
0.999357
1
0.98936
0.999264
0.999124
1
1
0.993952
0.999326
0.996453
0.988976
0.999865
0.999222
0.999332
0.995889
0.984806
1
1
0.999642
0.998881
0.996
0.982679
1
0.999649
0.999325
0.996929
0.956529
1
1
1
0.98395
0.994512
0.998112
0.998953
0.992701
0.999662
0.999447
0.998691
0.992864
0.975582
1
1
0.999342
0.999102
0.99557
0.974246
0.99997
0.999629
0.998484
0.995126
0.947779
1
0.999124
0.993769
0.991315
0.99944
0.995854
0.997399
0.987835
0.999966
0.998638
0.997571
0.985126
0.932391
1
1
0.999458
0.998412
0.992826
0.960092
1
0.999729
0.998617
0.994792
0.930761
0.999613
0.997826
0.995169
1
1
0.995753
0.998244
0.994233
0.999021
0.998623
0.99523
0.987202
0.890467
1
1
0.999738
0.997959
0.992145
0.942431
0.999188
0.999281
0.997635
0.993691
0.907869
1
0.998762
0.96542
0.989335
0.998152
0.99619
0.998818
0.991349
0.999662
0.998054
0.997129
0.986519
0.822072
1
0.999797
0.999331
0.998231
0.992814
0.903094
0.999158
0.999649
0.996374
0.996829
0.930832
0.998141
0.993296
0.861259
0.996811
0.996752
0.986917
0.990371
0.991106
0.999392
0.997944
0.996903
0.985639
0.810402
1
0.99902
0.999223
0.997948
0.992968
0.96922
1
0.99941
0.994069
0.998064
0.792121
1
0.903184
0.742329
0.992632
0.995239
0.985872
0.993006
0.993029
0.997906
0.998405
0.996596
0.979916
0.820017
0.996811
0.998817
0.999035
0.997777
0.994516
0.981133
1
0.996891
0.993245
0.994592
0.969826
0.993417
0.7162
0.801316
0.981305
0.992216
0.865127
0.999696
0.986058
0.997096
0.998871
0.997613
0.989108
0.838473
0.994721
1
0.998888
0.998738
0.992177
0.958195
0.998256
0.971518
0.996434
0.994492
0.98593
0.740953
0.921719
0.992649
0.978011
0.839778
0.956889
0.889988
0.872699
0.998953
0.9971
0.994888
0.994697
0.970533
1
0.995945
0.998619
0.999086
0.98947
0.890454
0.803808
0.976791
0.99713
0.99566
0.98593
0.972011
0.990731
0.99797
0.954044
0.978386
0.993731
0.962778
0.982996
0.948305
0.994445
0.991315
0.984492
0.980303
0.986805
0.864885
0.997311
0.998757
0.992822
0.946466
0.985389
0.982795
0.994817
0.996962
0.98957
0.997793
0.985418
0.99839
1
0.970882
0.999023
0.99902
1
0.921495
0.983766
0.998776
0.993227
0.987672
1
0.998986
0.991973
0.998556
0.993661
0.979052
0.999128
0.983934
0.976172
0.996695
0.98124
1
0.987681
0.993489
1
0.99944
1
1
0.999129
0.99973
0.976262
0.990475
0.998312
0.993954
0.960529
0.99804
0.965256
0.994475
0.995614
0.988362
1
0.995777
0.984359
0.979036
0.97459
0.998877
0.996226
1
1
1
1
1
1
0.999088
0.994903
0.983379
0.994261
0.997752
1
1
0.992457
0.980543
0.99604
0.99211
1
0.999608
0.997069
0.995026
0.98684
1
0.999879
1
1
1
1
0.99902
1
1
1
0.986752
0.984003
0.984264
1
1
0.999627
0.987683
0.995708
0.992957
1
1
0.999462
0.994859
0.98509
1
1
1
1
1
1
1
1
1
1
0.999666
0.996846
1
1
1
1
0.996442
0.988347
0.995133
1
1
0.999883
0.999366
0.986625
1
0.999487
1
1
1
1
1
1
1
1
1
0.99941
0.99969
1
1
1
1
0.997362
0.984764
1
1
0.999883
0.999065
0.986277
1
1
1
1
1
1
1
1
1
1
1
1
1
1
1
1
0.999888
0.999153
0.99459
1
1
1
0.999366
0.991879
1
1
1
1
1
1
1
1
1
1
1
1
1
1
1
1
1
0.999773
1
1
1
0.999883
1
0.997971
1
1
1
1
1
1
1
1
1
1
1
0.999842
1
1
1
1
1
0.999842
0.999127
1
1
1
1
0.996998
1
1
1
1
1
1
1
1
1
1
1
0.999881
1
1
1
1
1
0.999922
1
1
1
1
1
0.997969
1
1
1
1
1
1
1
1
1
1
1
1
1
1
1
1
1
1
0.999466
1
1
1
1
1
1
1
1
1
1
1
1
1
1
1
1
1
1
1
1
1
1
1
1
1
1
0.996236
1
0.999883
1
1
1
1
1
1
1
1
1
1
1
1
1
1
1
1
1
1
1
1
1
1
1
1
1
1
1
1
1
1
1
1
1
1
1
1
1
1
1
1
1
1
1
1
1
1
1
1
1
1
1
1
1
1
1
1
1
1
1
1
1
1
1
1
1
1
1
1
1
1
1
1
1
1
1
1
1
1
1
1
1
1
1
1
1
1
1
1
1
1
1
1
1
1
1
1
1
1
1
1
1
1
1
1
1
1
1
1
1
1
1
1
1
1
1
1
1
1
1
1
1
1
1
1
1
1
1
1
1
1
1
1
1
1
1
1
1
1
1
1
1
1
1
1
1
1
1
1
1
1
1
1
1
1
1
1
1
1
1
1
1
1
1
1
1
1
1
1
1
1
1
1
1
1
1
1
1
1
1
1
1
1
1
1
1
1
1
1
1
1
1
1
1
1
1
1
1
1
1
1
1
1
1
1
1
1
1
1
1
1
1
1
1
1
1
1
1
1
1
1
1
1
1
1
1
1
1
1
1
1
1
1
1
1
1
1
1
1
1
1
1
1
1
1
1
1
1
1
1
1
1
1
1
1
1
1
1
1
1
1
1
1
1
1
1
1
1
1
1
1
1
1
1
1
1
1
0.548228
0.577843
0.456727
0.421239
0.590325
0.432296
0.494981
0.505947
0.455532
0.514289
0.498191
0.457077
0.445095
0.443056
0.444106
0.422784
0.444522
0.435579
0.463296
0.482143
0.533361
0.533432
0.580665
0.564247
0.537774
0.525165
0.43316
0.6475
0.432685
0.43127
0.422155
0.436795
0.496982
0.434673
0.468258
0.453275
0.497049
0.549412
0.533209
0.558864
0.593292
0.583166
0.579731
0.568416
0.537878
0.494502
0.484201
0.474921
0.64644
0.436566
0.443892
0.443817
0.477935
0.438756
0.434061
0.44479
0.514353
0.448638
0.509917
0.548244
0.563474
0.512454
0.541211
0.519636
0.480614
0.500578
0.466351
0.46883
0.459652
0.42773
0.510981
0.562853
0.509791
0.528071
0.539612
0.485023
0.498155
0.509865
0.473614
0.55402
0.556365
0.554578
0.54549
0.502838
0.450892
0.490094
0.452455
0.412493
0.519556
0.600932
0.443414
0.533336
0.548755
0.56844
0.50229
0.486316
0.66493
0.746592
0.800873
0.865091
0.869929
0.475604
0.554459
0.523093
0.855388
0.808178
0.476035
0.517396
0.46449
0.795619
0.405404
0.792561
0.553983
0.762053
0.822339
0.894413
0.760656
0.750481
0.643558
0.638841
0.50768
0.722646
0.466572
0.431766
0.429103
0.576349
0.429487
0.477933
0.430437
0.883721
0.775551
0.853015
0.541423
0.533093
0.545995
0.526648
0.516259
0.455688
0.596206
0.544885
0.852972
0.866061
0.510184
0.585794
0.502497
0.493824
0.438768
0.622966
0.660961
0.512785
0.820138
0.451339
0.889528
0.635851
0.780434
0.624993
0.671237
0.850276
0.809831
0.43432
0.508497
0.420171
0.925688
0.45094
0.750726
0.609886
0.501537
0.677325
0.857944
0.834828
0.834242
0.610202
0.494446
0.424977
0.504392
0.870132
0.456715
0.447501
0.411836
0.483292
0.987692
0.994827
0.927
0.951324
0.953489
0.991637
0.997845
0.995686
0.940152
0.894304
0.998154
0.993941
0.998336
0.835109
0.9921
0.98499
0.99898
0.994831
0.994477
0.991013
0.996835
0.994641
0.997177
0.994324
0.832465
0.902787
0.707982
0.99172
0.989814
0.998052
0.986755
0.564588
0.970146
0.970065
0.978882
0.974642
0.998904
1
0.998315
0.658619
0.701176
0.891394
0.929992
0.976409
0.970203
0.95403
1
1
0.996899
0.907147
0.661814
0.744547
0.976094
0.570499
0.921936
0.995845
0.969002
0.984937
0.981941
0.991978
0.995317
0.985864
0.990582
0.508241
0.943745
0.754686
0.954769
0.567548
0.936004
0.730472
0.730974
0.986549
0.991456
0.935205
0.84574
0.993135
0.992297
0.985022
0.825559
0.891266
0.9952
0.999393
1
0.99439
0.99931
0.997568
0.996827
0.998123
0.999132
0.997915
0.996338
0.999367
0.998262
0.998927
1
0.999126
0.997917
0.997928
1
1
1
0.993743
0.997828
0.993799
0.999442
0.993032
0.997423
0.995749
0.996773
0.998487
0.997196
0.995907
0.995126
0.998401
0.997682
0.99598
0.999721
0.998889
1
0.996675
0.997764
0.996817
0.999819
0.992423
0.997043
0.995902
0.995623
1
0.999131
0.996128
1
0.999125
0.998033
0.981397
0.605281
0.684471
0.968907
0.610673
0.995854
0.99701
0.997391
0.990202
0.992628
0.990404
0.995983
0.989237
0.989701
0.587405
0.900764
0.733679
0.958607
0.600614
0.872634
0.721964
0.723323
0.996116
0.990022
0.998265
1
0.994671
0.999126
1
0.999116
1
1
0.998841
0.996822
0.989592
0.997981
0.997979
0.998901
0.998068
0.998821
1
0.998878
0.999122
0.996765
0.997758
0.998681
0.999485
0.997755
1
0.99728
0.998051
0.997911
0.997489
0.996225
0.994785
0.998376
0.996827
0.996011
0.995322
0.998371
0.997506
0.998821
0.995402
0.997187
1
0.995907
0.997974
0.999301
0.996637
0.99989
0.995828
0.999961
1
1
0.991888
0.996697
0.99492
0.988739
0.990263
0.998821
0.999111
0.997911
0.998547
0.998723
0.95236
0.667076
0.729888
0.939217
0.680013
0.997909
0.996792
0.997341
0.985951
0.99302
0.996004
0.991932
0.991958
0.9964
0.589969
0.867515
0.728098
0.972191
0.584558
0.84117
0.693407
0.782595
1
0.998531
0.997376
1
0.998529
0.998248
0.996378
0.993535
1
0.99846
0.996784
0.997037
0.956222
0.994146
0.997979
1
0.998878
0.997941
1
1
0.997365
0.998819
0.999032
0.996812
0.999636
0.998218
0.998395
1
0.99603
0.99798
0.998353
0.997557
0.996357
0.997088
0.994248
0.998272
0.996485
0.996734
0.998047
0.995707
0.996833
0.998143
0.999035
0.998082
0.99896
0.998236
0.997794
1
0.998849
0.998839
1
0.998274
0.993005
0.991462
0.994278
0.991945
0.964226
0.999122
0.998877
1
0.999121
0.998877
0.914775
0.632185
0.730064
0.923968
0.603635
0.997977
0.997977
0.994463
0.983689
0.994552
0.993715
0.995381
0.993362
0.993703
0.534791
0.83182
0.649682
0.865697
0.488468
0.800589
0.626613
0.65398
0.99958
0.992234
0.995621
0.998354
0.996709
0.996495
1
0.993525
0.99594
0.995288
0.990224
1
0.927914
0.996654
0.989613
1
0.996633
0.998243
1
1
0.998243
0.998242
0.996434
0.99978
0.997333
0.998024
0.993926
1
0.996169
1
0.995835
0.997527
0.992804
0.996191
0.995085
0.998242
0.99329
0.995306
1
0.997553
0.997282
0.99989
0.99801
0.999151
1
0.998252
0.999961
1
0.999122
1
1
0.999424
0.964666
0.985392
0.868217
0.997626
1
0.984715
0.993374
0.515414
0.565123
0.398916
1
0.989519
0.997936
0.951178
0.998879
0.996941
0.99956
0.999242
0.996243
0.839435
0.5722
0.968395
0.748012
0.90287
0.584941
0.966138
0.397041
0.766654
0.504925
0.994404
0.937485
0.998042
0.971289
0.997698
0.994977
0.996734
0.991844
0.989555
0.989594
0.995544
0.990606
0.988555
0.500857
0.780881
0.668596
0.826133
0.535661
0.784816
0.701551
0.757282
0.995242
0.995312
0.996194
1
0.998877
0.997099
1
0.992277
1
0.988943
0.940608
0.996817
0.882372
0.995399
0.98787
0.99978
0.998877
0.998243
1
0.999032
0.998243
0.997363
0.99663
1
0.995909
0.997367
0.99798
0.997983
1
1
0.988642
0.9969
0.992312
0.993502
0.994006
0.999434
0.998729
0.998431
0.997169
0.998846
0.999128
0.997899
0.998012
0.996642
1
1
0.998695
1
1
1
1
1
1
0.990543
0.99791
0.997755
0.99989
0.998031
0.999148
0.972821
0.983697
0.994207
1
0.931933
0.963688
0.999275
1
1
1
1
1
1
1
0.999032
1
0.998242
0.995933
0.922388
0.576131
0.972159
0.779912
0.928195
0.560206
0.958027
1
1
1
1
1
1
1
0.99421
0.996512
0.998383
0.991843
0.994702
0.991849
0.995181
0.990155
0.996851
0.554623
0.790803
0.736657
0.883119
0.552375
0.826416
0.771348
1
0.740837
0.995684
1
1
1
0.993283
0.993213
0.998248
0.99572
0.998877
0.998006
0.994732
0.942566
0.998683
0.991363
0.987858
0.996708
0.871356
0.995957
0.995608
1
0.997523
0.995033
0.995712
0.996555
0.994427
0.996455
0.994464
0.997911
0.997333
0.997793
0.997914
1
1
0.995611
0.995924
0.998838
0.997785
0.998264
0.997003
0.99851
1
0.998438
0.998922
0.9993
0.995579
0.998434
0.997846
0.997285
0.995893
1
0.997433
1
1
1
1
1
0.998374
0.993622
0.998819
0.99791
1
0.997062
0.996973
0.960925
0.977778
0.991354
1
0.965437
0.989668
1
1
0.999799
1
1
1
0.999284
0.999697
0.997173
1
0.996515
0.99849
0.916295
0.539339
0.946801
0.720734
0.904749
0.594587
0.961322
1
1
1
1
1
1
1
0.999721
0.996372
0.995379
0.993193
0.994005
0.994646
1
0.991787
0.997063
0.532412
0.819325
0.731937
0.831614
0.53645
0.816682
0.700654
0.997447
0.768919
0.999926
1
1
1
0.994892
0.998671
0.996526
1
0.995896
0.998248
0.993635
0.971336
0.995721
0.997675
0.972418
0.989356
0.912359
0.995399
0.988498
0.996811
0.997755
0.995033
0.993513
0.99849
0.996487
0.998212
0.998877
0.993733
0.996515
0.997753
0.994007
0.996513
1
0.996656
0.990081
0.998897
0.998111
0.997311
0.990231
0.999136
0.99873
0.999451
0.998419
0.998644
0.996021
0.997326
0.997932
0.998224
0.995619
0.990394
0.99551
1
0.995941
1
1
0.999091
0.99877
0.987246
0.990068
0.995648
0.996162
0.980074
0.989752
1
1
1
1
1
1
1
0.999091
0.998644
1
0.999121
0.998064
0.934843
0.64012
0.963331
0.738762
0.947267
0.66573
0.978281
1
1
1
1
1
1
1
1
0.993373
0.996204
0.990381
0.9967
0.99176
0.992047
0.985881
0.994036
0.583532
0.759747
0.707314
0.833382
0.581589
0.758832
0.738327
0.762249
0.995942
0.987896
1
1
0.997754
0.996496
1
0.988516
0.994513
0.991333
0.984367
0.994733
0.920982
0.988638
0.991497
0.990434
0.994775
0.992974
1
1
0.997941
0.996091
0.997715
0.993624
0.995759
0.99667
0.998535
0.996583
0.995263
0.99798
0.990262
0.999106
0.99746
0.997592
0.989304
0.999136
0.997819
1
0.996347
0.999666
0.99997
1
0.999041
0.99824
0.996245
0.998276
0.998955
1
0.998243
1
1
0.998243
0.987936
0.9879
0.991674
0.991188
0.98757
1
0.998877
1
1
1
0.964854
0.681811
0.771677
0.961497
0.6334
0.997907
0.995954
0.99208
0.989706
0.993097
0.99173
0.995415
0.991169
0.99561
0.51963
0.769032
0.746399
0.801478
0.506027
0.805505
0.758747
0.727201
0.994753
0.998671
0.999094
0.996817
1
0.996617
0.996817
0.983598
0.994074
0.999094
0.978529
1
0.954338
0.986061
0.985852
1
0.996053
0.998032
1
0.994931
0.996336
0.997395
0.998142
0.99989
0.996789
0.998878
0.994771
0.998397
0.99805
0.99791
0.993919
0.999136
0.998731
0.995128
0.994129
0.998272
0.997201
0.995788
0.995283
0.999334
0.997207
0.998034
0.998287
0.996796
0.995958
0.997976
0.997329
0.993622
0.998243
0.996362
1
1
0.991594
0.993241
0.998799
0.984209
0.986484
1
0.99756
1
1
0.996554
0.985732
0.668531
0.805272
0.988693
0.697205
0.990373
0.996163
0.998812
0.989257
0.993612
0.994558
0.998087
0.994882
0.997245
0.516782
0.789415
0.757493
0.785061
0.51263
0.815393
0.746252
0.730694
0.992514
1
0.99846
1
0.998877
0.997946
0.996817
0.98493
1
0.99532
0.984622
0.999342
0.974449
0.988779
0.9931
0.994722
0.992261
0.997396
0.992523
0.991642
0.995095
0.995093
0.998916
0.996701
0.999122
0.999961
0.99045
0.997978
0.998259
0.99596
0.991583
0.998987
0.998438
0.99384
0.990864
0.998242
0.996844
0.998877
0.999605
0.998246
0.997357
0.994944
0.992917
0.998246
0.993922
0.995945
0.998452
1
0.998849
0.998878
1
0.996729
0.993165
0.97965
0.996629
0.993768
0.986908
0.999424
0.99667
1
0.999121
0.997754
0.997582
0.730274
0.852358
0.994944
0.712036
1
0.99993
0.998417
0.990495
0.99782
0.996422
0.992943
0.994376
0.997669
0.50966
0.832844
0.75213
0.672773
0.510452
0.831524
0.751674
0.761739
0.996502
0.996642
0.996798
0.994732
0.998142
0.999124
1
0.995546
0.998903
0.991545
0.992912
0.996269
0.982779
0.997909
0.993588
1
0.994931
0.995973
1
0.995047
0.993429
0.998122
0.999536
0.996921
0.997335
0.996632
0.99268
0.999303
0.99596
0.99798
0.989366
0.995889
0.998113
0.998264
0.997394
0.997378
0.999056
0.994774
0.995288
0.997368
0.99294
0.991233
0.997199
0.996279
1
0.993914
1
0.996811
0.999152
1
0.996811
0.998243
0.991013
0.992738
0.995891
0.993252
0.991528
1
1
0.996811
0.998243
1
0.98747
0.721134
0.874624
0.992746
0.736465
0.996024
1
0.991492
0.994601
0.996489
0.991612
0.996669
0.989145
0.998819
0.51265
0.862638
0.767113
0.733388
0.520349
0.837735
0.752065
0.726534
0.995243
0.995103
0.997372
0.996817
0.997793
0.996497
1
0.997637
0.997366
0.996497
0.995662
1
0.996359
0.998327
0.996515
0.998241
0.993229
0.999122
0.995382
0.997794
1
0.996487
0.997755
0.998681
0.99685
0.999265
1
0.998745
1
0.99993
0.993111
1
0.996974
0.997816
0.998023
0.999136
1
0.996628
0.998715
0.997398
0.997266
0.990784
0.998484
0.997791
1
0.995872
0.998878
0.996811
0.99894
0.998762
1
0.998425
0.991527
0.996809
0.997751
0.993887
0.993619
0.999121
0.996244
1
0.999152
0.997793
0.996813
0.76255
0.918701
0.993516
0.785928
0.995187
0.997977
0.996142
0.9964
0.99664
0.99534
0.998087
0.994094
0.998214
0.523564
0.858436
0.793091
0.754731
0.544079
0.867648
0.782918
0.767974
0.994473
0.995942
0.998248
0.998902
0.996632
0.994141
0.988366
0.99756
0.994732
0.984238
0.995507
0.99572
0.99797
0.999582
0.998049
1
0.997794
0.998244
0.996811
0.998839
0.999394
0.999152
0.999226
1
1
0.997755
0.996654
0.997699
1
1
0.995657
0.997885
0.998861
0.99944
0.996525
0.997408
1
0.991233
0.995222
0.995431
0.993961
0.979544
0.993937
0.998033
0.999021
1
0.995511
1
0.998244
1
0.997361
0.999122
0.990316
0.99681
0.996627
0.995189
1
0.998243
0.998877
1
0.999121
1
0.996483
0.809204
0.941106
0.993736
0.816133
1
0.997838
0.996175
0.998369
0.9977
0.987553
0.995746
0.986333
0.996761
0.525821
0.889571
0.764273
0.783786
0.516273
0.9
0.787896
0.790524
0.995872
0.990485
0.993658
0.993634
0.995896
0.988221
0.993525
0.993996
0.996817
0.992813
0.997754
0.996598
0.996919
0.99993
0.99993
0.996811
0.998878
0.997669
1
1
0.995912
1
0.999923
1
0.999122
0.996671
0.995887
0.991773
0.99596
0.995542
0.998263
0.998957
1
0.998432
0.997664
0.998421
0.998113
0.992975
0.996804
0.996369
0.992309
0.995785
0.996309
0.997549
0.996642
1
0.997755
0.993073
0.999122
0.99969
0.997911
0.999334
0.998245
0.99681
0.999922
0.997367
0.994389
0.998243
0.998877
0.9989
0.999424
0.996205
0.996813
0.804169
0.954832
0.993076
0.815513
0.997489
0.99442
0.993933
0.991395
0.998638
0.995821
0.994394
0.986333
0.992614
0.493424
0.910793
0.79417
0.702654
0.501721
0.919367
0.807451
0.753138
0.995942
0.992724
0.995258
0.980354
0.989779
0.990396
0.996707
0.998877
0.993635
0.993629
0.998102
0.987928
0.99923
0.995958
1
0.99978
0.999961
0.999939
1
0.99644
0.998668
0.995608
0.999264
0.996812
1
1
0.991912
0.996863
0.998398
1
0.992902
0.998004
1
0.998712
0.999131
0.998272
0.997494
0.997808
0.994926
0.997367
0.994893
0.995786
0.997133
0.998245
0.99993
1
0.997755
1
0.998274
0.998529
0.996811
0.99997
0.996217
0.996699
0.998798
0.997035
1
0.997062
0.994928
1
0.998243
0.997986
0.996813
0.828997
0.955713
0.994835
0.826306
0.996791
0.992397
0.992021
0.982113
0.987833
0.988243
0.993734
0.989089
0.991433
0.511867
0.930033
0.81601
0.734849
0.516803
0.952269
0.833024
0.7795
0.992304
0.991815
0.994564
1
0.991212
0.992812
0.996927
0.998489
1
0.99686
0.998645
0.995391
0.99811
0.997631
0.996306
1
0.999613
0.999425
1
1
0.998819
0.997396
1
1
0.995274
0.985443
0.987591
0.977201
0.996448
0.997144
0.997215
0.998272
0.99717
0.998376
0.999191
0.998063
1
0.995391
0.991829
0.998275
0.988554
0.995842
0.999044
0.999123
0.995942
0.99986
0.997446
1
0.997729
0.998878
1
0.999122
0.998275
1
0.997209
0.99649
1
0.999122
0.991907
0.993622
1
0.996863
0.998132
0.832741
0.982497
1
0.83739
0.992467
0.993513
0.995483
0.992632
0.991283
0.996392
0.998087
0.995331
0.990858
0.525658
0.957015
0.84619
0.701033
0.531781
0.973483
0.838507
0.826411
0.994753
0.990275
0.993447
1
0.992178
0.997342
1
0.997522
0.996928
0.997372
0.999109
0.996817
0.996359
0.997979
0.998048
1
1
0.999092
1
0.995356
0.999152
0.997486
0.975928
0.997251
0.9907
0.979017
0.989405
0.993306
0.99798
1
0.998233
0.997915
0.999089
0.998152
0.994338
0.998272
0.999642
0.998371
0.997331
0.994525
0.990926
1
0.994826
0.997367
0.997762
0.993913
0.997833
1
0.998607
0.997329
0.99978
0.999697
0.995613
0.99681
0.995696
0.996368
0.996809
0.999182
0.99667
0.997031
0.999121
0.998645
0.993847
0.865249
0.982583
0.996812
0.868727
0.993861
0.990375
0.996209
0.995163
0.993826
0.993144
0.997197
0.991733
0.990646
0.56726
0.978842
0.863764
0.76241
0.603848
0.989965
0.901533
0.860933
0.995313
0.996992
0.998249
0.990453
0.99667
0.996496
1
0.99667
1
0.998248
0.999225
1
0.995939
0.994007
0.994633
0.994722
0.997795
1
0.996811
0.994776
0.998244
0.988916
0.985332
0.990433
0.991185
0.98916
0.989475
0.99735
1
1
0.99994
0.995711
1
0.999104
0.999131
0.998451
0.999056
1
0.996771
0.993829
0.996184
0.996403
0.997133
0.994583
0.996083
0.995942
0.998916
0.997911
0.998274
0.997794
1
0.997001
0.995583
1
0.991819
0.997125
0.996809
0.998304
0.995741
1
1
0.997909
1
0.893198
0.990112
1
0.904624
0.987166
0.991978
0.997428
0.993477
0.993735
0.992693
0.996471
0.993362
0.993582
0.596113
0.987506
0.904279
0.828694
0.575686
0.989144
0.904416
0.85372
0.990347
0.989084
0.998279
1
0.995509
0.997584
1
0.99849
1
0.999698
1
1
0.99874
0.993241
1
1
0.998143
0.994036
0.996811
0.998839
0.997062
0.992853
0.996555
0.993623
0.993094
0.991058
0.996863
0.980271
1
1
0.997664
0.999196
1
0.996415
0.994098
1
0.999056
0.993931
0.995058
0.991439
0.993811
0.99837
0.995847
0.989742
0.98503
0.984049
0.997755
1
0.999425
0.997794
0.997361
0.99997
0.99764
0.99362
0.995115
0.99773
0.99791
0.99997
0.99849
1
0.999152
0.996244
1
0.922424
0.992773
0.995713
0.925418
0.99435
0.99449
0.994296
0.992464
0.990104
0.999459
0.99624
0.998875
0.992795
0.604562
0.993312
0.942194
0.862288
0.618218
0.994526
0.949805
0.88376
0.993774
0.987476
0.99387
1
0.997832
0.995318
1
0.998877
1
0.999154
1
0.99989
0.997899
1
0.997421
0.992524
0.995474
0.996307
0.988343
0.993344
0.99791
0.994821
0.983162
0.996591
0.996153
0.986336
0.965628
0.979993
1
1
0.996556
1
1
0.998376
0.997574
0.999911
0.999024
0.99483
0.995585
0.997368
0.995493
0.994436
0.998286
0.997155
1
0.998041
0.998878
0.99945
1
1
1
0.999122
0.998245
0.993399
0.998876
0.998063
0.993619
0.999122
0.997754
0.99934
0.998243
1
0.99978
0.937018
0.99873
0.993625
0.945284
0.994769
1
0.995252
0.9973
0.996671
1
0.998417
1
0.998789
0.617281
0.997963
0.949031
0.906834
0.61416
0.99556
0.957719
0.884811
0.997971
0.996012
1
1
0.9988
0.99855
1
1
1
1
1
1
0.997969
0.997003
0.99993
0.997911
0.998878
0.996307
0.996371
0.999923
0.994004
0.997759
0.986181
0.996811
0.997668
0.994426
0.991215
1
1
1
0.996376
0.999404
0.998081
0.999944
0.99982
1
0.997169
0.996797
1
0.995765
0.999609
0.996797
0.998088
0.999123
1
0.997971
0.998878
0.996811
0.998244
0.99822
1
0.999637
0.999123
0.99681
1
1
1
1
0.995896
1
0.998243
0.99849
0.996813
0.938218
0.995676
1
0.952912
0.995537
0.998395
0.997132
0.996738
0.997942
1
1
1
0.999122
0.65382
0.996018
0.965192
0.9627
0.694221
0.99556
0.96552
0.888032
1
1
0.99997
1
0.998645
0.999124
1
1
1
1
1
1
1
0.998049
0.996655
0.994062
0.998878
0.996457
0.998901
0.997756
0.992461
0.995336
0.998142
0.998131
0.999606
0.998877
0.999582
0.996375
1
0.998885
0.999311
0.999762
0.998113
0.999888
0.996735
0.999255
0.996941
0.998314
0.999934
1
0.996905
0.996684
0.993936
0.99767
0.997972
1
1
1
0.998244
0.999884
0.996811
0.998243
0.999123
1
0.999845
0.995945
1
0.999122
0.998722
1
0.998243
0.997521
1
0.941741
0.996855
1
0.93204
0.999582
0.997977
0.999044
1
0.999879
0.999609
1
0.996738
0.998547
0.708325
0.996078
0.984404
0.990249
0.764121
0.995864
0.987225
0.905328
0.996222
0.997831
0.999124
1
0.997174
1
1
0.998877
1
0.999124
1
1
0.99874
0.996585
0.995958
0.990432
0.996827
0.993277
0.996812